Title
82320
    1SAPS     N    1   3.124   3.938  11.279  0.2668 -0.4348  0.4002
    1SAPS   HN1    2   3.061   3.886  11.214  1.0048 -1.0122  0.1313
    1SAPS   HN2    3   3.209   3.954  11.222  1.1788 -1.1605  1.5173
    1SAPS   HN3    4   3.166   3.870  11.346  1.7545  0.9989  0.9468
    1SAPS   C12    5   3.073   4.064  11.329 -0.0966 -0.8611 -0.5702
    1SAPS  H12A    6   3.026   4.046  11.424  0.9852 -0.1891  0.1003
    1SAPS   C13    7   3.177   4.176  11.352 -0.5326  0.2933  0.0056
    1SAPS  O13A    8   3.294   4.166  11.304  0.4823  0.4138  0.3501
    1SAPS  O13B    9   3.131   4.291  11.370 -0.5676  0.6022  0.1282
    1SAPS   C11   10   2.967   4.110  11.221  0.2446  0.6505 -0.0186
    1SAPS  H11A   11   3.004   4.116  11.116 -0.4433 -0.3524 -0.3219
    1SAPS  H11B   12   2.946   4.213  11.257 -1.4340 -0.0629  1.0539
    1SAPS     P   13   2.732   4.068  11.132  0.1122  0.1791  0.1885
    1SAPS   O13   14   2.616   3.985  11.173  0.0784 -0.6249  0.6378
    1SAPS   O14   15   2.724   4.216  11.132  0.1105  0.1220  0.3987
    1SAPS   O12   16   2.859   4.019  11.221 -0.6365 -0.3670 -0.2241
    1SAPS   O11   17   2.771   4.016  10.989 -0.1798 -0.7054 -0.6661
    1SAPS    C1   18   2.837   4.105  10.895 -0.5773  0.4573 -0.0754
    1SAPS    HA   19   2.903   4.185  10.936  0.5955 -0.4200 -0.2323
    1SAPS    HB   20   2.911   4.046  10.837  0.7966 -0.7153  2.7693
    1SAPS    C2   21   2.733   4.165  10.799  0.3757  0.4758 -0.2610
    1SAPS    HS   22   2.660   4.227  10.854  1.8482  0.4931  1.7185
    1SAPS   O21   23   2.666   4.064  10.717  0.5692 -0.3841 -0.0968
    1SAPS   C21   24   2.549   4.028  10.765 -0.6564  0.3847  0.1469
    1SAPS   O22   25   2.506   4.070  10.871 -0.0557  0.1677 -0.0043
    1SAPS   C22   26   2.472   3.940  10.666  0.5363  0.0643 -0.1111
    1SAPS   H2R   27   2.549   3.872  10.625  0.1192 -1.2131  1.1939
    1SAPS   H2S   28   2.400   3.877  10.723 -2.4835  1.7540 -1.9083
    1SAPS    C3   29   2.798   4.273  10.705 -0.5587 -0.1890  0.2378
    1SAPS    HX   30   2.895   4.236  10.666 -0.2187 -1.2174  2.0157
    1SAPS    HY   31   2.835   4.356  10.770  2.2658 -2.2705  1.3678
    1SAPS   O31   32   2.711   4.321  10.598 -0.2992  0.0322 -0.0460
    1SAPS   C31   33   2.777   4.407  10.520 -0.3143 -0.8103 -0.5959
    1SAPS   O32   34   2.894   4.443  10.536  0.3228  0.5559 -0.1875
    1SAPS   C32   35   2.683   4.449  10.402 -0.2253 -0.1136  0.6370
    1SAPS   H2X   36   2.575   4.445  10.428 -0.0172  0.5832  1.6293
    1SAPS   H2Y   37   2.691   4.368  10.326 -0.0044 -0.4718  1.0371
    1SAPS   C23   38   2.421   4.041  10.566  0.7396 -0.1987  0.0631
    1SAPS   H3R   39   2.402   3.979  10.476 -0.8539  1.0379 -0.4757
    1SAPS   H3S   40   2.497   4.117  10.541  0.0472  0.0244 -1.4029
    1SAPS   C24   41   2.308   4.135  10.617  0.6420  0.4462  0.2974
    1SAPS   H4R   42   2.310   4.217  10.543  0.8088 -1.8760 -2.3875
    1SAPS   H4S   43   2.342   4.184  10.711 -1.2494 -1.7673  2.2172
    1SAPS   C25   44   2.173   4.073  10.639  0.2964 -0.3151 -0.4526
    1SAPS   H5R   45   2.167   4.007  10.727 -1.5141 -1.1443 -1.1794
    1SAPS   C26   46   2.062   4.078  10.566 -0.1837  0.2496  0.1604
    1SAPS   H6R   47   1.980   4.014  10.602  0.0809 -0.2564 -0.1274
    1SAPS   C27   48   2.033   4.142  10.432 -0.1121 -0.0007 -0.0874
    1SAPS   H7R   49   2.026   4.061  10.356  2.5112 -1.8261  1.4901
    1SAPS   H7S   50   2.125   4.187  10.390 -0.4853 -0.8686 -1.9049
    1SAPS   C28   51   1.921   4.241  10.439 -0.0175  0.4824 -0.7288
    1SAPS   H8R   52   1.903   4.300  10.530  0.6010 -1.8278  0.9413
    1SAPS   C29   53   1.842   4.274  10.338 -0.1359 -0.2258  0.1617
    1SAPS   H9R   54   1.756   4.342  10.351 -2.0514 -2.5931  0.1965
    1SAPS  C210   55   1.847   4.217  10.199  0.3217 -0.5062  0.0991
    1SAPS  H10R   56   1.946   4.170  10.177  0.3013 -1.5715  2.1847
    1SAPS  H10S   57   1.848   4.296  10.120  0.2579 -1.4961 -0.8961
    1SAPS  C211   58   1.726   4.137  10.173 -0.6228  0.5316  0.4805
    1SAPS  H11R   59   1.665   4.097  10.255 -2.7141  2.4107 -0.1048
    1SAPS  C212   60   1.676   4.125  10.048  0.5188 -0.0744  0.0314
    1SAPS  H12R   61   1.584   4.064  10.040  1.0640 -0.8874 -0.0943
    1SAPS  C213   62   1.727   4.182   9.918 -0.2084 -0.5916 -0.0367
    1SAPS  H13R   63   1.767   4.099   9.857 -0.1373 -0.6254  0.0544
    1SAPS  H13S   64   1.807   4.257   9.937 -0.4385 -0.7115  1.5440
    1SAPS  C214   65   1.620   4.267   9.853 -0.3541  0.1687  0.0214
    1SAPS  H14R   66   1.585   4.344   9.924  1.2040 -0.0228  1.0377
    1SAPS  C215   67   1.584   4.269   9.724  0.0664 -0.3011 -0.7243
    1SAPS  H15R   68   1.530   4.351   9.673  0.7180  1.3821  1.2022
    1SAPS  C216   69   1.653   4.194   9.618 -0.4058  0.1121 -0.6108
    1SAPS  H16R   70   1.609   4.092   9.609  1.8835 -1.0517  1.0312
    1SAPS  H16S   71   1.761   4.177   9.636  0.1311 -1.4643 -4.7648
    1SAPS  C217   72   1.643   4.252   9.477 -0.1826 -0.9447  0.6466
    1SAPS  H17R   73   1.536   4.260   9.447  0.3570 -3.2164 -1.9577
    1SAPS  H17S   74   1.699   4.188   9.406  0.5458 -0.4080  0.7280
    1SAPS  C218   75   1.725   4.380   9.474  0.1225 -0.4904  0.7092
    1SAPS  H18R   76   1.827   4.350   9.505 -0.8762 -0.3437  4.4637
    1SAPS  H18S   77   1.694   4.453   9.553  0.5806  1.3295 -0.7598
    1SAPS  C219   78   1.737   4.437   9.332  0.7072 -0.2358  0.3445
    1SAPS  H19R   79   1.767   4.350   9.269  2.0298 -0.6483  1.5378
    1SAPS  H19S   80   1.814   4.516   9.321 -1.0690  1.4546 -0.3493
    1SAPS  C220   81   1.612   4.497   9.269  0.1611 -0.2324  0.5319
    1SAPS  H20R   82   1.547   4.416   9.229 -0.7750  0.8118 -0.0671
    1SAPS  H20S   83   1.632   4.566   9.184 -5.8932 -0.2816 -1.1169
    1SAPS  H20T   84   1.558   4.562   9.341 -1.0572  1.0392 -1.4854
    1SAPS   C33   85   2.720   4.584  10.339 -0.0531  0.1943 -1.3424
    1SAPS   H3X   86   2.830   4.570  10.325  0.7269  1.5883  2.7023
    1SAPS   H3Y   87   2.702   4.667  10.410  1.6691 -2.0830  1.8757
    1SAPS   C34   88   2.652   4.613  10.201 -0.2833 -0.8813  0.0925
    1SAPS   H4X   89   2.660   4.719  10.168 -0.6530 -0.0778  2.5133
    1SAPS   H4Y   90   2.544   4.592  10.216 -0.4452 -0.5743 -0.6102
    1SAPS   C35   91   2.713   4.530  10.080  0.2199 -0.3027 -0.2351
    1SAPS   H5X   92   2.684   4.424  10.096 -2.0961  0.2404 -0.5675
    1SAPS   H5Y   93   2.823   4.522  10.093  0.5574  0.1156 -2.7310
    1SAPS   C36   94   2.689   4.588   9.940 -0.5404  0.4869 -0.1618
    1SAPS   H6X   95   2.722   4.693   9.936  0.2345  0.1727 -2.8019
    1SAPS   H6Y   96   2.581   4.589   9.911 -0.7532 -0.2763  0.5853
    1SAPS   C37   97   2.765   4.518   9.828  0.2769 -0.3452  0.0279
    1SAPS   H7X   98   2.758   4.408   9.815 -1.6431 -0.2502  0.1663
    1SAPS   H7Y   99   2.871   4.534   9.857  0.0928 -1.8540  1.5959
    1SAPS   C38  100   2.719   4.561   9.690 -0.4472  0.5940  0.1164
    1SAPS   H8X  101   2.712   4.670   9.672 -0.2108  0.7640  1.0249
    1SAPS   H8Y  102   2.615   4.523   9.692  0.2188 -1.2907  0.4385
    1SAPS   C39  103   2.802   4.492   9.584 -0.0106 -0.3959 -0.4139
    1SAPS   H9X  104   2.802   4.382   9.600 -2.2868 -0.1643  1.3597
    1SAPS   H9Y  105   2.907   4.527   9.590 -0.1040  0.1035 -1.4916
    1SAPS  C310  106   2.743   4.546   9.450  0.0498 -0.0934  0.2084
    1SAPS  H10X  107   2.799   4.641   9.436 -0.1515  0.1174  0.8433
    1SAPS  H10Y  108   2.633   4.551   9.462 -0.1194  0.3505 -1.3101
    1SAPS  C311  109   2.775   4.459   9.330 -0.7383 -0.2202  0.2021
    1SAPS  H11X  110   2.885   4.446   9.333 -0.5218  1.7047  1.4359
    1SAPS  H11Y  111   2.767   4.528   9.243  0.1410  1.5134  1.4697
    1SAPS  C312  112   2.694   4.334   9.318  0.0711  0.0410 -0.0878
    1SAPS  H12X  113   2.587   4.365   9.309 -0.2308 -1.3904 -1.5640
    1SAPS  H12Y  114   2.712   4.261   9.400  0.5598 -0.5698 -0.7399
    1SAPS  C313  115   2.730   4.255   9.198  0.3089 -0.2647  0.0112
    1SAPS  H13X  116   2.678   4.157   9.205 -1.1451  0.4232 -0.8625
    1SAPS  H13Y  117   2.835   4.230   9.172  0.2767  0.0909 -0.4568
    1SAPS  C314  118   2.689   4.323   9.066 -0.0189  0.1443 -0.1948
    1SAPS  H14X  119   2.774   4.374   9.016 -0.8657  0.7666 -1.0097
    1SAPS  H14Y  120   2.614   4.404   9.078 -1.3045 -0.6460 -2.6997
    1SAPS  C315  121   2.631   4.225   8.958 -1.0730  0.2599  0.3417
    1SAPS  H15X  122   2.697   4.139   8.934 -0.0643  0.1621  3.2381
    1SAPS  H15Y  123   2.614   4.281   8.864  0.5884  1.1875  0.5795
    1SAPS  C316  124   2.486   4.168   8.990  0.3352 -0.0876  0.8508
    1SAPS  H16X  125   2.408   4.247   8.997  0.7276  0.4509 -0.7122
    1SAPS  H16Y  126   2.475   4.125   9.092 -1.7994  2.8087  1.8887
    1SAPS  C317  127   2.432   4.068   8.885  0.3571 -0.2877  0.0952
    1SAPS  H17X  128   2.509   3.988   8.876 -0.9179 -1.6012  0.6969
    1SAPS  H17Y  129   2.437   4.118   8.785  1.1933 -2.2905 -0.9103
    1SAPS  C318  130   2.299   3.994   8.905 -0.3900 -0.2992 -0.4239
    1SAPS  H18X  131   2.297   3.947   9.005  0.4264  0.3740 -0.0874
    1SAPS  H18Y  132   2.280   3.914   8.830  2.9837 -2.8392  1.3022
    1SAPS  H18Z  133   2.213   4.065   8.908 -0.7402 -0.6930 -1.0504
    2SAPS     N  134   0.073   4.110  10.860 -0.3376  0.7582  0.0676
    2SAPS   HN1  135   0.044   4.143  10.766  0.0351  0.5257 -0.1287
    2SAPS   HN2  136   0.078   4.006  10.861 -1.0019  0.6585 -2.7024
    2SAPS   HN3  137   0.002   4.140  10.931 -0.6063 -0.4846  0.3399
    2SAPS   C12  138   0.208   4.171  10.889  0.1219 -0.3710  0.2200
    2SAPS  H12A  139   0.194   4.272  10.924  2.2486  0.9334 -2.5624
    2SAPS   C13  140   0.274   4.104  11.016  0.1401  0.4442  0.7048
    2SAPS  O13A  141   0.223   3.999  11.058  0.3684  0.2637 -0.3685
    2SAPS  O13B  142   0.378   4.156  11.060 -0.2290 -0.0430 -0.0816
    2SAPS   C11  143   0.306   4.158  10.768  0.2011 -0.3560 -0.7723
    2SAPS  H11A  144   0.314   4.052  10.737  0.9502 -0.2874 -0.8334
    2SAPS  H11B  145   0.409   4.193  10.793 -0.4949  0.9208  0.4442
    2SAPS     P  146   0.328   4.381  10.639  0.3190 -0.2011 -0.1582
    2SAPS   O13  147   0.261   4.438  10.522 -0.8968 -0.6230 -0.6448
    2SAPS   O14  148   0.320   4.468  10.759 -0.2559  0.6536 -0.1398
    2SAPS   O12  149   0.263   4.238  10.667  0.1329 -0.1101  0.5478
    2SAPS   O11  150   0.486   4.345  10.617  0.6193  0.2156  0.1818
    2SAPS    C1  151   0.523   4.249  10.515 -0.9368  1.0239 -0.0479
    2SAPS    HA  152   0.605   4.185  10.555  1.5674  3.7123 -0.7037
    2SAPS    HB  153   0.440   4.187  10.476 -0.9554  0.4619  0.8663
    2SAPS    C2  154   0.602   4.313  10.395 -0.3546 -0.0864  0.0085
    2SAPS    HS  155   0.703   4.339  10.431  0.6444 -0.7346 -2.2528
    2SAPS   O21  156   0.540   4.431  10.332 -0.2430 -0.1230 -0.1713
    2SAPS   C21  157   0.542   4.554  10.394  0.5234  0.2430 -0.3525
    2SAPS   O22  158   0.604   4.580  10.499  0.9586 -0.0827 -0.0040
    2SAPS   C22  159   0.479   4.657  10.298  0.0175  0.6534 -0.5849
    2SAPS   H2R  160   0.453   4.606  10.202 -1.3777  2.0711 -0.9831
    2SAPS   H2S  161   0.388   4.689  10.353  1.4591 -0.1864  2.3915
    2SAPS    C3  162   0.609   4.198  10.290 -0.7100  0.7933 -0.9531
    2SAPS    HX  163   0.514   4.142  10.278  0.8415 -3.3809  4.5261
    2SAPS    HY  164   0.699   4.139  10.320  0.4953  1.9008 -2.2817
    2SAPS   O31  165   0.635   4.252  10.155  0.3750  0.6824  0.2487
    2SAPS   C31  166   0.754   4.311  10.144  0.6319 -0.8290 -0.7703
    2SAPS   O32  167   0.846   4.300  10.219  1.0812  0.2837  0.0206
    2SAPS   C32  168   0.761   4.396  10.014 -0.3167  0.2567  0.6519
    2SAPS   H2X  169   0.861   4.444  10.013  0.2544 -0.9266 -0.0403
    2SAPS   H2Y  170   0.676   4.468  10.010 -1.3578 -0.8578  2.0406
    2SAPS   C23  171   0.578   4.774  10.261 -0.0548  0.4466  0.3843
    2SAPS   H3R  172   0.661   4.792  10.332  1.4553  2.3982 -1.8079
    2SAPS   H3S  173   0.509   4.861  10.261 -1.2342 -0.4683 -1.0807
    2SAPS   C24  174   0.642   4.749  10.122  0.2613 -0.4183 -0.2809
    2SAPS   H4R  175   0.564   4.725  10.047  1.2528 -0.5391 -1.2881
    2SAPS   H4S  176   0.690   4.649  10.134 -0.9235 -0.7724  1.7093
    2SAPS   C25  177   0.736   4.860  10.070  0.3623 -0.6657 -0.0429
    2SAPS   H5R  178   0.749   4.939  10.146  0.6833 -1.7733  1.0857
    2SAPS   C26  179   0.816   4.866   9.962  0.1897  0.0640  0.2212
    2SAPS   H6R  180   0.876   4.952   9.930 -2.1119  2.1387  1.2752
    2SAPS   C27  181   0.819   4.746   9.870  0.1963 -0.3329 -0.1623
    2SAPS   H7R  182   0.794   4.655   9.929  0.5883 -1.1815 -1.2870
    2SAPS   H7S  183   0.915   4.729   9.816  0.5109  0.4536  0.1447
    2SAPS   C28  184   0.702   4.772   9.778 -0.0979 -0.0564  0.7308
    2SAPS   H8R  185   0.615   4.821   9.824 -1.1423 -0.3675 -0.8552
    2SAPS   C29  186   0.712   4.792   9.643  0.1633 -0.4226  0.3328
    2SAPS   H9R  187   0.622   4.821   9.586 -1.5470 -0.1676  3.0666
    2SAPS  C210  188   0.838   4.778   9.556  0.0564  0.0175 -0.0570
    2SAPS  H10R  189   0.864   4.674   9.527  2.6786  0.3082  1.1705
    2SAPS  H10S  190   0.926   4.802   9.618 -0.6572  2.9292 -0.1229
    2SAPS  C211  191   0.830   4.867   9.429 -0.1051  0.1444  0.2446
    2SAPS  H11R  192   0.869   4.970   9.438  0.2186 -0.1556  2.5258
    2SAPS  C212  193   0.791   4.822   9.307  0.3794  0.2315 -0.3773
    2SAPS  H12R  194   0.793   4.884   9.216 -0.3653  0.2840 -0.3682
    2SAPS  C213  195   0.745   4.686   9.283 -0.7413 -0.2598  0.6429
    2SAPS  H13R  196   0.707   4.637   9.375 -1.3110  1.1099  1.1412
    2SAPS  H13S  197   0.820   4.611   9.250 -1.0082 -0.7310  1.1093
    2SAPS  C214  198   0.639   4.680   9.179  0.3841 -0.1918  0.6280
    2SAPS  H14R  199   0.539   4.692   9.223 -0.0898  0.7621 -0.6838
    2SAPS  C215  200   0.654   4.673   9.042 -0.4949 -0.3608 -0.1079
    2SAPS  H15R  201   0.564   4.656   8.981 -0.2149 -0.3999 -0.5139
    2SAPS  C216  202   0.782   4.665   8.963 -0.3623 -0.3270 -0.1052
    2SAPS  H16R  203   0.863   4.706   9.026 -0.9925  1.4257 -0.4235
    2SAPS  H16S  204   0.771   4.722   8.868  0.0191 -1.1258 -0.6391
    2SAPS  C217  205   0.828   4.528   8.910  0.1517  0.3794  0.2717
    2SAPS  H17R  206   0.871   4.466   8.992  0.2310  1.2346  0.8876
    2SAPS  H17S  207   0.914   4.529   8.840  0.9114 -0.2558  1.1837
    2SAPS  C218  208   0.723   4.442   8.832 -0.2649 -0.0542 -0.2206
    2SAPS  H18R  209   0.658   4.522   8.792  0.7725  0.6867 -0.4449
    2SAPS  H18S  210   0.663   4.367   8.889 -2.0384  0.6619 -1.1224
    2SAPS  C219  211   0.793   4.363   8.722  0.1997  0.1198 -0.3681
    2SAPS  H19R  212   0.839   4.276   8.774 -1.6910 -1.0403 -0.5868
    2SAPS  H19S  213   0.867   4.426   8.668 -1.2106  2.3963  0.2902
    2SAPS  C220  214   0.696   4.302   8.621 -0.2748  0.5512 -0.2490
    2SAPS  H20R  215   0.743   4.304   8.521 -0.1761  0.3737 -0.2064
    2SAPS  H20S  216   0.609   4.369   8.601 -1.4402 -1.0617 -0.7209
    2SAPS  H20T  217   0.651   4.205   8.653  0.0237  0.1898 -0.9019
    2SAPS   C33  218   0.759   4.310   9.887  0.1012  0.0509  0.7997
    2SAPS   H3X  219   0.661   4.259   9.888  1.0779 -2.1265 -2.9534
    2SAPS   H3Y  220   0.844   4.238   9.888  0.1614  0.0487 -1.1148
    2SAPS   C34  221   0.759   4.402   9.764  0.6324 -0.2369 -0.5540
    2SAPS   H4X  222   0.849   4.466   9.755  0.1048  0.4259 -1.1372
    2SAPS   H4Y  223   0.674   4.474   9.764  1.2676  0.6005  2.9989
    2SAPS   C35  224   0.773   4.312   9.638  0.6483  0.1497 -0.2118
    2SAPS   H5X  225   0.681   4.255   9.611  1.2309 -1.4743  1.1898
    2SAPS   H5Y  226   0.861   4.246   9.648  0.0622 -0.4192  1.3136
    2SAPS   C36  227   0.798   4.411   9.516  0.1411  0.1221 -0.3491
    2SAPS   H6X  228   0.887   4.477   9.529 -0.8045  1.9862 -2.8413
    2SAPS   H6Y  229   0.711   4.481   9.508  0.7809  1.1381  1.3616
    2SAPS   C37  230   0.839   4.337   9.385  0.1377 -0.1488  0.6383
    2SAPS   H7X  231   0.932   4.281   9.409 -1.4082 -1.3885  4.0995
    2SAPS   H7Y  232   0.852   4.416   9.309 -0.1636 -0.7030  0.0012
    2SAPS   C38  233   0.720   4.250   9.336 -0.0724  0.2235  0.3010
    2SAPS   H8X  234   0.624   4.306   9.333 -0.5860 -0.6742 -0.2924
    2SAPS   H8Y  235   0.701   4.160   9.399  1.0376  0.0331  0.3668
    2SAPS   C39  236   0.732   4.204   9.190  0.0968 -0.6403 -0.0163
    2SAPS   H9X  237   0.727   4.300   9.133  0.0190 -1.0381 -0.6849
    2SAPS   H9Y  238   0.641   4.146   9.166  0.7668 -1.8030  0.2207
    2SAPS  C310  239   0.852   4.117   9.156 -0.3178  0.3852  0.0544
    2SAPS  H10X  240   0.850   4.032   9.228 -0.8375 -0.0126 -0.4234
    2SAPS  H10Y  241   0.952   4.163   9.174 -0.8562  2.8041 -2.8375
    2SAPS  C311  242   0.852   4.072   9.013  0.2414  0.4363 -0.4962
    2SAPS  H11X  243   0.952   4.024   9.003 -0.3280 -0.9670  0.4167
    2SAPS  H11Y  244   0.847   4.164   8.951 -0.3321  1.0822  0.4938
    2SAPS  C312  245   0.746   3.977   8.963 -0.7136 -0.9096 -0.3330
    2SAPS  H12X  246   0.650   4.030   8.979  0.1884  0.6911 -0.0929
    2SAPS  H12Y  247   0.756   3.881   9.017  0.6841 -0.4117  0.3336
    2SAPS  C313  248   0.780   3.948   8.814  0.5387 -0.4136 -0.1159
    2SAPS  H13X  249   0.883   3.909   8.800 -0.3165 -2.3382 -1.1947
    2SAPS  H13Y  250   0.773   4.042   8.755  2.5646  1.2964  2.2365
    2SAPS  C314  251   0.681   3.858   8.746  0.6662  0.4901 -0.3340
    2SAPS  H14X  252   0.725   3.833   8.647  0.6380  2.7362 -0.9467
    2SAPS  H14Y  253   0.583   3.908   8.730 -0.4765 -2.2918 -2.4716
    2SAPS  C315  254   0.661   3.730   8.819 -0.2283 -0.5316 -0.4625
    2SAPS  H15X  255   0.613   3.752   8.917 -1.9097  2.2791 -1.8650
    2SAPS  H15Y  256   0.759   3.678   8.823 -0.4868 -0.9994 -0.0818
    2SAPS  C316  257   0.565   3.634   8.759  0.0202 -0.1207 -0.0783
    2SAPS  H16X  258   0.581   3.531   8.799 -0.3597 -0.1455  0.0117
    2SAPS  H16Y  259   0.588   3.633   8.650 -2.3535  0.9348 -0.6104
    2SAPS  C317  260   0.418   3.661   8.793  0.1273 -0.2729  0.3812
    2SAPS  H17X  261   0.408   3.766   8.759 -0.2407 -0.6130 -0.5928
    2SAPS  H17Y  262   0.398   3.642   8.901 -0.1754 -0.9734  0.2060
    2SAPS  C318  263   0.326   3.565   8.717 -0.7504 -0.3569 -0.1552
    2SAPS  H18X  264   0.334   3.458   8.746 -0.1188 -0.2034  0.2402
    2SAPS  H18Y  265   0.352   3.566   8.608 -0.3891  1.2524 -0.0764
    2SAPS  H18Z  266   0.220   3.594   8.730 -0.3349  0.5186  1.3292
    3SAPS     N  267   1.163   6.275  11.180  0.3995  0.1354  0.4017
    3SAPS   HN1  268   1.123   6.370  11.170  0.0384  0.0188  0.7250
    3SAPS   HN2  269   1.172   6.256  11.282  2.4860 -1.9743 -0.1411
    3SAPS   HN3  270   1.257   6.281  11.136 -0.3399  2.3852 -0.9397
    3SAPS   C12  271   1.090   6.175  11.105  0.5262 -0.6078  0.0472
    3SAPS  H12A  272   1.126   6.079  11.140  2.2145 -0.3696 -0.9793
    3SAPS   C13  273   0.944   6.187  11.142  0.0972 -0.4235  0.2944
    3SAPS  O13A  274   0.896   6.273  11.219 -0.0793 -0.0898 -0.2189
    3SAPS  O13B  275   0.861   6.108  11.087  0.8950 -0.2154 -0.4394
    3SAPS   C11  276   1.114   6.199  10.948  0.1323 -0.2289  0.3150
    3SAPS  H11A  277   1.065   6.294  10.921  0.6028 -0.0411  0.1198
    3SAPS  H11B  278   1.065   6.120  10.887 -1.7830  0.0643  1.4411
    3SAPS     P  279   1.343   6.319  10.882  0.0384  0.0340  0.6889
    3SAPS   O13  280   1.340   6.400  11.003  0.2829 -0.5624 -0.5053
    3SAPS   O14  281   1.476   6.279  10.836 -0.5455  0.3883  0.7759
    3SAPS   O12  282   1.255   6.190  10.912  0.4923  0.3150 -0.3963
    3SAPS   O11  283   1.271   6.404  10.766 -0.0785 -0.1229  0.1656
    3SAPS    C1  284   1.272   6.345  10.631  0.5089  0.0230 -0.5310
    3SAPS    HA  285   1.300   6.238  10.630  2.0852  0.4239 -2.5609
    3SAPS    HB  286   1.176   6.363  10.579  0.3406 -0.0393 -0.2401
    3SAPS    C2  287   1.382   6.425  10.542 -0.6801 -0.5043  0.0551
    3SAPS    HS  288   1.470   6.437  10.610 -0.1979 -0.1820 -0.6209
    3SAPS   O21  289   1.314   6.547  10.503  0.0545 -0.6354  0.7454
    3SAPS   C21  290   1.397   6.646  10.471 -0.2695  0.6420  0.8046
    3SAPS   O22  291   1.520   6.636  10.463 -0.9004 -0.8517 -0.3025
    3SAPS   C22  292   1.315   6.759  10.414 -0.5420  1.0053 -0.2960
    3SAPS   H2R  293   1.243   6.709  10.345 -0.7741  0.4745  0.3156
    3SAPS   H2S  294   1.249   6.808  10.489  0.7052  0.0108  1.5225
    3SAPS    C3  295   1.434   6.345  10.421  0.1749  0.0590 -0.0759
    3SAPS    HX  296   1.481   6.249  10.452  3.1994  1.1847 -0.9691
    3SAPS    HY  297   1.507   6.411  10.369  0.2094 -0.0519 -0.1651
    3SAPS   O31  298   1.313   6.304  10.345 -0.4524  0.8148 -0.4022
    3SAPS   C31  299   1.289   6.370  10.232 -0.4627 -0.1615 -0.4395
    3SAPS   O32  300   1.363   6.451  10.182  0.2011 -0.0423 -0.2827
    3SAPS   C32  301   1.146   6.332  10.172 -0.0480 -0.7093 -0.2678
    3SAPS   H2X  302   1.081   6.375  10.252  3.3296  0.5113  1.9506
    3SAPS   H2Y  303   1.139   6.222  10.176  1.3640 -0.8093 -0.3182
    3SAPS   C23  304   1.397   6.868  10.339 -0.2751  0.6091  0.2954
    3SAPS   H3R  305   1.471   6.820  10.270  2.0446  0.7018  2.6296
    3SAPS   H3S  306   1.463   6.915  10.414  3.0821 -0.3940 -1.8832
    3SAPS   C24  307   1.309   6.964  10.262  0.2679 -0.5508 -0.5670
    3SAPS   H4R  308   1.379   7.032  10.210  0.2905 -0.4627 -0.4238
    3SAPS   H4S  309   1.263   7.029  10.339  1.6588 -1.2735  0.9071
    3SAPS   C25  310   1.204   6.905  10.171 -0.0996  0.7284  0.0709
    3SAPS   H5R  311   1.130   6.846  10.227 -0.4369  0.8470 -0.2512
    3SAPS   C26  312   1.186   6.903  10.038 -0.0033  0.4952  0.1657
    3SAPS   H6R  313   1.092   6.865   9.995 -1.1972  0.7609  2.4521
    3SAPS   C27  314   1.286   6.969   9.948  0.4260 -0.0774  0.8545
    3SAPS   H7R  315   1.376   7.007  10.001 -0.2248  0.2033  1.7706
    3SAPS   H7S  316   1.232   7.059   9.911  0.2669 -0.3200  0.4961
    3SAPS   C28  317   1.315   6.873   9.839  0.0628 -0.6616  0.1690
    3SAPS   H8R  318   1.373   6.789   9.880  1.2634  0.8672  1.6892
    3SAPS   C29  319   1.283   6.866   9.708  0.2547  0.0871 -0.4276
    3SAPS   H9R  320   1.289   6.765   9.665 -0.5794  0.5939 -1.7640
    3SAPS  C210  321   1.208   6.963   9.631 -0.1639  0.1596 -0.3763
    3SAPS  H10R  322   1.119   6.996   9.688 -1.8071 -3.9144 -0.3887
    3SAPS  H10S  323   1.160   6.915   9.543 -2.5821  0.8885  0.5189
    3SAPS  C211  324   1.294   7.080   9.590  0.0504  0.2064  0.3959
    3SAPS  H11R  325   1.301   7.167   9.657 -0.2912  0.4077  0.1709
    3SAPS  C212  326   1.344   7.104   9.468  0.4334  0.1162 -0.7763
    3SAPS  H12R  327   1.409   7.190   9.447  0.9459  0.1011  0.7178
    3SAPS  C213  328   1.326   7.004   9.357 -0.2604 -0.0125 -0.7735
    3SAPS  H13R  329   1.223   7.003   9.316 -0.4623 -0.0706 -0.2600
    3SAPS  H13S  330   1.331   6.901   9.398  0.3352 -0.3085 -1.5661
    3SAPS  C214  331   1.425   7.015   9.246  0.4014  1.0747 -0.2494
    3SAPS  H14R  332   1.531   7.009   9.274  0.5812  3.0030 -0.4402
    3SAPS  C215  333   1.399   7.035   9.115  0.1927  0.8901 -0.0441
    3SAPS  H15R  334   1.492   7.036   9.056 -0.5838  0.0500 -1.3303
    3SAPS  C216  335   1.269   7.058   9.041  0.4012 -0.5746  0.5235
    3SAPS  H16R  336   1.187   7.069   9.115  0.1604 -1.0098  0.3225
    3SAPS  H16S  337   1.221   6.972   8.989 -1.6070 -0.7303  2.5537
    3SAPS  C217  338   1.264   7.186   8.956 -0.3390  0.6668  0.3670
    3SAPS  H17R  339   1.359   7.193   8.900  0.4373 -2.2225  1.2304
    3SAPS  H17S  340   1.256   7.281   9.014  1.1896  1.2699 -0.3845
    3SAPS  C218  341   1.145   7.200   8.853  0.2605  1.0185 -0.5155
    3SAPS  H18R  342   1.048   7.165   8.894  0.4992 -4.1733 -3.7896
    3SAPS  H18S  343   1.170   7.128   8.772 -3.1678 -0.9279  0.0221
    3SAPS  C219  344   1.131   7.340   8.796 -0.0699  0.0473  0.1741
    3SAPS  H19R  345   1.222   7.362   8.736  0.5605  1.5744  1.6350
    3SAPS  H19S  346   1.139   7.416   8.877  2.5523  1.5669 -1.4408
    3SAPS  C220  347   1.011   7.372   8.714  0.5009  0.5317 -0.3667
    3SAPS  H20R  348   1.010   7.483   8.709  3.0974  0.7058  1.5878
    3SAPS  H20S  349   0.925   7.318   8.759 -0.2447  1.7310 -0.3517
    3SAPS  H20T  350   1.021   7.330   8.612 -3.7838 -1.2227 -0.1631
    3SAPS   C33  351   1.126   6.401  10.032 -1.3156 -0.1289  0.0501
    3SAPS   H3X  352   1.133   6.510  10.053  1.1523 -0.2355 -0.1016
    3SAPS   H3Y  353   1.028   6.377   9.986 -0.0992 -1.8166 -1.7654
    3SAPS   C34  354   1.226   6.365   9.931 -0.4894 -0.1862 -0.0014
    3SAPS   H4X  355   1.230   6.256   9.912  0.0682  0.0517 -1.3154
    3SAPS   H4Y  356   1.330   6.396   9.955 -0.8359  0.7053  0.3971
    3SAPS   C35  357   1.189   6.438   9.801 -0.5644 -0.2116 -0.1505
    3SAPS   H5X  358   1.190   6.548   9.817  0.3707 -0.2191 -0.1129
    3SAPS   H5Y  359   1.089   6.398   9.775 -0.0893 -2.4598  1.3376
    3SAPS   C36  360   1.277   6.418   9.679  0.1385  0.2325 -0.2471
    3SAPS   H6X  361   1.285   6.311   9.649  0.8165  0.0121  0.6913
    3SAPS   H6Y  362   1.380   6.461   9.682  0.6819 -1.1397  2.8544
    3SAPS   C37  363   1.208   6.487   9.558  0.5805 -0.6166 -0.2912
    3SAPS   H7X  364   1.199   6.596   9.577 -1.3048 -1.1667  2.2132
    3SAPS   H7Y  365   1.114   6.428   9.559 -1.1123  1.9713 -0.9360
    3SAPS   C38  366   1.276   6.460   9.419  0.4285 -0.2547 -0.1537
    3SAPS   H8X  367   1.285   6.350   9.405  2.8314 -0.0769 -0.1350
    3SAPS   H8Y  368   1.376   6.509   9.421 -0.4946  1.7275 -1.4335
    3SAPS   C39  369   1.178   6.509   9.313 -0.2420  0.4175 -0.0092
    3SAPS   H9X  370   1.164   6.619   9.324 -0.0462  0.2880  1.6693
    3SAPS   H9Y  371   1.078   6.463   9.314  0.1326 -0.5244 -2.1760
    3SAPS  C310  372   1.225   6.495   9.173 -0.5335  0.1100 -0.4746
    3SAPS  H10X  373   1.317   6.555   9.156 -0.5470  0.7640  1.7164
    3SAPS  H10Y  374   1.149   6.549   9.113  0.3498  1.1696 -0.6602
    3SAPS  C311  375   1.262   6.351   9.125  0.0495 -0.4085  0.4254
    3SAPS  H11X  376   1.176   6.284   9.143 -0.4686  0.6073  1.8451
    3SAPS  H11Y  377   1.347   6.312   9.186  0.7324  0.1097 -0.1860
    3SAPS  C312  378   1.296   6.345   8.976 -0.2420  0.4965  0.3049
    3SAPS  H12X  379   1.345   6.248   8.952 -0.7803  0.1444  0.6168
    3SAPS  H12Y  380   1.368   6.426   8.953 -0.2848 -0.0608 -1.9583
    3SAPS  C313  381   1.169   6.358   8.889 -0.1761 -0.0820 -0.5580
    3SAPS  H13X  382   1.176   6.462   8.853  2.2046 -0.9055 -2.6219
    3SAPS  H13Y  383   1.080   6.349   8.955 -1.2326  0.2899 -1.9150
    3SAPS  C314  384   1.153   6.237   8.795  0.7216  0.7676  0.2373
    3SAPS  H14X  385   1.164   6.149   8.862  0.0124 -0.1065 -0.7691
    3SAPS  H14Y  386   1.241   6.240   8.727  2.0109 -1.9110  1.6787
    3SAPS  C315  387   1.023   6.242   8.722 -0.5268 -0.1075 -0.6113
    3SAPS  H15X  388   1.021   6.330   8.654 -0.3952  1.1202  0.9677
    3SAPS  H15Y  389   0.938   6.256   8.792  0.0800  0.4837  0.0101
    3SAPS  C316  390   0.988   6.114   8.649 -0.1261  0.4837 -0.3158
    3SAPS  H16X  391   1.015   6.028   8.713 -0.4733  1.3264  0.9741
    3SAPS  H16Y  392   1.048   6.114   8.555 -0.1462 -1.4710 -0.3484
    3SAPS  C317  393   0.834   6.112   8.614 -0.1028  0.2553 -0.0241
    3SAPS  H17X  394   0.790   6.140   8.713 -0.0227 -0.8224  0.3296
    3SAPS  H17Y  395   0.796   6.008   8.605 -1.5693  0.8600 -0.9126
    3SAPS  C318  396   0.803   6.197   8.498 -0.0180 -0.4139 -0.0792
    3SAPS  H18X  397   0.829   6.305   8.510 -2.2655  0.3341 -1.5507
    3SAPS  H18Y  398   0.695   6.207   8.474  0.2167  0.2618 -0.9250
    3SAPS  H18Z  399   0.845   6.153   8.405 -2.1089 -1.2369 -0.6515
    4SAPS     N  400   3.221   0.240  10.550  0.4443 -0.5125  0.6217
    4SAPS   HN1  401   3.140   0.294  10.513  1.1373 -0.1831 -0.4331
    4SAPS   HN2  402   3.299   0.270  10.489 -0.7316 -1.3702 -1.3686
    4SAPS   HN3  403   3.202   0.138  10.540  1.0684 -0.7298  1.5810
    4SAPS   C12  404   3.253   0.289  10.695  0.0760 -0.0051  0.3972
    4SAPS  H12A  405   3.270   0.395  10.685  1.1393  0.0412  2.4278
    4SAPS   C13  406   3.139   0.278  10.804 -0.3394  0.5807 -0.1084
    4SAPS  O13A  407   3.032   0.224  10.766  0.3458 -0.3784 -0.8518
    4SAPS  O13B  408   3.152   0.336  10.917  0.2791 -0.0901  0.2350
    4SAPS   C11  409   3.372   0.207  10.747  0.0641  0.2491  0.2936
    4SAPS  H11A  410   3.357   0.097  10.741  0.6029  0.2234 -0.6216
    4SAPS  H11B  411   3.383   0.232  10.855 -0.4213 -1.2738  0.7084
    4SAPS     P  412   3.598   0.342  10.702 -0.2685 -0.3920 -0.0422
    4SAPS   O13  413   3.603   0.370  10.846  0.6452 -0.1402 -0.0295
    4SAPS   O14  414   3.728   0.313  10.630 -0.2959 -0.4392  0.2549
    4SAPS   O12  415   3.490   0.224  10.679 -0.0499  0.3264 -0.2625
    4SAPS   O11  416   3.517   0.451  10.629  0.4107  0.3525  0.3603
    4SAPS    C1  417   3.565   0.576  10.573  0.6018  0.5316  0.1563
    4SAPS    HA  418   3.548   0.663  10.640 -1.5007  1.0630 -1.0178
    4SAPS    HB  419   3.675   0.568  10.566  0.4748 -1.5387  0.3544
    4SAPS    C2  420   3.517   0.606  10.428 -0.1561  0.1814  0.6029
    4SAPS    HS  421   3.407   0.620  10.438 -0.0847 -0.6982  2.7451
    4SAPS   O21  422   3.557   0.503  10.335  0.6293  0.1931 -0.0519
    4SAPS   C21  423   3.458   0.412  10.312 -0.5545  0.0038 -0.2277
    4SAPS   O22  424   3.363   0.395  10.385 -0.2694 -0.3936  0.1609
    4SAPS   C22  425   3.481   0.344  10.175  0.5537  0.0193  0.0061
    4SAPS   H2R  426   3.468   0.425  10.100 -2.7971 -1.0020 -0.5948
    4SAPS   H2S  427   3.584   0.304  10.164  0.4551  0.6338 -4.0238
    4SAPS    C3  428   3.571   0.744  10.371 -0.8346 -0.3227 -0.5538
    4SAPS    HX  429   3.680   0.735  10.356 -0.6165  0.9184  0.2220
    4SAPS    HY  430   3.563   0.814  10.457 -1.5344  1.2552 -1.8777
    4SAPS   O31  431   3.497   0.801  10.259  0.0255  0.7159  0.3177
    4SAPS   C31  432   3.558   0.866  10.165 -0.2938  0.9869  0.1119
    4SAPS   O32  433   3.672   0.899  10.172 -0.6442 -0.3232  0.1859
    4SAPS   C32  434   3.464   0.882  10.042  0.2565  0.1016 -0.5017
    4SAPS   H2X  435   3.375   0.935  10.083  1.2954  0.2057  1.7052
    4SAPS   H2Y  436   3.449   0.781   9.998  0.1221 -1.0346  2.0345
    4SAPS   C23  437   3.371   0.247  10.140 -0.4429  0.2558 -0.0277
    4SAPS   H3R  438   3.298   0.307  10.081  0.3217  2.8909  1.6146
    4SAPS   H3S  439   3.317   0.206  10.228  0.0476  0.3429  0.3132
    4SAPS   C24  440   3.415   0.132  10.050  0.1851 -0.9050 -0.2406
    4SAPS   H4R  441   3.501   0.164   9.986 -0.8495  1.3075 -0.5642
    4SAPS   H4S  442   3.336   0.109   9.976  1.0359  0.9230 -1.7756
    4SAPS   C25  443   3.450   0.004  10.116  1.0446  1.1454 -1.1867
    4SAPS   H5R  444   3.367  -0.038  10.175  2.2910  2.5693  1.6807
    4SAPS   C26  445   3.546  -0.084  10.080  0.2037 -0.2691 -0.4839
    4SAPS   H6R  446   3.546  -0.183  10.127 -0.8509  0.2395  0.6377
    4SAPS   C27  447   3.660  -0.063   9.983  0.0104 -0.0006 -0.2018
    4SAPS   H7R  448   3.751  -0.033  10.039 -0.5557  1.4877 -0.0350
    4SAPS   H7S  449   3.634   0.022   9.915  0.1969  1.7168  1.8232
    4SAPS   C28  450   3.692  -0.187   9.899  0.5209 -0.5354 -0.8178
    4SAPS   H8R  451   3.785  -0.236   9.933  1.8911  0.3205 -3.2415
    4SAPS   C29  452   3.618  -0.232   9.796 -0.2493  0.0789 -0.8136
    4SAPS   H9R  453   3.656  -0.309   9.727  1.3116  1.1730 -1.2041
    4SAPS  C210  454   3.489  -0.168   9.752  0.4646  0.1170  0.1175
    4SAPS  H10R  455   3.444  -0.118   9.840 -1.2488 -0.1421 -0.5837
    4SAPS  H10S  456   3.419  -0.250   9.727  1.3375 -0.4562 -0.4742
    4SAPS  C211  457   3.528  -0.074   9.646  0.1444  0.3419  0.3438
    4SAPS  H11R  458   3.574   0.015   9.691  0.4947  0.3224  0.0295
    4SAPS  C212  459   3.495  -0.070   9.521 -0.6354  0.5944  0.2298
    4SAPS  H12R  460   3.534   0.011   9.458 -1.4599  0.9591  0.1840
    4SAPS  C213  461   3.404  -0.176   9.458 -0.1775 -0.6103  0.3241
    4SAPS  H13R  462   3.304  -0.138   9.490 -1.0620 -0.9043 -1.9907
    4SAPS  H13S  463   3.433  -0.277   9.493  2.2810 -0.1387 -0.2899
    4SAPS  C214  464   3.413  -0.171   9.307  0.4348 -1.0576  0.0085
    4SAPS  H14R  465   3.514  -0.162   9.264  0.4272  1.3336  0.3768
    4SAPS  C215  466   3.311  -0.157   9.225  0.6350 -0.4627 -0.5924
    4SAPS  H15R  467   3.341  -0.155   9.120  0.3462  0.2291 -0.6664
    4SAPS  C216  468   3.160  -0.155   9.267  0.3685  0.1109  0.2292
    4SAPS  H16R  469   3.126  -0.049   9.267  1.0020  0.3172 -0.9172
    4SAPS  H16S  470   3.146  -0.198   9.369 -2.1393  1.9871  0.7309
    4SAPS  C217  471   3.050  -0.234   9.186 -0.5297  0.0583 -0.0487
    4SAPS  H17R  472   2.955  -0.238   9.243 -0.6285  1.0011 -0.1403
    4SAPS  H17S  473   3.077  -0.341   9.172  0.2807 -0.1597  2.7894
    4SAPS  C218  474   3.012  -0.178   9.044  0.9886  0.1614 -0.4897
    4SAPS  H18R  475   2.966  -0.077   9.051 -1.7121 -1.2560  5.2847
    4SAPS  H18S  476   2.934  -0.243   8.999 -0.8943  0.3460  2.3174
    4SAPS  C219  477   3.127  -0.191   8.946 -0.1160  0.1433  0.1160
    4SAPS  H19R  478   3.182  -0.287   8.957 -1.4778 -0.7788 -1.1306
    4SAPS  H19S  479   3.190  -0.105   8.981 -1.8382  1.0245  1.1263
    4SAPS  C220  480   3.081  -0.168   8.803 -0.3713 -0.3475 -0.2709
    4SAPS  H20R  481   3.024  -0.254   8.762 -2.1659  0.4631  0.4371
    4SAPS  H20S  482   3.156  -0.153   8.723 -0.2326 -1.2707 -0.3174
    4SAPS  H20T  483   3.004  -0.087   8.797 -0.8524 -0.9236 -2.2515
    4SAPS   C33  484   3.530   0.980   9.945 -0.2151  0.2705 -0.1110
    4SAPS   H3X  485   3.618   0.945   9.887  0.3463  2.8621 -0.8569
    4SAPS   H3Y  486   3.547   1.076   9.998 -3.6101 -0.6006  2.7313
    4SAPS   C34  487   3.419   1.027   9.847 -0.8900  0.2738  0.4788
    4SAPS   H4X  488   3.326   1.056   9.900 -1.7046 -1.8986  0.2623
    4SAPS   H4Y  489   3.409   0.947   9.771  1.5784 -0.4392  0.8402
    4SAPS   C35  490   3.459   1.153   9.767 -0.7823 -0.3068 -0.1536
    4SAPS   H5X  491   3.503   1.223   9.841 -4.0585 -0.8163  2.4267
    4SAPS   H5Y  492   3.376   1.205   9.714  0.8659 -0.1807 -2.6782
    4SAPS   C36  493   3.564   1.128   9.667 -0.4661  0.4966  0.9666
    4SAPS   H6X  494   3.648   1.074   9.716  0.4935 -1.7856 -2.9171
    4SAPS   H6Y  495   3.592   1.229   9.630 -1.2220  0.6969  0.9331
    4SAPS   C37  496   3.530   1.042   9.537 -0.0430 -0.8053 -0.0885
    4SAPS   H7X  497   3.463   0.961   9.571  0.7240 -1.5399 -0.3072
    4SAPS   H7Y  498   3.627   1.008   9.495 -1.1127 -0.6932 -2.7095
    4SAPS   C38  499   3.480   1.127   9.426 -0.3626  0.0306  0.6692
    4SAPS   H8X  500   3.525   1.228   9.418  1.2054 -0.6570  0.7227
    4SAPS   H8Y  501   3.372   1.141   9.450 -0.7593 -1.9814  0.1919
    4SAPS   C39  502   3.484   1.064   9.291 -0.3018  0.4082 -0.0258
    4SAPS   H9X  503   3.453   0.957   9.303 -2.6428  0.9001 -1.4294
    4SAPS   H9Y  504   3.585   1.058   9.246 -0.2497  1.2778 -0.0208
    4SAPS  C310  505   3.376   1.113   9.184 -0.1083 -0.2179  0.2622
    4SAPS  H10X  506   3.388   1.223   9.173  0.4448 -0.3942 -0.9853
    4SAPS  H10Y  507   3.273   1.093   9.220  0.6479  1.0730  3.2792
    4SAPS  C311  508   3.391   1.030   9.053  0.1557  0.4679 -0.2191
    4SAPS  H11X  509   3.424   0.930   9.086 -0.4626 -0.3175 -1.9621
    4SAPS  H11Y  510   3.474   1.074   8.994  0.1376  2.3501  1.1038
    4SAPS  C312  511   3.272   1.019   8.956  0.0312 -0.4040  0.3207
    4SAPS  H12X  512   3.245   1.121   8.920  1.1444 -0.2605 -0.1303
    4SAPS  H12Y  513   3.182   0.973   9.002 -0.0844 -0.7931 -0.2856
    4SAPS  C313  514   3.304   0.934   8.828 -0.3580  0.0584  0.2821
    4SAPS  H13X  515   3.208   0.915   8.776 -1.5615 -0.7792  2.7371
    4SAPS  H13Y  516   3.349   0.834   8.846 -2.2168 -0.5721  1.5355
    4SAPS  C314  517   3.399   1.006   8.731  0.2362  0.3351  0.1804
    4SAPS  H14X  518   3.491   1.023   8.791  1.1671 -0.7982 -0.8799
    4SAPS  H14Y  519   3.357   1.102   8.693  0.4160  0.8153  1.2061
    4SAPS  C315  520   3.435   0.928   8.608  0.0277 -0.1743  0.2296
    4SAPS  H15X  521   3.465   0.826   8.639  2.8064  0.7511  0.7391
    4SAPS  H15Y  522   3.518   0.975   8.551 -0.9217  0.5393 -0.5842
    4SAPS  C316  523   3.315   0.912   8.518  0.1569 -0.5748 -0.1984
    4SAPS  H16X  524   3.264   1.011   8.511 -1.4595 -1.3452  0.4560
    4SAPS  H16Y  525   3.249   0.838   8.568  1.0379 -0.3735  1.2843
    4SAPS  C317  526   3.355   0.855   8.384 -0.4453 -0.6319 -0.6772
    4SAPS  H17X  527   3.333   0.746   8.374  0.1688 -0.6362 -2.0548
    4SAPS  H17Y  528   3.465   0.856   8.373 -0.0723 -1.6767  2.5842
    4SAPS  C318  529   3.299   0.939   8.264 -0.5200  0.8378  0.5298
    4SAPS  H18X  530   3.335   1.044   8.275  0.7266  0.0874  4.4155
    4SAPS  H18Y  531   3.188   0.953   8.262 -0.8011 -1.3725 -0.9702
    4SAPS  H18Z  532   3.331   0.910   8.162 -0.0583 -1.5180  1.3222
    5SAPS     N  533   0.730   6.482  11.205  0.1671 -0.0027  0.3588
    5SAPS   HN1  534   0.781   6.564  11.166  2.1308 -0.7818  1.2247
    5SAPS   HN2  535   0.666   6.507  11.283 -0.3177  1.0523 -0.3574
    5SAPS   HN3  536   0.800   6.418  11.247 -0.6499 -0.3665  1.1661
    5SAPS   C12  537   0.638   6.425  11.106  0.6920 -0.2102  0.3671
    5SAPS  H12A  538   0.641   6.317  11.116 -3.1766 -0.2981  1.5690
    5SAPS   C13  539   0.490   6.480  11.119 -0.6577 -1.0133 -0.3600
    5SAPS  O13A  540   0.460   6.556  11.209  0.7613  0.0565  0.1035
    5SAPS  O13B  541   0.403   6.426  11.045  0.4858 -0.1582  0.0372
    5SAPS   C11  542   0.709   6.448  10.969 -0.4372  0.1687  0.5646
    5SAPS  H11A  543   0.650   6.381  10.903  0.5436 -1.7185  1.5550
    5SAPS  H11B  544   0.813   6.408  10.972 -1.0276 -1.3928  0.7935
    5SAPS     P  545   0.817   6.681  10.918  0.0193  0.3381 -0.2245
    5SAPS   O13  546   0.779   6.801  10.845  0.2019  0.0318  0.3010
    5SAPS   O14  547   0.862   6.695  11.060  0.4333  0.6987  0.2485
    5SAPS   O12  548   0.701   6.584  10.916 -0.0357  0.1070 -0.1844
    5SAPS   O11  549   0.935   6.610  10.840  0.5585  0.1215  0.0086
    5SAPS    C1  550   0.909   6.538  10.721  0.0447 -0.7416 -0.5421
    5SAPS    HA  551   0.972   6.446  10.728 -0.7557 -1.4704 -2.7122
    5SAPS    HB  552   0.799   6.526  10.712 -0.3546  0.4954  2.2063
    5SAPS    C2  553   0.952   6.613  10.593 -0.5538  0.0888  0.2473
    5SAPS    HS  554   1.062   6.627  10.596 -0.6794  1.2399 -0.0498
    5SAPS   O21  555   0.878   6.727  10.568  0.1422  0.0106 -0.2868
    5SAPS   C21  556   0.938   6.838  10.598 -0.3839  0.2825  0.3197
    5SAPS   O22  557   1.051   6.856  10.642  0.0179 -0.6237  0.0987
    5SAPS   C22  558   0.846   6.950  10.558 -0.4917 -0.0506  0.1805
    5SAPS   H2R  559   0.760   6.907  10.502  0.0351  1.0677 -1.5335
    5SAPS   H2S  560   0.815   7.007  10.648 -1.6536 -1.3876  0.6369
    5SAPS    C3  561   0.943   6.518  10.475  0.1296  0.1327 -0.5373
    5SAPS    HX  562   0.844   6.467  10.484  1.0948 -2.4888 -3.7697
    5SAPS    HY  563   1.012   6.430  10.475 -2.0189 -1.6072  0.2823
    5SAPS   O31  564   0.967   6.592  10.353 -0.2591  0.3907  0.2636
    5SAPS   C31  565   0.850   6.629  10.283 -0.2501  0.1391 -0.8533
    5SAPS   O32  566   0.741   6.609  10.332  0.5436  0.0451  0.2090
    5SAPS   C32  567   0.880   6.708  10.159  0.6565  0.0634 -0.2574
    5SAPS   H2X  568   0.989   6.704  10.136  0.8527 -0.7018  0.8080
    5SAPS   H2Y  569   0.842   6.811  10.173 -0.6075 -0.0885 -2.2526
    5SAPS   C23  570   0.908   7.049  10.464  0.2617 -0.1952  0.2938
    5SAPS   H3R  571   0.977   7.009  10.388  1.0760 -0.3199  1.0948
    5SAPS   H3S  572   0.965   7.120  10.527 -1.0583  0.5957  0.6362
    5SAPS   C24  573   0.811   7.141  10.386 -0.3428  0.5062 -0.8356
    5SAPS   H4R  574   0.868   7.228  10.349  0.3136 -0.0177 -1.0636
    5SAPS   H4S  575   0.726   7.186  10.441 -0.4091 -0.9547  0.2864
    5SAPS   C25  576   0.746   7.054  10.277 -0.4911  0.5120 -0.6567
    5SAPS   H5R  577   0.738   6.949  10.308  0.4807  0.0355 -1.9608
    5SAPS   C26  578   0.750   7.088  10.146  0.4670  0.5846 -0.2923
    5SAPS   H6R  579   0.687   7.026  10.081 -0.7707  1.7825 -0.2595
    5SAPS   C27  580   0.799   7.204  10.066  0.2704 -0.5963  0.3999
    5SAPS   H7R  581   0.858   7.277  10.126  0.4765  0.5188 -1.1324
    5SAPS   H7S  582   0.711   7.261  10.029 -0.8197 -1.0210  2.2338
    5SAPS   C28  583   0.898   7.154   9.960 -0.1813 -0.2697 -0.7640
    5SAPS   H8R  584   0.974   7.085   9.998  1.1009  1.4884 -0.0983
    5SAPS   C29  585   0.910   7.182   9.831  0.4180  0.0457  0.2361
    5SAPS   H9R  586   0.988   7.127   9.775 -0.4485 -3.0626  1.9367
    5SAPS  C210  587   0.825   7.273   9.744 -0.1633  0.0993 -0.2196
    5SAPS  H10R  588   0.890   7.305   9.660 -1.0678  3.4283  0.2930
    5SAPS  H10S  589   0.809   7.359   9.812  0.5620 -0.4357  0.6383
    5SAPS  C211  590   0.688   7.221   9.685 -0.7528 -0.1425  0.1166
    5SAPS  H11R  591   0.642   7.133   9.731 -0.8975 -1.2065 -2.0063
    5SAPS  C212  592   0.619   7.288   9.591  0.3364  0.5425 -0.1825
    5SAPS  H12R  593   0.526   7.245   9.550  0.9662 -0.3543 -0.6827
    5SAPS  C213  594   0.672   7.412   9.522 -0.1082 -0.4054  0.6084
    5SAPS  H13R  595   0.738   7.378   9.439 -0.2235  1.1026 -0.1144
    5SAPS  H13S  596   0.731   7.475   9.593  0.0638  0.1956 -0.0658
    5SAPS  C214  597   0.566   7.508   9.464 -0.4702  0.4068  0.0834
    5SAPS  H14R  598   0.548   7.584   9.542 -1.2428 -0.9527  1.2411
    5SAPS  C215  599   0.499   7.502   9.347  0.7628 -0.0009  0.1240
    5SAPS  H15R  600   0.429   7.581   9.319  1.2295 -0.6696 -3.0451
    5SAPS  C216  601   0.514   7.393   9.242 -0.3097 -0.5398 -0.1027
    5SAPS  H16R  602   0.436   7.315   9.255 -0.2625 -0.4061  1.0928
    5SAPS  H16S  603   0.615   7.349   9.255 -0.2124  0.0799  1.3877
    5SAPS  C217  604   0.507   7.455   9.100  0.0293  0.8204 -0.1257
    5SAPS  H17R  605   0.550   7.378   9.032 -3.7766  0.2544 -2.0519
    5SAPS  H17S  606   0.571   7.544   9.084  2.0244 -0.4613  0.6052
    5SAPS  C218  607   0.355   7.472   9.061 -0.2896  0.0990  0.1639
    5SAPS  H18R  608   0.297   7.377   9.066 -1.4872  0.8520  1.1926
    5SAPS  H18S  609   0.303   7.516   9.150 -2.7495 -1.9353 -0.2117
    5SAPS  C219  610   0.337   7.548   8.930  0.0897  0.2296  0.4104
    5SAPS  H19R  611   0.227   7.564   8.918 -0.1125 -1.5210 -0.2569
    5SAPS  H19S  612   0.382   7.478   8.857  3.2466  2.7274 -0.1305
    5SAPS  C220  613   0.402   7.684   8.920 -0.2969  0.0028 -0.1763
    5SAPS  H20R  614   0.349   7.753   8.852  1.3140 -0.2960 -1.7769
    5SAPS  H20S  615   0.507   7.668   8.886 -0.1036 -0.7117  0.7326
    5SAPS  H20T  616   0.405   7.733   9.019 -3.3626  0.4369 -0.2589
    5SAPS   C33  617   0.812   6.648  10.039  0.0211  0.1097  0.0282
    5SAPS   H3X  618   0.711   6.623  10.076  0.7892 -0.4733  1.8090
    5SAPS   H3Y  619   0.856   6.551  10.008 -2.3348 -1.2940  1.0131
    5SAPS   C34  620   0.817   6.748   9.924  0.0474  0.1395  0.4504
    5SAPS   H4X  621   0.924   6.777   9.913  0.0312  1.1114  2.6644
    5SAPS   H4Y  622   0.756   6.835   9.956 -1.3139 -1.0995  1.2733
    5SAPS   C35  623   0.758   6.699   9.786  0.4377  0.7384  0.0769
    5SAPS   H5X  624   0.654   6.660   9.789  0.8985 -0.6978 -1.7180
    5SAPS   H5Y  625   0.826   6.615   9.757 -2.4276 -1.5820 -0.1872
    5SAPS   C36  626   0.757   6.813   9.691  0.6313  0.4443 -0.4606
    5SAPS   H6X  627   0.865   6.837   9.681  1.1698 -0.4940  2.6150
    5SAPS   H6Y  628   0.714   6.907   9.731 -1.5527 -0.5587 -0.3552
    5SAPS   C37  629   0.704   6.776   9.547 -0.3299  0.6586  0.7803
    5SAPS   H7X  630   0.607   6.721   9.545 -0.9636  1.7956 -0.2206
    5SAPS   H7Y  631   0.775   6.700   9.507 -0.5095  0.8097  0.1690
    5SAPS   C38  632   0.699   6.894   9.444 -0.2114 -0.2017 -0.0331
    5SAPS   H8X  633   0.643   6.972   9.501  0.0470  1.4625 -2.0155
    5SAPS   H8Y  634   0.648   6.863   9.350  1.9011 -1.7304 -0.7103
    5SAPS   C39  635   0.836   6.941   9.402  0.5098  0.0507  0.0417
    5SAPS   H9X  636   0.880   6.862   9.337  2.3790  0.4850  0.7265
    5SAPS   H9Y  637   0.897   6.959   9.493 -0.0997 -2.1355  0.9264
    5SAPS  C310  638   0.829   7.069   9.323  0.1780  0.0431 -0.9639
    5SAPS  H10X  639   0.782   7.149   9.383 -0.5568 -1.2942  0.2719
    5SAPS  H10Y  640   0.765   7.049   9.234  0.3605  2.9846 -1.8153
    5SAPS  C311  641   0.970   7.111   9.275  0.9038 -0.3282  0.9249
    5SAPS  H11X  642   1.019   7.034   9.212  0.9386 -1.3656  2.2066
    5SAPS  H11Y  643   1.028   7.122   9.369  2.0118 -0.9649  0.3188
    5SAPS  C312  644   0.966   7.254   9.200  0.4605  0.3997 -0.1819
    5SAPS  H12X  645   0.862   7.276   9.170  0.6727  1.5427 -0.0893
    5SAPS  H12Y  646   1.019   7.253   9.102  2.2320 -1.6513  0.7607
    5SAPS  C313  647   1.035   7.370   9.273 -0.3353 -0.0908  0.7729
    5SAPS  H13X  648   1.136   7.367   9.226 -0.7017 -2.9833  0.0474
    5SAPS  H13Y  649   1.043   7.354   9.383  1.5604 -2.8312  0.2898
    5SAPS  C314  650   0.957   7.499   9.237  0.0779 -0.6905  0.2405
    5SAPS  H14X  651   0.997   7.576   9.307  0.5593 -1.6089  0.9873
    5SAPS  H14Y  652   0.849   7.504   9.265 -0.4366 -1.8319 -1.4753
    5SAPS  C315  653   0.982   7.545   9.094 -0.4317  0.0504  0.3103
    5SAPS  H15X  654   0.905   7.494   9.031  0.7730 -1.0956 -0.2632
    5SAPS  H15Y  655   1.081   7.509   9.060  0.0678  0.1200  1.6845
    5SAPS  C316  656   0.969   7.694   9.080 -0.4584  0.0224  0.2092
    5SAPS  H16X  657   1.065   7.725   9.127 -0.4882 -0.5107  0.6343
    5SAPS  H16Y  658   0.883   7.736   9.135 -0.8144 -1.1781  0.5926
    5SAPS  C317  659   0.968   7.735   8.932 -1.1134 -0.9063  0.5111
    5SAPS  H17X  660   1.021   7.657   8.873  0.3638  0.7324 -0.3629
    5SAPS  H17Y  661   1.023   7.829   8.913 -1.6562 -0.8851 -1.0268
    5SAPS  C318  662   0.826   7.758   8.875 -0.3116  0.1877 -0.7180
    5SAPS  H18X  663   0.749   7.688   8.912 -0.2849  0.8411  0.6074
    5SAPS  H18Y  664   0.826   7.767   8.764 -0.5778 -0.2975 -0.7565
    5SAPS  H18Z  665   0.796   7.855   8.919  3.4280  0.5323  1.2675
    6SAPS     N  666   0.074   6.221  10.786 -0.1643  0.4417 -0.6221
    6SAPS   HN1  667   0.166   6.261  10.758  0.0461 -1.2728 -2.4263
    6SAPS   HN2  668   0.024   6.184  10.703 -0.4033 -4.5023  1.5666
    6SAPS   HN3  669   0.016   6.295  10.830  0.7282  1.1271 -0.5727
    6SAPS   C12  670   0.077   6.113  10.882  0.1175  0.3084 -0.4286
    6SAPS  H12A  671   0.176   6.103  10.923 -0.6697  0.1983  1.5281
    6SAPS   C13  672  -0.012   6.113  11.007 -0.1629  0.1780 -0.0792
    6SAPS  O13A  673  -0.079   6.218  11.029  0.0691  0.0494  0.9226
    6SAPS  O13B  674  -0.008   6.016  11.086  0.2379 -0.7808  0.1149
    6SAPS   C11  675   0.035   5.989  10.795 -0.0856  0.7900 -0.0463
    6SAPS  H11A  676   0.047   5.891  10.847 -0.8070  0.4395 -0.5333
    6SAPS  H11B  677   0.103   5.984  10.707 -0.9457 -2.4309 -0.5773
    6SAPS     P  678  -0.173   5.894  10.660  0.8242 -0.3510 -0.4257
    6SAPS   O13  679  -0.151   5.754  10.713  0.0504 -0.2457 -0.0321
    6SAPS   O14  680  -0.310   5.929  10.632  0.5016 -0.1014  0.4160
    6SAPS   O12  681  -0.100   6.002  10.749 -0.3069  0.4867  0.2486
    6SAPS   O11  682  -0.098   5.914  10.527 -0.3411 -0.1233 -0.8614
    6SAPS    C1  683   0.013   5.837  10.472  0.2727 -0.3185 -0.6024
    6SAPS    HA  684   0.099   5.906  10.461  0.4705 -0.1963  1.5166
    6SAPS    HB  685   0.045   5.756  10.540  1.7189  2.0590  1.6407
    6SAPS    C2  686  -0.024   5.770  10.336  0.3124  0.2477 -0.1938
    6SAPS    HS  687   0.056   5.701  10.302  0.4177 -0.1155  0.7712
    6SAPS   O21  688  -0.038   5.870  10.235 -0.6382 -0.9849  0.4043
    6SAPS   C21  689   0.069   5.938  10.193 -0.8223 -0.1266 -0.3685
    6SAPS   O22  690   0.184   5.930  10.237 -0.3751 -0.2442 -0.4011
    6SAPS   C22  691   0.036   6.026  10.064  0.0352  0.5106 -0.8437
    6SAPS   H2R  692   0.026   5.953   9.980 -2.4721  0.3149 -0.4166
    6SAPS   H2S  693  -0.059   6.081  10.078 -0.4687 -0.2542 -1.1982
    6SAPS    C3  694  -0.159   5.695  10.360 -0.2708  0.1533  0.5557
    6SAPS    HX  695  -0.233   5.776  10.375 -0.7889 -0.2151  0.0141
    6SAPS    HY  696  -0.152   5.632  10.451 -0.7944  1.1769  1.3064
    6SAPS   O31  697  -0.189   5.608  10.250  0.0973 -0.1603 -0.0522
    6SAPS   C31  698  -0.296   5.533  10.265 -0.0554  0.2036 -0.2098
    6SAPS   O32  699  -0.381   5.547  10.354 -0.2803 -0.5792 -0.1800
    6SAPS   C32  700  -0.308   5.436  10.145 -0.4801 -0.3556 -0.5469
    6SAPS   H2X  701  -0.234   5.354  10.151  0.2455  0.2535 -1.0242
    6SAPS   H2Y  702  -0.291   5.490  10.049 -0.3442 -0.3757 -0.5343
    6SAPS   C23  703   0.142   6.124  10.010 -0.1704 -0.1335 -0.0450
    6SAPS   H3R  704   0.214   6.055   9.962  1.0612  0.4241  0.9537
    6SAPS   H3S  705   0.193   6.174  10.096  2.7308 -0.5357 -1.4739
    6SAPS   C24  706   0.093   6.229   9.915 -0.3571 -0.5977  0.3967
    6SAPS   H4R  707   0.005   6.278   9.963 -1.2948 -0.3849 -1.5109
    6SAPS   H4S  708   0.049   6.170   9.833 -0.0979 -0.1460 -0.0716
    6SAPS   C25  709   0.189   6.338   9.874  0.3004  0.0138 -0.1883
    6SAPS   H5R  710   0.228   6.402   9.954  0.5859  1.1378 -1.2127
    6SAPS   C26  711   0.245   6.346   9.753  0.1284 -0.2700 -0.7351
    6SAPS   H6R  712   0.297   6.440   9.727 -2.7941  1.4535 -0.5018
    6SAPS   C27  713   0.213   6.257   9.639 -0.2376  0.1906 -0.2682
    6SAPS   H7R  714   0.118   6.290   9.591 -0.4664 -0.7384 -0.4770
    6SAPS   H7S  715   0.171   6.157   9.664  0.3074 -0.7378 -2.9026
    6SAPS   C28  716   0.320   6.234   9.533 -0.1513 -0.0437  0.3065
    6SAPS   H8R  717   0.367   6.135   9.530 -0.1285 -0.0188 -4.0463
    6SAPS   C29  718   0.366   6.321   9.442 -0.2309 -0.3326 -0.4320
    6SAPS   H9R  719   0.443   6.296   9.367 -0.5599  0.2912 -0.9796
    6SAPS  C210  720   0.317   6.461   9.426  0.5104 -0.1973 -0.0807
    6SAPS  H10R  721   0.407   6.526   9.424  2.0368 -2.2736 -0.3633
    6SAPS  H10S  722   0.253   6.503   9.507 -0.8692 -0.2880 -1.0932
    6SAPS  C211  723   0.239   6.490   9.300 -0.2346 -0.0640 -0.3415
    6SAPS  H11R  724   0.135   6.455   9.305 -0.3896  0.5439  0.7442
    6SAPS  C212  725   0.283   6.543   9.182  0.8848  0.1820  0.5297
    6SAPS  H12R  726   0.207   6.565   9.105  1.3996 -0.0331 -0.0513
    6SAPS  C213  727   0.422   6.590   9.155 -0.0996  0.2409 -0.8932
    6SAPS  H13R  728   0.491   6.519   9.205  0.2631  0.5856 -0.8964
    6SAPS  H13S  729   0.436   6.681   9.218 -0.8485 -0.1231 -0.1964
    6SAPS  C214  730   0.455   6.639   9.012 -0.1168 -0.7479  0.8159
    6SAPS  H14R  731   0.378   6.649   8.935  1.4491  0.7871 -0.5833
    6SAPS  C215  732   0.582   6.668   8.975  0.9809 -0.0882 -0.3587
    6SAPS  H15R  733   0.601   6.705   8.873 -0.3005  1.3585 -0.0909
    6SAPS  C216  734   0.709   6.659   9.054 -0.5500 -0.0742  0.3982
    6SAPS  H16R  735   0.695   6.615   9.155  1.1649 -1.7872 -0.0611
    6SAPS  H16S  736   0.732   6.767   9.068  4.0471 -0.5754 -2.2809
    6SAPS  C217  737   0.831   6.585   8.987 -0.7327  0.7392  0.0094
    6SAPS  H17R  738   0.818   6.476   8.971  0.5468  0.2769  1.9949
    6SAPS  H17S  739   0.918   6.596   9.055 -0.2218 -0.8869 -0.3569
    6SAPS  C218  740   0.898   6.653   8.862 -0.6724  0.7276  0.8412
    6SAPS  H18R  741   0.838   6.622   8.774  0.6320 -1.4219  0.6848
    6SAPS  H18S  742   1.000   6.611   8.857 -1.1602 -0.5306  1.2216
    6SAPS  C219  743   0.887   6.803   8.868  0.1619  0.6493 -0.3946
    6SAPS  H19R  744   0.925   6.825   8.970 -1.5446  1.1497  0.1512
    6SAPS  H19S  745   0.780   6.825   8.846  0.9043  0.4845 -4.5284
    6SAPS  C220  746   0.970   6.867   8.759 -0.3379 -0.5650 -0.7403
    6SAPS  H20R  747   0.931   6.828   8.662  0.6013  1.5842 -2.0301
    6SAPS  H20S  748   1.077   6.849   8.783 -0.3065  1.6352  0.8221
    6SAPS  H20T  749   0.956   6.977   8.754 -1.9955 -0.7279  0.0160
    6SAPS   C33  750  -0.445   5.369  10.134 -0.0294 -0.3719 -0.2147
    6SAPS   H3X  751  -0.522   5.449  10.131 -1.2046 -1.3213  2.5993
    6SAPS   H3Y  752  -0.473   5.322  10.231  0.6176 -0.5798 -0.1261
    6SAPS   C34  753  -0.461   5.268  10.018 -0.1796  0.0908  0.3165
    6SAPS   H4X  754  -0.567   5.235  10.010  0.4731 -1.9121 -0.4040
    6SAPS   H4Y  755  -0.402   5.176  10.035  1.0544  0.9561  0.8197
    6SAPS   C35  756  -0.430   5.321   9.874 -0.2471 -0.5179  0.5558
    6SAPS   H5X  757  -0.419   5.431   9.871 -1.9461 -0.2211  3.2166
    6SAPS   H5Y  758  -0.523   5.306   9.815  0.8351 -1.0551 -1.0468
    6SAPS   C36  759  -0.315   5.246   9.796 -0.1916  0.1372  1.1938
    6SAPS   H6X  760  -0.330   5.135   9.798  2.8716 -0.3525 -0.4424
    6SAPS   H6Y  761  -0.216   5.267   9.840  0.6082  0.0817 -0.5213
    6SAPS   C37  762  -0.304   5.293   9.657 -0.2831  0.4605  0.8566
    6SAPS   H7X  763  -0.287   5.403   9.654  1.8368  0.1337 -0.2816
    6SAPS   H7Y  764  -0.396   5.265   9.601  0.6076  2.5916 -1.7905
    6SAPS   C38  765  -0.185   5.238   9.582 -0.2876  0.1766 -0.4175
    6SAPS   H8X  766  -0.179   5.132   9.613  0.4320  0.4472  0.4163
    6SAPS   H8Y  767  -0.088   5.282   9.615 -0.1435 -0.3715 -0.0963
    6SAPS   C39  768  -0.199   5.236   9.433 -0.3189 -0.0639  0.8166
    6SAPS   H9X  769  -0.194   5.336   9.385  4.0809 -0.6287 -0.1339
    6SAPS   H9Y  770  -0.303   5.204   9.410 -0.4550  0.8443  0.1372
    6SAPS  C310  771  -0.097   5.139   9.371  0.1638 -0.1573  0.7899
    6SAPS  H10X  772  -0.079   5.052   9.438  0.4168 -0.7459 -0.0277
    6SAPS  H10Y  773  -0.007   5.204   9.365 -1.4746  2.1367  0.9266
    6SAPS  C311  774  -0.128   5.104   9.214  0.4276  0.6576  0.3121
    6SAPS  H11X  775  -0.238   5.091   9.207  0.1945  1.1664  2.6160
    6SAPS  H11Y  776  -0.079   5.007   9.194 -0.9853 -0.1355  0.6165
    6SAPS  C312  777  -0.084   5.218   9.119 -0.7144 -1.2704 -0.1049
    6SAPS  H12X  778   0.026   5.206   9.106 -0.4508  1.3240 -0.5181
    6SAPS  H12Y  779  -0.116   5.316   9.163 -2.0659 -0.8421 -1.9647
    6SAPS  C313  780  -0.130   5.195   8.973  0.3521  0.3153 -0.3629
    6SAPS  H13X  781  -0.241   5.189   8.978  0.2737 -2.7149 -3.6435
    6SAPS  H13Y  782  -0.089   5.099   8.935 -2.6626 -1.2963  0.2101
    6SAPS  C314  783  -0.092   5.310   8.878 -0.2684  0.1596  0.4152
    6SAPS  H14X  784   0.019   5.314   8.881 -0.0404 -1.6300 -3.1396
    6SAPS  H14Y  785  -0.132   5.404   8.922 -0.0387  0.1059  0.7404
    6SAPS  C315  786  -0.151   5.291   8.737  0.0844  0.1195  0.2094
    6SAPS  H15X  787  -0.161   5.386   8.680 -1.0550 -0.2378 -0.1996
    6SAPS  H15Y  788  -0.255   5.257   8.756  0.0943  0.4772  0.9434
    6SAPS  C316  789  -0.073   5.187   8.656  0.0817 -0.1111 -0.5833
    6SAPS  H16X  790  -0.131   5.150   8.569 -0.5585 -1.4162  0.3851
    6SAPS  H16Y  791  -0.054   5.103   8.726  0.6409  0.9638  0.5834
    6SAPS  C317  792   0.069   5.227   8.616 -0.2981  0.3221 -0.5124
    6SAPS  H17X  793   0.136   5.232   8.705 -0.3872  1.1904 -0.4857
    6SAPS  H17Y  794   0.058   5.331   8.576  1.2667  0.0567 -1.6940
    6SAPS  C318  795   0.117   5.134   8.500 -0.0328  0.0461 -0.2271
    6SAPS  H18X  796   0.224   5.141   8.474 -0.1997 -1.2552 -1.2942
    6SAPS  H18Y  797   0.072   5.167   8.404 -1.1239  1.8910  0.8812
    6SAPS  H18Z  798   0.102   5.032   8.542  0.0864  0.6152  1.2262
    7SAPS     N  799   2.772   0.168  10.691  0.6315  0.6095 -0.5446
    7SAPS   HN1  800   2.767   0.107  10.607  0.7037 -0.7097  0.3887
    7SAPS   HN2  801   2.738   0.263  10.667  1.4754  0.8493 -0.8276
    7SAPS   HN3  802   2.864   0.178  10.738 -0.9365  1.9395  2.3279
    7SAPS   C12  803   2.671   0.108  10.789 -0.3667 -0.3962  0.1740
    7SAPS  H12A  804   2.602   0.049  10.730  0.6757 -1.0407 -0.4130
    7SAPS   C13  805   2.714   0.006  10.895  0.0444 -0.4085  0.3618
    7SAPS  O13A  806   2.839   0.004  10.929  0.9980  0.7576  0.0478
    7SAPS  O13B  807   2.627  -0.057  10.964 -0.0932  0.1086 -0.2192
    7SAPS   C11  808   2.602   0.226  10.865  0.5652  0.3751 -0.2643
    7SAPS  H11A  809   2.680   0.267  10.932  1.4468  0.6555 -1.4524
    7SAPS  H11B  810   2.512   0.200  10.925 -0.3421 -1.3480 -2.3298
    7SAPS     P  811   2.470   0.439  10.817  0.0207 -0.6163  0.0565
    7SAPS   O13  812   2.467   0.465  10.959 -0.2459 -0.3074 -0.4474
    7SAPS   O14  813   2.484   0.560  10.732  0.1136 -0.2841 -0.2496
    7SAPS   O12  814   2.577   0.331  10.779  0.9298 -0.0003  0.2680
    7SAPS   O11  815   2.333   0.372  10.774 -0.4239  0.7613 -0.2134
    7SAPS    C1  816   2.325   0.280  10.666  0.7608  0.1628 -0.1522
    7SAPS    HA  817   2.405   0.203  10.658 -0.0534 -0.6468 -0.5756
    7SAPS    HB  818   2.226   0.234  10.685 -0.1808  0.9531 -2.9359
    7SAPS    C2  819   2.332   0.358  10.531 -0.0384 -0.2465  0.3759
    7SAPS    HS  820   2.413   0.433  10.541 -1.4953  1.4926 -0.5042
    7SAPS   O21  821   2.211   0.440  10.514 -0.2508  0.1695  0.2099
    7SAPS   C21  822   2.235   0.556  10.444 -0.1968  0.1806 -0.3917
    7SAPS   O22  823   2.343   0.600  10.415  0.2150 -0.7730 -0.4819
    7SAPS   C22  824   2.103   0.624  10.404  0.3641 -0.3187 -0.3966
    7SAPS   H2R  825   2.015   0.572  10.446  1.1317 -2.8289 -1.7779
    7SAPS   H2S  826   2.114   0.724  10.452  2.1440 -1.0027  0.6843
    7SAPS    C3  827   2.350   0.261  10.412 -0.8730  0.1745 -0.3921
    7SAPS    HX  828   2.257   0.201  10.415 -0.7403 -0.0232 -0.1459
    7SAPS    HY  829   2.443   0.201  10.420  0.5267  2.1871 -1.0749
    7SAPS   O31  830   2.360   0.335  10.288  0.0828 -0.3757 -0.0903
    7SAPS   C31  831   2.487   0.383  10.261  0.4716 -0.2142  0.1229
    7SAPS   O32  832   2.576   0.374  10.340  0.1871 -0.3101  0.3268
    7SAPS   C32  833   2.495   0.434  10.121  0.1728  0.7389  0.6224
    7SAPS   H2X  834   2.423   0.518  10.111 -0.1088  0.4386  0.1088
    7SAPS   H2Y  835   2.466   0.359  10.045  0.4608 -0.0651  1.2989
    7SAPS   C23  836   2.097   0.650  10.246  0.5971 -0.5519 -0.0989
    7SAPS   H3R  837   2.194   0.685  10.206 -0.4369  2.0529 -0.4471
    7SAPS   H3S  838   2.042   0.746  10.235  0.8054 -0.3493  0.6202
    7SAPS   C24  839   2.014   0.538  10.175 -0.3005  0.1939  0.5525
    7SAPS   H4R  840   1.914   0.542  10.224 -1.3176 -2.1300 -1.2268
    7SAPS   H4S  841   2.066   0.441  10.191 -1.4793 -0.5319  0.0716
    7SAPS   C25  842   2.004   0.565  10.027  0.6828 -1.0621  0.9018
    7SAPS   H5R  843   1.921   0.633  10.001  1.1318 -1.1498 -0.7955
    7SAPS   C26  844   2.084   0.518   9.931  0.5629 -0.2508 -0.2063
    7SAPS   H6R  845   2.062   0.545   9.827 -0.6227  0.4924  0.2282
    7SAPS   C27  846   2.201   0.432   9.942  0.1070  0.2093  0.0555
    7SAPS   H7R  847   2.217   0.389  10.043  1.0523  1.3117  0.3845
    7SAPS   H7S  848   2.294   0.488   9.921  0.2192 -0.9170 -2.7125
    7SAPS   C28  849   2.174   0.311   9.858 -0.7301 -0.0401  0.1842
    7SAPS   H8R  850   2.121   0.231   9.912 -0.0634 -1.2831 -0.9587
    7SAPS   C29  851   2.215   0.296   9.735  0.2348  0.1021 -0.2204
    7SAPS   H9R  852   2.188   0.203   9.683  1.2708  0.6187 -1.7392
    7SAPS  C210  853   2.289   0.382   9.641  0.8113 -0.6653  0.8001
    7SAPS  H10R  854   2.372   0.318   9.603  1.0376 -0.6511  1.2699
    7SAPS  H10S  855   2.336   0.455   9.709  2.0933 -0.0301 -0.7542
    7SAPS  C211  856   2.209   0.455   9.542  0.0072 -0.9850 -0.1134
    7SAPS  H11R  857   2.115   0.496   9.582  1.4486  0.3665  1.9858
    7SAPS  C212  858   2.241   0.468   9.415 -0.3430 -0.2295  0.4828
    7SAPS  H12R  859   2.172   0.535   9.360  0.4979  2.2104  2.3300
    7SAPS  C213  860   2.356   0.419   9.339 -0.1032  0.1436 -0.0144
    7SAPS  H13R  861   2.440   0.470   9.391 -0.1782  0.8186 -0.5347
    7SAPS  H13S  862   2.362   0.467   9.239 -1.5298  2.0337  0.7663
    7SAPS  C214  863   2.380   0.270   9.334  0.2248  0.1088 -0.0607
    7SAPS  H14R  864   2.477   0.248   9.380  1.1217  1.5619 -1.2121
    7SAPS  C215  865   2.297   0.180   9.284  0.3890  0.1956  0.5517
    7SAPS  H15R  866   2.326   0.075   9.299  0.2654  0.0663 -0.1041
    7SAPS  C216  867   2.166   0.209   9.219 -0.8170  0.2829  0.2582
    7SAPS  H16R  868   2.177   0.299   9.155  1.8849 -0.9975 -1.1552
    7SAPS  H16S  869   2.095   0.233   9.301  0.2519 -0.0939  1.3229
    7SAPS  C217  870   2.106   0.113   9.116 -0.5793  0.8190 -0.3985
    7SAPS  H17R  871   2.108   0.015   9.167 -2.1588  1.3970  0.8222
    7SAPS  H17S  872   2.164   0.110   9.021 -2.1677  0.2134 -1.3625
    7SAPS  C218  873   1.957   0.149   9.093  0.0775  0.4986 -0.4788
    7SAPS  H18R  874   1.913   0.174   9.192 -1.6358 -0.0778 -1.0771
    7SAPS  H18S  875   1.896   0.059   9.069  1.4957 -0.6805  0.3058
    7SAPS  C219  876   1.926   0.269   8.998 -0.1119 -0.1724  0.3331
    7SAPS  H19R  877   1.943   0.233   8.894 -0.7269 -2.6828  1.0645
    7SAPS  H19S  878   1.988   0.361   9.008 -1.4244  0.6352  1.2479
    7SAPS  C220  879   1.773   0.307   9.003  0.3465  0.0557  0.0641
    7SAPS  H20R  880   1.746   0.410   8.971  0.8362  0.9613  2.4814
    7SAPS  H20S  881   1.744   0.305   9.110  1.4282  0.2574  0.3701
    7SAPS  H20T  882   1.716   0.227   8.950  0.5520  0.6316 -1.0560
    7SAPS   C33  883   2.643   0.483  10.085 -0.4644  0.3392 -0.1756
    7SAPS   H3X  884   2.720   0.405  10.070 -0.4021  0.3836 -0.0848
    7SAPS   H3Y  885   2.681   0.537  10.174  1.0373 -1.2709  0.1869
    7SAPS   C34  886   2.631   0.558   9.959  0.7535 -0.0558 -0.2944
    7SAPS   H4X  887   2.710   0.635   9.968  1.0869 -0.3087 -1.0461
    7SAPS   H4Y  888   2.538   0.619   9.952  0.5857 -0.2038  0.5579
    7SAPS   C35  889   2.650   0.471   9.837  0.6488 -0.0470  0.1989
    7SAPS   H5X  890   2.574   0.390   9.836 -0.5149  0.9542  2.5777
    7SAPS   H5Y  891   2.746   0.418   9.853 -0.5078 -2.1689  0.3449
    7SAPS   C36  892   2.648   0.547   9.708  0.5929 -0.1395 -0.7064
    7SAPS   H6X  893   2.706   0.638   9.735  0.7609 -0.5159  0.2306
    7SAPS   H6Y  894   2.548   0.583   9.676  0.4607 -0.2476 -0.4176
    7SAPS   C37  895   2.699   0.465   9.592  0.2443 -0.5239  0.3988
    7SAPS   H7X  896   2.619   0.394   9.563  0.7526  0.0950 -2.6708
    7SAPS   H7Y  897   2.790   0.403   9.610 -0.1864 -1.8064 -1.6623
    7SAPS   C38  898   2.719   0.546   9.461 -0.2387  0.1365  0.7622
    7SAPS   H8X  899   2.799   0.621   9.477 -0.7175  0.3867  1.9822
    7SAPS   H8Y  900   2.622   0.592   9.433 -1.5306 -1.2466  2.9153
    7SAPS   C39  901   2.744   0.459   9.343  0.1806 -0.2853  0.0290
    7SAPS   H9X  902   2.694   0.360   9.334  0.4566 -0.3175 -1.1835
    7SAPS   H9Y  903   2.852   0.437   9.334  0.1768  0.0705 -0.9839
    7SAPS  C310  904   2.724   0.520   9.204  0.2196  0.3118 -1.2391
    7SAPS  H10X  905   2.802   0.596   9.182  0.2166  0.2189 -1.5717
    7SAPS  H10Y  906   2.630   0.578   9.216 -0.3495 -0.5166 -1.6145
    7SAPS  C311  907   2.734   0.412   9.097 -0.3921 -0.2255 -0.2116
    7SAPS  H11X  908   2.726   0.460   8.997  0.8871  0.6470  0.0904
    7SAPS  H11Y  909   2.643   0.349   9.103 -2.1941  2.3475  0.1516
    7SAPS  C312  910   2.862   0.332   9.098  0.5606 -0.6708 -0.1107
    7SAPS  H12X  911   2.854   0.249   9.171  1.0862 -0.7359 -0.1258
    7SAPS  H12Y  912   2.954   0.392   9.115  0.0950  0.8623 -2.6702
    7SAPS  C313  913   2.890   0.259   8.968  0.1322  0.1585  1.3335
    7SAPS  H13X  914   2.792   0.232   8.923  1.0501  0.5005 -0.9320
    7SAPS  H13Y  915   2.946   0.164   8.980 -1.6403 -0.9634  0.7765
    7SAPS  C314  916   2.969   0.351   8.873  0.8026  0.2306 -0.3152
    7SAPS  H14X  917   3.046   0.412   8.924  3.2314 -1.0632 -2.3002
    7SAPS  H14Y  918   2.896   0.420   8.824 -1.0734 -0.6544  1.1701
    7SAPS  C315  919   3.037   0.276   8.760 -0.2887  0.2569 -0.2893
    7SAPS  H15X  920   2.963   0.201   8.722 -0.6071 -0.0013  0.8233
    7SAPS  H15Y  921   3.118   0.214   8.804  1.3758  2.3024 -0.4086
    7SAPS  C316  922   3.092   0.364   8.652 -0.2307  0.5360 -0.4085
    7SAPS  H16X  923   3.019   0.432   8.604 -0.5637  1.0681  0.8257
    7SAPS  H16Y  924   3.144   0.305   8.574 -2.5623 -1.9144 -0.1504
    7SAPS  C317  925   3.197   0.459   8.702  0.1137  0.2991 -0.5408
    7SAPS  H17X  926   3.260   0.404   8.775 -0.3442 -0.9376 -1.0611
    7SAPS  H17Y  927   3.143   0.538   8.758  0.6094  0.9246 -0.9335
    7SAPS  C318  928   3.281   0.532   8.593 -0.1806  0.3363 -0.4377
    7SAPS  H18X  929   3.311   0.454   8.519 -0.3944 -1.2313  1.1033
    7SAPS  H18Y  930   3.364   0.593   8.635  0.4653  0.6073 -2.0823
    7SAPS  H18Z  931   3.203   0.592   8.542 -0.9273 -0.7061 -0.5221
    8SAPS     N  932   6.300   1.274  11.028  0.5838  0.1379  0.0562
    8SAPS   HN1  933   6.386   1.250  10.976  0.0953 -1.6838  0.0327
    8SAPS   HN2  934   6.216   1.268  10.967  2.8963 -1.4914 -3.0627
    8SAPS   HN3  935   6.286   1.368  11.069 -0.1057  1.0573 -2.2228
    8SAPS   C12  936   6.289   1.164  11.136  0.4615 -0.0534 -0.5698
    8SAPS  H12A  937   6.335   1.202  11.226  0.0533  0.7010 -0.6752
    8SAPS   C13  938   6.143   1.136  11.172 -0.0642 -0.7508 -0.1399
    8SAPS  O13A  939   6.045   1.204  11.126  0.2142 -0.7027  0.5253
    8SAPS  O13B  940   6.117   1.045  11.257  0.2015 -0.2884 -0.4220
    8SAPS   C11  941   6.359   1.027  11.097  0.2021  0.1883 -0.0195
    8SAPS  H11A  942   6.337   0.958  11.182  0.7069  0.1598  0.0888
    8SAPS  H11B  943   6.468   1.046  11.085  0.5203 -1.9330 -0.6737
    8SAPS     P  944   6.227   0.828  10.973 -0.0730 -0.1418  0.0498
    8SAPS   O13  945   6.251   0.744  11.096  0.2282  0.3603  0.1617
    8SAPS   O14  946   6.085   0.845  10.927 -0.2786 -0.2753  0.6487
    8SAPS   O12  947   6.302   0.974  10.976  0.5406 -0.2964  0.1880
    8SAPS   O11  948   6.305   0.761  10.859  0.6736  0.2207  0.0428
    8SAPS    C1  949   6.449   0.796  10.843 -0.2632 -0.6145  0.1822
    8SAPS    HA  950   6.506   0.823  10.934 -0.8565 -1.2057  0.7287
    8SAPS    HB  951   6.505   0.704  10.815 -1.3590 -1.7126  1.5515
    8SAPS    C2  952   6.478   0.917  10.740 -0.3017  0.0801  0.2041
    8SAPS    HS  953   6.440   1.011  10.786 -0.2180  0.2315 -0.0344
    8SAPS   O21  954   6.418   0.882  10.615  0.5595  0.3011  0.2611
    8SAPS   C21  955   6.371   0.980  10.540 -0.2248 -0.4383 -0.2956
    8SAPS   O22  956   6.355   1.094  10.573 -0.1002  0.0979  0.3282
    8SAPS   C22  957   6.357   0.930  10.398  0.2443  0.2278 -0.4027
    8SAPS   H2R  958   6.443   0.977  10.345  1.0291 -0.9990 -0.2209
    8SAPS   H2S  959   6.369   0.820  10.391 -0.9951 -0.0361  1.3120
    8SAPS    C3  960   6.629   0.942  10.723  0.2389  0.1896  0.2326
    8SAPS    HX  961   6.681   0.844  10.723 -2.7483 -1.4502  0.3690
    8SAPS    HY  962   6.673   1.003  10.805 -0.6323 -1.2283  1.7644
    8SAPS   O31  963   6.668   0.997  10.594 -0.1881 -0.2699  0.4565
    8SAPS   C31  964   6.728   1.113  10.595  0.4949  0.6100  0.3838
    8SAPS   O32  965   6.739   1.190  10.686  0.5335  0.0571 -0.4205
    8SAPS   C32  966   6.801   1.137  10.462  0.9196  0.1362  0.4698
    8SAPS   H2X  967   6.832   1.038  10.422  1.2923 -0.1297  1.3888
    8SAPS   H2Y  968   6.895   1.184  10.498  2.2708 -1.7093 -0.5635
    8SAPS   C23  969   6.220   0.972  10.344 -0.4888  0.8640 -0.4120
    8SAPS   H3R  970   6.174   1.067  10.379  1.4195  0.7709  2.5310
    8SAPS   H3S  971   6.151   0.897  10.389  1.4428  0.5086  2.0730
    8SAPS   C24  972   6.205   0.945  10.192  0.2163  0.1510 -0.5897
    8SAPS   H4R  973   6.100   0.976  10.181  0.3938  2.0900  2.4241
    8SAPS   H4S  974   6.213   0.834  10.186  3.4666  0.1616  1.7979
    8SAPS   C25  975   6.301   1.006  10.094  0.3535 -0.1523  0.3580
    8SAPS   H5R  976   6.402   0.964  10.100 -0.3056 -1.4536  2.8272
    8SAPS   C26  977   6.268   1.100  10.000 -0.5167  0.0805  0.2671
    8SAPS   H6R  978   6.344   1.144   9.934  0.3290  0.3696  1.4093
    8SAPS   C27  979   6.129   1.155   9.987  0.0304  0.1499 -0.0931
    8SAPS   H7R  980   6.079   1.165  10.086  0.9117  0.1606  0.3625
    8SAPS   H7S  981   6.075   1.083   9.922  0.5288 -0.7186  0.4365
    8SAPS   C28  982   6.122   1.290   9.909 -0.2002  0.1100 -0.6699
    8SAPS   H8R  983   6.161   1.373   9.969 -2.6383 -0.5615  1.9347
    8SAPS   C29  984   6.083   1.313   9.782  0.4506  0.2507 -1.0099
    8SAPS   H9R  985   6.102   1.415   9.746  2.2159  0.8970  1.6009
    8SAPS  C210  986   6.020   1.216   9.684 -0.0792 -0.0154  0.3958
    8SAPS  H10R  987   5.927   1.264   9.645  0.3379 -1.7105 -2.8611
    8SAPS  H10S  988   5.985   1.125   9.737  1.1414 -1.4056 -1.1554
    8SAPS  C211  989   6.115   1.166   9.579  0.3471 -0.0909 -1.3228
    8SAPS  H11R  990   6.221   1.168   9.607 -0.2647  1.7520  1.0172
    8SAPS  C212  991   6.083   1.137   9.450 -0.8842  0.0126  0.0124
    8SAPS  H12R  992   6.171   1.117   9.388  0.7055 -1.3563  2.5948
    8SAPS  C213  993   5.941   1.140   9.399 -0.2165  0.2032  0.5814
    8SAPS  H13R  994   5.872   1.189   9.472 -1.7913  0.3589 -0.9716
    8SAPS  H13S  995   5.893   1.040   9.386 -0.2745  0.1866  0.9197
    8SAPS  C214  996   5.942   1.225   9.277 -0.3629  0.5647 -0.2955
    8SAPS  H14R  997   6.007   1.313   9.286 -0.7690  0.9122 -0.7174
    8SAPS  C215  998   5.866   1.215   9.163  0.6759  0.5030  0.1189
    8SAPS  H15R  999   5.868   1.287   9.080 -0.7738  0.4464  0.0114
    8SAPS  C216 1000   5.765   1.103   9.141 -0.3037  0.0652 -0.1205
    8SAPS  H16R 1001   5.662   1.135   9.168 -0.2848  2.4762 -2.6974
    8SAPS  H16S 1002   5.783   1.015   9.206 -0.5264  1.3436  1.7055
    8SAPS  C217 1003   5.761   1.071   8.989 -0.8901 -0.0796 -0.1936
    8SAPS  H17R 1004   5.749   1.156   8.919 -1.6374 -0.0708 -0.0576
    8SAPS  H17S 1005   5.678   1.000   8.973 -0.3653 -1.0096  1.0791
    8SAPS  C218 1006   5.887   0.987   8.959  0.5049 -0.5869  0.2462
    8SAPS  H18R 1007   5.910   0.912   9.037  1.3020  1.1367  1.7124
    8SAPS  H18S 1008   5.976   1.051   8.976  1.4629 -1.0053 -2.8963
    8SAPS  C219 1009   5.902   0.938   8.815  0.3806 -1.0722  1.0158
    8SAPS  H19R 1010   5.902   1.017   8.738 -1.3962 -1.3751  0.6857
    8SAPS  H19S 1011   5.806   0.884   8.802  1.1327 -1.4020 -3.8768
    8SAPS  C220 1012   6.011   0.839   8.792 -0.4217  0.7111  0.8733
    8SAPS  H20R 1013   6.012   0.755   8.864  1.1604 -1.0533 -1.1526
    8SAPS  H20S 1014   6.112   0.882   8.807  0.5174 -1.5312  1.1971
    8SAPS  H20T 1015   6.002   0.807   8.686 -0.3660  1.0050  0.7789
    8SAPS   C33 1016   6.717   1.207  10.356 -0.5047 -0.0256  0.1289
    8SAPS   H3X 1017   6.681   1.310  10.378  0.6079  0.7865 -1.7508
    8SAPS   H3Y 1018   6.625   1.151  10.329  0.1936 -0.8803 -0.4881
    8SAPS   C34 1019   6.803   1.229  10.230 -0.0286  0.1289 -0.2868
    8SAPS   H4X 1020   6.827   1.130  10.184 -1.7175 -0.2096 -0.4541
    8SAPS   H4Y 1021   6.899   1.282  10.251  0.7192 -0.6773 -1.5523
    8SAPS   C35 1022   6.725   1.294  10.122  0.2644  0.3946 -0.1852
    8SAPS   H5X 1023   6.707   1.398  10.158  0.0515 -0.7320  3.0847
    8SAPS   H5Y 1024   6.622   1.256  10.104  1.2670 -1.5955 -2.0441
    8SAPS   C36 1025   6.804   1.314   9.990 -0.4974 -0.0193  0.0003
    8SAPS   H6X 1026   6.841   1.215   9.957 -2.4598 -0.9434  0.4529
    8SAPS   H6Y 1027   6.891   1.379  10.013  1.0029 -2.2763  0.8076
    8SAPS   C37 1028   6.720   1.364   9.867 -0.0865  0.3825 -1.0154
    8SAPS   H7X 1029   6.709   1.474   9.881  2.6548  0.6277 -0.4742
    8SAPS   H7Y 1030   6.624   1.312   9.849 -0.3120  0.8781 -1.2732
    8SAPS   C38 1031   6.801   1.348   9.738 -0.0955 -0.1384  0.2210
    8SAPS   H8X 1032   6.845   1.252   9.703  1.2924  0.6653 -0.2876
    8SAPS   H8Y 1033   6.891   1.411   9.757  0.5352 -0.6421 -1.0516
    8SAPS   C39 1034   6.721   1.408   9.614 -0.6382  0.9628 -0.1087
    8SAPS   H9X 1035   6.797   1.430   9.536  0.2006 -0.6533  0.2334
    8SAPS   H9Y 1036   6.665   1.496   9.651 -0.8806 -0.0476  1.9979
    8SAPS  C310 1037   6.618   1.313   9.553  0.0775 -1.0632  0.2827
    8SAPS  H10X 1038   6.540   1.295   9.630  0.8594 -2.1582  0.8317
    8SAPS  H10Y 1039   6.665   1.214   9.533  0.5299 -0.2843 -2.7623
    8SAPS  C311 1040   6.543   1.371   9.432  0.1097  0.3179  0.4004
    8SAPS  H11X 1041   6.617   1.384   9.350  1.1236 -4.2906  0.4753
    8SAPS  H11Y 1042   6.502   1.473   9.446  0.9794  0.9766 -1.6429
    8SAPS  C312 1043   6.437   1.273   9.378  0.8576  0.0908 -0.1008
    8SAPS  H12X 1044   6.363   1.259   9.460  1.1849 -2.1415 -0.1512
    8SAPS  H12Y 1045   6.486   1.174   9.363  0.2710  0.2462 -3.4833
    8SAPS  C313 1046   6.372   1.315   9.251  0.0301  0.3439  0.0587
    8SAPS  H13X 1047   6.305   1.403   9.263  2.3841  2.1054  0.5252
    8SAPS  H13Y 1048   6.307   1.232   9.216  0.5079 -1.2464  2.7754
    8SAPS  C314 1049   6.472   1.343   9.141  0.2012  0.5248 -0.2911
    8SAPS  H14X 1050   6.520   1.244   9.125  1.6515  0.7658  2.2604
    8SAPS  H14Y 1051   6.555   1.413   9.167  0.0682 -0.0994  1.9261
    8SAPS  C315 1052   6.397   1.390   9.011  0.6263  0.5606 -0.3565
    8SAPS  H15X 1053   6.340   1.484   9.024  0.1437  0.2700 -0.3463
    8SAPS  H15Y 1054   6.334   1.298   9.012  2.7509 -0.9424  0.9831
    8SAPS  C316 1055   6.478   1.378   8.881  0.3993 -0.5200 -0.1198
    8SAPS  H16X 1056   6.536   1.285   8.896 -0.1513 -1.1046 -1.5472
    8SAPS  H16Y 1057   6.551   1.461   8.886 -0.2668  0.0763 -0.2293
    8SAPS  C317 1058   6.396   1.388   8.753 -0.7809 -1.0528 -0.2361
    8SAPS  H17X 1059   6.312   1.316   8.767 -4.2656  2.2700 -3.1794
    8SAPS  H17Y 1060   6.459   1.348   8.671 -1.7150  1.9049 -2.4457
    8SAPS  C318 1061   6.341   1.533   8.733 -0.6424  0.4988  0.0789
    8SAPS  H18X 1062   6.422   1.598   8.694 -0.7996  1.3115  1.0912
    8SAPS  H18Y 1063   6.309   1.572   8.832 -0.3514  3.5452 -0.9776
    8SAPS  H18Z 1064   6.258   1.521   8.659 -0.9305 -0.9784  0.6092
    9SAPS     N 1065   2.371   4.545   6.169 -0.5538  0.0901 -0.1050
    9SAPS   HN1 1066   2.284   4.488   6.173 -0.4088 -0.1876 -0.8289
    9SAPS   HN2 1067   2.376   4.598   6.259 -2.9661  1.2497 -0.6228
    9SAPS   HN3 1068   2.347   4.618   6.100 -0.6922  0.4202  0.2890
    9SAPS   C12 1069   2.491   4.471   6.123 -0.2129 -0.2984 -0.1312
    9SAPS  H12A 1070   2.515   4.389   6.189 -1.9723 -1.2481 -0.6304
    9SAPS   C13 1071   2.456   4.418   5.981  0.0221  0.9916 -0.3027
    9SAPS  O13A 1072   2.339   4.432   5.925  0.1366  0.1791 -0.0604
    9SAPS  O13B 1073   2.536   4.335   5.928 -0.9024  0.2970  0.6680
    9SAPS   C11 1074   2.603   4.574   6.109  0.6503 -0.4659 -0.0780
    9SAPS  H11A 1075   2.587   4.646   6.026  0.4087  1.3593  1.5088
    9SAPS  H11B 1076   2.697   4.522   6.079 -0.1701 -1.3897 -1.0701
    9SAPS     P 1077   2.702   4.767   6.264 -0.4143 -0.4024 -0.2900
    9SAPS   O13 1078   2.822   4.767   6.179 -0.2653 -0.0894  0.0371
    9SAPS   O14 1079   2.615   4.885   6.242  0.0325 -0.4205  0.0284
    9SAPS   O12 1080   2.622   4.637   6.235 -0.8823 -0.8996  0.5773
    9SAPS   O11 1081   2.738   4.745   6.415 -0.5422  0.0743 -0.7101
    9SAPS    C1 1082   2.662   4.812   6.519  0.4960 -0.0503 -0.6071
    9SAPS    HA 1083   2.563   4.854   6.491 -0.3606 -1.6592 -0.0242
    9SAPS    HB 1084   2.640   4.737   6.597  2.7326  1.2282  1.3124
    9SAPS    C2 1085   2.746   4.932   6.576 -0.2919  0.2033 -0.6742
    9SAPS    HS 1086   2.750   5.004   6.492 -0.3752 -0.8369 -1.5778
    9SAPS   O21 1087   2.874   4.880   6.618  0.1481  0.5437 -0.1905
    9SAPS   C21 1088   2.977   4.951   6.596 -0.5181 -0.7669  0.4683
    9SAPS   O22 1089   2.987   5.053   6.534 -0.0353 -0.4176  0.1387
    9SAPS   C22 1090   3.095   4.904   6.680 -0.1801 -0.6951 -0.1129
    9SAPS   H2R 1091   3.129   4.807   6.640 -1.4153 -1.5049  0.7388
    9SAPS   H2S 1092   3.181   4.972   6.665 -1.3207  0.5088 -1.3483
    9SAPS    C3 1093   2.670   5.010   6.686 -0.4317  0.3761  0.2656
    9SAPS    HX 1094   2.671   4.936   6.770  3.0615 -0.0367 -0.0871
    9SAPS    HY 1095   2.567   5.031   6.649 -0.5169  2.0943  1.3988
    9SAPS   O31 1096   2.746   5.127   6.719  0.5822  0.0415 -0.1259
    9SAPS   C31 1097   2.678   5.218   6.784  0.1893 -0.0341 -0.1371
    9SAPS   O32 1098   2.566   5.206   6.820 -0.4866  0.1116  0.2946
    9SAPS   C32 1099   2.775   5.330   6.822 -0.0386  0.8480  0.4142
    9SAPS   H2X 1100   2.823   5.368   6.729  0.0158 -0.1231  0.0446
    9SAPS   H2Y 1101   2.857   5.284   6.880 -0.6904  1.4823  1.8632
    9SAPS   C23 1102   3.064   4.906   6.833  0.6743  0.0232  0.4349
    9SAPS   H3R 1103   3.145   4.862   6.895  0.2326 -1.3663  0.0476
    9SAPS   H3S 1104   2.972   4.850   6.860 -1.2578  2.5504 -0.6884
    9SAPS   C24 1105   3.056   5.052   6.886  0.3145 -0.2514 -0.9836
    9SAPS   H4R 1106   2.965   5.088   6.834  0.1494  1.6644  0.5919
    9SAPS   H4S 1107   3.130   5.126   6.851 -0.3010  1.8487  2.0002
    9SAPS   C25 1108   3.031   5.065   7.038  0.5804 -0.6604  0.3245
    9SAPS   H5R 1109   3.105   5.116   7.102 -0.5819 -0.1709  1.2918
    9SAPS   C26 1110   2.928   5.009   7.107  0.1735  0.3196 -0.0858
    9SAPS   H6R 1111   2.932   5.010   7.217 -1.7263  2.6388 -0.0129
    9SAPS   C27 1112   2.808   4.935   7.057 -0.3316 -0.2829 -0.0859
    9SAPS   H7R 1113   2.815   4.828   7.087 -0.4089  0.4911  2.8539
    9SAPS   H7S 1114   2.808   4.940   6.946 -3.3373 -3.2501 -0.2989
    9SAPS   C28 1115   2.679   5.005   7.100  0.1411  0.7395  0.8416
    9SAPS   H8R 1116   2.633   5.061   7.017 -1.9693 -1.1911  0.6649
    9SAPS   C29 1117   2.611   4.995   7.209  0.5908  0.0449 -0.5571
    9SAPS   H9R 1118   2.519   5.053   7.229 -0.0032 -0.8637 -0.5906
    9SAPS  C210 1119   2.651   4.908   7.327  0.2246  0.2540  0.5103
    9SAPS  H10R 1120   2.628   4.958   7.424 -1.6991  2.5294 -1.0861
    9SAPS  H10S 1121   2.761   4.892   7.330 -0.4597 -5.4222  0.5770
    9SAPS  C211 1122   2.587   4.778   7.309 -0.2002  0.6210 -0.1568
    9SAPS  H11R 1123   2.560   4.749   7.206 -0.7473 -0.0171  0.1595
    9SAPS  C212 1124   2.560   4.685   7.399 -1.2248 -0.1576 -0.1973
    9SAPS  H12R 1125   2.497   4.603   7.361 -1.9302  0.9493 -1.4712
    9SAPS  C213 1126   2.592   4.685   7.546 -0.1911 -0.5797 -0.3390
    9SAPS  H13R 1127   2.540   4.597   7.592 -1.3533  1.6662  2.8660
    9SAPS  H13S 1128   2.540   4.772   7.590  0.4200  0.3509 -1.4532
    9SAPS  C214 1129   2.744   4.687   7.570 -0.0946  0.3769  0.1800
    9SAPS  H14R 1130   2.800   4.734   7.488  1.1905  0.4303  1.0845
    9SAPS  C215 1131   2.802   4.644   7.681 -0.3261  0.5286 -0.0504
    9SAPS  H15R 1132   2.908   4.667   7.695 -0.3445  0.4259  0.2804
    9SAPS  C216 1133   2.735   4.573   7.794 -0.4068 -0.2680  0.0067
    9SAPS  H16R 1134   2.793   4.479   7.804  2.5044  1.3597 -1.0943
    9SAPS  H16S 1135   2.634   4.541   7.760 -0.9240  2.1678 -0.8039
    9SAPS  C217 1136   2.740   4.655   7.924 -0.3245  0.4605 -0.2105
    9SAPS  H17R 1137   2.683   4.747   7.901 -1.3642  0.1508  1.0872
    9SAPS  H17S 1138   2.845   4.679   7.953 -0.3575  1.6106 -1.0336
    9SAPS  C218 1139   2.682   4.586   8.052 -0.0639  0.7135 -0.2901
    9SAPS  H18R 1140   2.697   4.649   8.142 -4.7999 -0.8498  1.7952
    9SAPS  H18S 1141   2.742   4.494   8.067  0.4283  1.2631  1.2481
    9SAPS  C219 1142   2.526   4.563   8.050  0.6278 -0.2651 -0.5003
    9SAPS  H19R 1143   2.496   4.492   7.969 -0.7637  0.0848 -0.2936
    9SAPS  H19S 1144   2.470   4.652   8.016  1.3491 -0.0862 -1.2348
    9SAPS  C220 1145   2.473   4.530   8.191  0.8601  0.3816 -0.9506
    9SAPS  H20R 1146   2.362   4.533   8.189  0.8552 -0.1111 -1.5328
    9SAPS  H20S 1147   2.505   4.620   8.248  0.8261  1.4263 -2.5241
    9SAPS  H20T 1148   2.511   4.438   8.239  0.2094 -0.3103 -1.7399
    9SAPS   C33 1149   2.717   5.430   6.919  0.4895 -1.5682  0.6957
    9SAPS   H3X 1150   2.620   5.464   6.878  0.6566 -1.3521  0.4778
    9SAPS   H3Y 1151   2.785   5.517   6.930  2.0585 -2.6351 -0.3197
    9SAPS   C34 1152   2.697   5.373   7.052 -0.2345  0.6467  0.3872
    9SAPS   H4X 1153   2.789   5.331   7.098  0.3641  0.8008 -0.6454
    9SAPS   H4Y 1154   2.621   5.293   7.040 -0.1635  0.7532 -0.8533
    9SAPS   C35 1155   2.624   5.471   7.152  0.5094 -0.1196 -0.3277
    9SAPS   H5X 1156   2.537   5.513   7.097 -0.5852 -2.8577 -0.8023
    9SAPS   H5Y 1157   2.696   5.547   7.187 -1.9497  1.4693  1.4009
    9SAPS   C36 1158   2.579   5.411   7.290 -0.3206 -1.0129 -0.1463
    9SAPS   H6X 1159   2.656   5.343   7.332 -0.3088 -1.9738 -1.6612
    9SAPS   H6Y 1160   2.482   5.358   7.277 -0.6139 -0.2592 -1.1369
    9SAPS   C37 1161   2.542   5.525   7.383 -0.7743 -0.1033 -0.2490
    9SAPS   H7X 1162   2.463   5.594   7.345 -0.3330  1.1911  1.1615
    9SAPS   H7Y 1163   2.638   5.578   7.398 -0.1678 -1.1961 -0.2339
    9SAPS   C38 1164   2.487   5.471   7.515  0.3478  0.1897 -0.4878
    9SAPS   H8X 1165   2.553   5.396   7.563  0.3145  0.5499  0.1299
    9SAPS   H8Y 1166   2.394   5.416   7.489  1.4612 -1.1525 -1.7048
    9SAPS   C39 1167   2.449   5.580   7.620  0.2277  0.2418 -0.8230
    9SAPS   H9X 1168   2.367   5.646   7.585 -0.7351 -0.7087 -0.3825
    9SAPS   H9Y 1169   2.543   5.639   7.626  1.5563 -1.7869 -0.9436
    9SAPS  C310 1170   2.412   5.533   7.756 -0.0555  0.0389 -0.6921
    9SAPS  H10X 1171   2.493   5.468   7.797 -0.7758 -0.0768  0.5597
    9SAPS  H10Y 1172   2.315   5.480   7.757 -0.4946  0.8419  0.3301
    9SAPS  C311 1173   2.385   5.649   7.855  0.3590 -0.9949  0.8615
    9SAPS  H11X 1174   2.306   5.717   7.815  1.1490 -0.3084  0.4368
    9SAPS  H11Y 1175   2.476   5.712   7.856  0.4268 -1.0931  0.8616
    9SAPS  C312 1176   2.343   5.598   7.998  0.2707 -0.3005  0.2763
    9SAPS  H12X 1177   2.416   5.529   8.047  0.1959 -1.8870 -1.7829
    9SAPS  H12Y 1178   2.240   5.558   7.998 -0.4329  1.4762 -0.0656
    9SAPS  C313 1179   2.326   5.716   8.094  0.9232  0.5716  0.2647
    9SAPS  H13X 1180   2.243   5.776   8.050 -0.0358  2.2142  4.1147
    9SAPS  H13Y 1181   2.421   5.772   8.084  1.1283 -0.0747 -1.5725
    9SAPS  C314 1182   2.281   5.685   8.230  0.1718 -0.0504  0.4367
    9SAPS  H14X 1183   2.366   5.643   8.287  0.9049 -0.4186 -0.9100
    9SAPS  H14Y 1184   2.211   5.599   8.224  0.3773 -0.1840  0.0174
    9SAPS  C315 1185   2.202   5.799   8.305  0.2564  0.1389 -0.0601
    9SAPS  H15X 1186   2.119   5.837   8.242  1.1034  1.3078 -0.4988
    9SAPS  H15Y 1187   2.271   5.883   8.328 -0.2126  0.3105  0.7760
    9SAPS  C316 1188   2.152   5.761   8.442  0.3967  0.1987  0.1088
    9SAPS  H16X 1189   2.248   5.760   8.498  1.2027 -0.2853 -1.2628
    9SAPS  H16Y 1190   2.112   5.658   8.449  0.2453  0.1302 -1.6343
    9SAPS  C317 1191   2.063   5.866   8.515  0.1262  0.5547 -0.3945
    9SAPS  H17X 1192   2.104   5.965   8.486  2.3190 -0.0426  0.5702
    9SAPS  H17Y 1193   2.082   5.857   8.624 -0.5867  2.0396 -0.1286
    9SAPS  C318 1194   1.913   5.856   8.480  0.3057 -0.2397 -0.2541
    9SAPS  H18X 1195   1.902   5.856   8.369  0.5655 -0.4997 -0.2811
    9SAPS  H18Y 1196   1.865   5.942   8.531  0.0831 -0.8837  0.6181
    9SAPS  H18Z 1197   1.858   5.766   8.516  0.1040 -0.2309 -0.5436
   10SAPS     N 1198   2.066   4.419   6.573 -0.4384  0.4175  0.5390
   10SAPS   HN1 1199   1.969   4.449   6.551 -0.9222 -2.4697 -1.5897
   10SAPS   HN2 1200   2.061   4.353   6.654  1.5289 -0.5559 -0.1137
   10SAPS   HN3 1201   2.130   4.498   6.592  0.5967  0.1108 -1.6055
   10SAPS   C12 1202   2.112   4.359   6.442 -0.0974 -0.1599 -1.0912
   10SAPS  H12A 1203   2.048   4.276   6.414 -1.0988 -0.0186  0.6933
   10SAPS   C13 1204   2.109   4.456   6.324  0.8148  0.5425  0.3856
   10SAPS  O13A 1205   2.097   4.579   6.347 -0.0385 -0.2158  0.5346
   10SAPS  O13B 1206   2.154   4.417   6.214 -0.0092  0.3136  0.2472
   10SAPS   C11 1207   2.248   4.290   6.455  0.1619  0.0664 -0.0237
   10SAPS  H11A 1208   2.271   4.238   6.359  0.7019 -0.5300  0.4236
   10SAPS  H11B 1209   2.234   4.216   6.536  0.7142 -0.0053  0.0073
   10SAPS     P 1210   2.455   4.366   6.578  0.4342 -0.2109  0.7289
   10SAPS   O13 1211   2.491   4.219   6.582  0.6123  0.1212 -0.2328
   10SAPS   O14 1212   2.558   4.468   6.547 -0.0245 -0.2941 -0.2790
   10SAPS   O12 1213   2.343   4.388   6.480 -0.3467  0.4982 -0.4627
   10SAPS   O11 1214   2.372   4.393   6.713  0.3816 -0.3412 -0.1742
   10SAPS    C1 1215   2.411   4.481   6.816 -0.3484  0.3452 -0.5986
   10SAPS    HA 1216   2.436   4.582   6.777 -1.5044  1.0200  0.3610
   10SAPS    HB 1217   2.326   4.494   6.886  0.1178  2.0486 -0.3198
   10SAPS    C2 1218   2.515   4.424   6.911 -0.4249 -0.3907 -0.1765
   10SAPS    HS 1219   2.609   4.422   6.853  0.5032  2.8073  1.1268
   10SAPS   O21 1220   2.468   4.292   6.953 -0.0739  0.4699  0.0342
   10SAPS   C21 1221   2.558   4.196   6.957 -0.2978 -0.4903 -0.3629
   10SAPS   O22 1222   2.671   4.194   6.915  0.4069  0.1179  0.4672
   10SAPS   C22 1223   2.498   4.078   7.030  0.5134 -0.3758  0.1684
   10SAPS   H2R 1224   2.393   4.067   6.997  0.0618  1.1269  1.0372
   10SAPS   H2S 1225   2.543   3.988   6.984  0.6137 -1.2130  1.8392
   10SAPS    C3 1226   2.543   4.508   7.043 -0.4172 -0.5742  0.5758
   10SAPS    HX 1227   2.449   4.522   7.100 -2.1397  0.3887 -2.3438
   10SAPS    HY 1228   2.562   4.615   7.017 -2.8566 -0.1189  0.5352
   10SAPS   O31 1229   2.634   4.442   7.146 -0.0093 -0.2085  0.3558
   10SAPS   C31 1230   2.758   4.477   7.149 -0.0011  0.2466  0.3196
   10SAPS   O32 1231   2.822   4.528   7.056  0.1574 -0.5252 -0.1365
   10SAPS   C32 1232   2.812   4.419   7.273 -0.0607  0.3818 -0.2419
   10SAPS   H2X 1233   2.826   4.310   7.254 -1.8936 -0.0257  0.6482
   10SAPS   H2Y 1234   2.740   4.437   7.355  0.8060  0.9807  0.3967
   10SAPS   C23 1235   2.514   4.059   7.185  0.1368 -0.4134 -0.3363
   10SAPS   H3R 1236   2.448   3.978   7.222 -1.7760  1.8396  1.3858
   10SAPS   H3S 1237   2.485   4.155   7.234  1.1059 -0.4073  0.2420
   10SAPS   C24 1238   2.661   4.017   7.214  0.2003  0.2849 -0.4710
   10SAPS   H4R 1239   2.664   4.030   7.324  1.1740  0.6048 -0.5327
   10SAPS   H4S 1240   2.716   4.100   7.165 -0.7956  1.6485  0.7069
   10SAPS   C25 1241   2.695   3.872   7.172 -0.2825 -0.2148 -0.2734
   10SAPS   H5R 1242   2.712   3.853   7.065 -0.1199  0.4666 -0.3697
   10SAPS   C26 1243   2.725   3.773   7.255  0.4355  0.1779 -0.0760
   10SAPS   H6R 1244   2.764   3.681   7.208 -0.5465 -0.2239 -0.1099
   10SAPS   C27 1245   2.722   3.775   7.404 -0.6248 -0.2485  0.0372
   10SAPS   H7R 1246   2.754   3.673   7.435 -0.7747  0.3530  2.2597
   10SAPS   H7S 1247   2.618   3.782   7.441 -0.5458 -1.0349  0.4305
   10SAPS   C28 1248   2.816   3.868   7.486 -0.9778 -0.2070  0.3603
   10SAPS   H8R 1249   2.872   3.946   7.432 -1.4813  0.7421  1.1897
   10SAPS   C29 1250   2.845   3.856   7.613  0.0596  0.7379  0.0540
   10SAPS   H9R 1251   2.920   3.925   7.654  0.9036  0.1887 -0.5437
   10SAPS  C210 1252   2.787   3.759   7.714  0.1193  0.2663 -0.0056
   10SAPS  H10R 1253   2.741   3.677   7.653 -2.7676  1.2839  0.6902
   10SAPS  H10S 1254   2.705   3.805   7.774  0.5723  0.3991  0.5091
   10SAPS  C211 1255   2.882   3.700   7.813  0.4309  0.4132  0.4783
   10SAPS  H11R 1256   2.979   3.669   7.770  0.9080  1.4739  0.7982
   10SAPS  C212 1257   2.866   3.674   7.941  0.1603 -0.3359  0.7557
   10SAPS  H12R 1258   2.946   3.634   8.005  0.2018 -1.7525 -0.1448
   10SAPS  C213 1259   2.738   3.684   8.022  0.1655  0.2469  0.2389
   10SAPS  H13R 1260   2.690   3.584   8.024  2.2027 -0.7699 -0.3256
   10SAPS  H13S 1261   2.658   3.748   7.979 -1.2223 -0.5046  1.6509
   10SAPS  C214 1262   2.759   3.735   8.164 -0.1009 -0.3594 -0.2895
   10SAPS  H14R 1263   2.734   3.841   8.179  2.2016  0.4788 -2.0228
   10SAPS  C215 1264   2.803   3.660   8.271 -0.4735  0.0018 -0.2747
   10SAPS  H15R 1265   2.813   3.714   8.367 -0.0870 -0.6107  0.0319
   10SAPS  C216 1266   2.844   3.518   8.270 -0.9385 -0.7577 -0.3267
   10SAPS  H16R 1267   2.845   3.470   8.170 -0.3589 -3.2541  0.8608
   10SAPS  H16S 1268   2.771   3.467   8.337 -0.4573  0.1270  0.8920
   10SAPS  C217 1269   2.981   3.488   8.339  0.1815 -0.1955  0.1730
   10SAPS  H17R 1270   3.003   3.380   8.347  2.5797  0.3176  0.8047
   10SAPS  H17S 1271   2.979   3.526   8.443 -0.2266  1.0981 -0.2965
   10SAPS  C218 1272   3.097   3.556   8.278 -0.3039 -0.1047 -0.4810
   10SAPS  H18R 1273   3.084   3.666   8.279 -2.1293 -0.2912 -0.9712
   10SAPS  H18S 1274   3.103   3.529   8.170  0.7034  0.5317 -0.5863
   10SAPS  C219 1275   3.239   3.531   8.331 -0.5319  0.2366 -0.1884
   10SAPS  H19R 1276   3.314   3.607   8.300  0.6866 -0.1749  1.6377
   10SAPS  H19S 1277   3.276   3.438   8.282 -0.4541  0.7978 -1.2190
   10SAPS  C220 1278   3.242   3.515   8.482  1.1580  0.4571 -0.3170
   10SAPS  H20R 1279   3.347   3.509   8.520  0.4207 -2.7026  1.4183
   10SAPS  H20S 1280   3.193   3.425   8.523  1.3842  0.7750  0.6671
   10SAPS  H20T 1281   3.200   3.608   8.525 -0.8746 -0.0217 -1.2235
   10SAPS   C33 1282   2.945   4.484   7.313 -0.0808 -0.1424  0.9901
   10SAPS   H3X 1283   2.924   4.589   7.343  2.3893  0.8322 -0.5376
   10SAPS   H3Y 1284   3.014   4.476   7.226 -2.4800 -0.5133 -0.9220
   10SAPS   C34 1285   3.004   4.396   7.427 -0.2208  0.3972 -0.1110
   10SAPS   H4X 1286   3.000   4.286   7.408 -0.3097  0.7723 -2.3364
   10SAPS   H4Y 1287   2.955   4.408   7.526 -3.4598 -1.7060 -1.3730
   10SAPS   C35 1288   3.153   4.428   7.448 -0.1485 -0.8591 -1.0375
   10SAPS   H5X 1289   3.175   4.535   7.426  0.5055 -1.0999 -1.5536
   10SAPS   H5Y 1290   3.208   4.375   7.367  4.2454  0.7448  0.7629
   10SAPS   C36 1291   3.205   4.399   7.584 -0.5003  0.3131 -0.1770
   10SAPS   H6X 1292   3.314   4.391   7.560  0.2656  0.8013  2.8483
   10SAPS   H6Y 1293   3.180   4.294   7.613 -1.6183  1.0388  1.5342
   10SAPS   C37 1294   3.171   4.495   7.694  0.4274  0.0619  0.7255
   10SAPS   H7X 1295   3.065   4.488   7.724  0.9201  0.6192  2.6836
   10SAPS   H7Y 1296   3.184   4.600   7.660  0.7350 -0.4159 -0.6707
   10SAPS   C38 1297   3.230   4.459   7.825 -0.7408  0.0641 -0.0335
   10SAPS   H8X 1298   3.208   4.350   7.829  0.0583 -0.0644  1.0673
   10SAPS   H8Y 1299   3.173   4.513   7.903 -2.5319 -0.2988 -1.0662
   10SAPS   C39 1300   3.383   4.480   7.838 -0.2952  0.5754  0.6120
   10SAPS   H9X 1301   3.399   4.590   7.837  0.8491  0.4272 -0.8053
   10SAPS   H9Y 1302   3.435   4.444   7.746 -1.6887 -1.3284  0.5340
   10SAPS  C310 1303   3.454   4.414   7.963  0.4578  0.1432 -0.4196
   10SAPS  H10X 1304   3.562   4.438   7.964  0.3497  0.6645 -0.8781
   10SAPS  H10Y 1305   3.444   4.305   7.948 -0.0827  0.0503  0.5736
   10SAPS  C311 1306   3.383   4.455   8.094 -0.4125 -0.4631  0.2495
   10SAPS  H11X 1307   3.277   4.423   8.090 -0.2294 -1.1361  0.6320
   10SAPS  H11Y 1308   3.392   4.562   8.122  2.8289 -0.4600 -0.5359
   10SAPS  C312 1309   3.433   4.388   8.217 -0.0813  0.2246 -0.0048
   10SAPS  H12X 1310   3.535   4.425   8.242  0.2870 -0.0300 -1.0824
   10SAPS  H12Y 1311   3.442   4.278   8.202 -2.1581 -0.0372  0.5391
   10SAPS  C313 1312   3.340   4.403   8.336  0.2577  0.3551 -0.6106
   10SAPS  H13X 1313   3.240   4.361   8.314 -0.6228  1.8968  0.3938
   10SAPS  H13Y 1314   3.319   4.510   8.357 -1.5993 -0.1300  0.1201
   10SAPS  C314 1315   3.402   4.341   8.460  0.5370  0.3371  1.4470
   10SAPS  H14X 1316   3.436   4.239   8.433 -0.3670  0.2317  0.6833
   10SAPS  H14Y 1317   3.318   4.320   8.529 -0.1085 -1.4225  0.1631
   10SAPS  C315 1318   3.512   4.434   8.525  0.6335  0.0029 -0.7274
   10SAPS  H15X 1319   3.592   4.472   8.459  0.9576  0.0916 -0.2892
   10SAPS  H15Y 1320   3.561   4.370   8.602  1.8716  1.0985 -0.5825
   10SAPS  C316 1321   3.446   4.554   8.603  0.0645  0.1265  0.3524
   10SAPS  H16X 1322   3.337   4.535   8.600  0.3068 -1.1712 -0.7581
   10SAPS  H16Y 1323   3.474   4.648   8.549 -2.1156  0.2709 -0.5801
   10SAPS  C317 1324   3.500   4.563   8.746  0.1648  0.6156 -0.0719
   10SAPS  H17X 1325   3.473   4.655   8.803 -2.1546 -0.1404  0.0725
   10SAPS  H17Y 1326   3.611   4.566   8.743  0.3548 -3.8448 -0.0036
   10SAPS  C318 1327   3.447   4.450   8.831 -0.3349 -0.2023 -0.3137
   10SAPS  H18X 1328   3.480   4.465   8.936 -2.4457 -1.0435  0.4950
   10SAPS  H18Y 1329   3.489   4.351   8.802 -1.5606 -0.5029 -1.0706
   10SAPS  H18Z 1330   3.337   4.440   8.829 -0.7259  3.5543 -0.7345
   11SAPS     N 1331   4.802   0.589   6.139  0.0167  0.0349 -0.2883
   11SAPS   HN1 1332   4.797   0.677   6.195  0.9527 -0.8718  1.2548
   11SAPS   HN2 1333   4.740   0.522   6.188 -0.0629  1.1630  1.2138
   11SAPS   HN3 1334   4.899   0.554   6.151  0.3031  1.1803  1.0605
   11SAPS   C12 1335   4.783   0.606   5.990 -0.3736  0.0071  0.0347
   11SAPS  H12A 1336   4.834   0.697   5.963  0.2852 -0.2044  0.5676
   11SAPS   C13 1337   4.842   0.486   5.904 -0.1635  0.4103 -0.2203
   11SAPS  O13A 1338   4.879   0.374   5.954 -0.7562 -0.0358 -0.1277
   11SAPS  O13B 1339   4.833   0.495   5.778  0.0688  0.8364  0.1068
   11SAPS   C11 1340   4.633   0.631   5.961  0.5984  0.2847  0.5564
   11SAPS  H11A 1341   4.578   0.536   5.944  0.0082  0.8001 -0.4755
   11SAPS  H11B 1342   4.627   0.681   5.862 -1.0304 -1.4949 -0.2592
   11SAPS     P 1343   4.426   0.765   6.038  0.0429 -0.0005  0.2087
   11SAPS   O13 1344   4.420   0.903   5.986 -0.4755  0.0040 -0.1258
   11SAPS   O14 1345   4.350   0.669   5.960 -0.0276  0.5618  0.5248
   11SAPS   O12 1346   4.570   0.723   6.052  0.5745  0.9220 -0.0359
   11SAPS   O11 1347   4.363   0.767   6.188 -0.2466 -0.3934 -0.0283
   11SAPS    C1 1348   4.337   0.636   6.244 -0.3457  0.3905  0.3248
   11SAPS    HA 1349   4.292   0.563   6.174 -1.3148  1.1643  0.1271
   11SAPS    HB 1350   4.430   0.613   6.301 -0.3573 -0.6151 -0.0564
   11SAPS    C2 1351   4.224   0.637   6.349 -0.3138  0.7195  1.0475
   11SAPS    HS 1352   4.141   0.674   6.285  1.1310  0.8235 -0.8320
   11SAPS   O21 1353   4.251   0.721   6.464 -0.2656  0.4036 -0.6826
   11SAPS   C21 1354   4.141   0.780   6.507  0.5497 -0.5494  0.0632
   11SAPS   O22 1355   4.029   0.759   6.455 -0.0548 -0.7625 -0.3818
   11SAPS   C22 1356   4.171   0.872   6.622  0.5536  0.1914  0.1660
   11SAPS   H2R 1357   4.270   0.912   6.593  0.9521  0.0295  1.2835
   11SAPS   H2S 1358   4.095   0.952   6.633 -1.1156 -1.3218 -0.0900
   11SAPS    C3 1359   4.185   0.492   6.395 -1.0479  0.2970  0.1572
   11SAPS    HX 1360   4.163   0.424   6.310 -1.7987 -1.5327  1.7822
   11SAPS    HY 1361   4.092   0.499   6.455 -1.9938  2.7850 -1.5072
   11SAPS   O31 1362   4.299   0.434   6.471  0.6115 -0.3297  0.1991
   11SAPS   C31 1363   4.278   0.398   6.598 -0.3477 -0.1554 -0.6349
   11SAPS   O32 1364   4.171   0.377   6.647 -0.1354 -0.2017 -0.2369
   11SAPS   C32 1365   4.410   0.407   6.672  0.3537  0.3070 -0.7411
   11SAPS   H2X 1366   4.429   0.516   6.685  2.3431 -0.0941 -0.1592
   11SAPS   H2Y 1367   4.492   0.366   6.610  0.1436  0.5688 -1.2014
   11SAPS   C23 1368   4.189   0.778   6.743 -0.1571 -0.4858 -0.1411
   11SAPS   H3R 1369   4.256   0.818   6.822  0.4878 -2.8380  0.5381
   11SAPS   H3S 1370   4.240   0.682   6.720 -1.3768 -2.0715  3.4923
   11SAPS   C24 1371   4.050   0.752   6.813  0.2556 -0.0924 -0.5043
   11SAPS   H4R 1372   3.976   0.729   6.733 -1.0292  0.8060  0.4154
   11SAPS   H4S 1373   4.019   0.856   6.837  0.7044 -0.7244  3.1186
   11SAPS   C25 1374   4.037   0.655   6.926  0.2870  0.3657  0.6050
   11SAPS   H5R 1375   4.016   0.552   6.894 -2.9679  1.2444 -0.2126
   11SAPS   C26 1376   4.062   0.678   7.058 -0.0047 -0.1416  0.5762
   11SAPS   H6R 1377   4.065   0.594   7.129  2.3485 -2.4776 -2.1116
   11SAPS   C27 1378   4.124   0.810   7.106  0.4152 -0.3998  0.0598
   11SAPS   H7R 1379   4.067   0.900   7.074  1.3609 -1.1450 -4.0181
   11SAPS   H7S 1380   4.219   0.820   7.049 -0.7807  0.6297 -1.8126
   11SAPS   C28 1381   4.161   0.793   7.253 -0.0546  0.2323  0.9066
   11SAPS   H8R 1382   4.252   0.733   7.261 -0.0717 -0.1329 -1.4434
   11SAPS   C29 1383   4.102   0.849   7.363 -0.3995 -1.1466 -0.1535
   11SAPS   H9R 1384   4.141   0.817   7.461  0.8671 -0.5821 -0.4688
   11SAPS  C210 1385   3.991   0.944   7.358  0.8300  0.4216  0.0990
   11SAPS  H10R 1386   3.898   0.901   7.401 -0.4704  2.4374 -0.6273
   11SAPS  H10S 1387   3.959   0.985   7.260 -2.6821  0.9750  1.4193
   11SAPS  C211 1388   4.027   1.078   7.421 -0.2012  0.6905 -0.0484
   11SAPS  H11R 1389   4.115   1.119   7.369 -0.8028  2.9566  0.6475
   11SAPS  C212 1390   3.985   1.131   7.539 -0.3270 -0.2097 -0.1439
   11SAPS  H12R 1391   4.023   1.230   7.565  1.2977 -1.0581  0.7499
   11SAPS  C213 1392   3.887   1.071   7.640 -0.7039  0.2935 -0.5302
   11SAPS  H13R 1393   3.933   1.010   7.720 -1.6180 -1.8939 -1.6102
   11SAPS  H13S 1394   3.821   1.008   7.576  0.3708  1.2027 -2.5734
   11SAPS  C214 1395   3.788   1.161   7.705  0.4896 -0.2040 -0.9873
   11SAPS  H14R 1396   3.696   1.191   7.652 -1.0669  0.6502  2.0628
   11SAPS  C215 1397   3.800   1.228   7.824 -0.2408 -0.2360  0.3462
   11SAPS  H15R 1398   3.721   1.292   7.866 -0.2830 -1.8765  2.8541
   11SAPS  C216 1399   3.909   1.216   7.921  0.2433 -0.8276 -1.1432
   11SAPS  H16R 1400   3.943   1.318   7.949  1.4019 -1.4530 -0.2490
   11SAPS  H16S 1401   3.997   1.164   7.877 -1.4550 -1.8051 -3.5494
   11SAPS  C217 1402   3.848   1.152   8.050 -0.5032 -0.0099 -0.7287
   11SAPS  H17R 1403   3.820   1.046   8.036 -1.7658 -0.0190  1.7101
   11SAPS  H17S 1404   3.762   1.204   8.097 -1.9428 -1.8681 -1.2639
   11SAPS  C218 1405   3.968   1.156   8.149  0.8747  0.5402  0.6284
   11SAPS  H18R 1406   4.017   1.255   8.157 -0.6358  1.2064  1.6952
   11SAPS  H18S 1407   4.039   1.077   8.116 -0.1603 -0.0169 -0.3105
   11SAPS  C219 1408   3.928   1.117   8.282  0.2851 -0.9984  0.3419
   11SAPS  H19R 1409   3.819   1.130   8.301  0.3751 -1.7757  1.4405
   11SAPS  H19S 1410   3.975   1.185   8.357  0.8996  0.1988 -1.1073
   11SAPS  C220 1411   3.979   0.974   8.324  0.5070 -0.2649  0.2805
   11SAPS  H20R 1412   3.966   0.945   8.430  2.5705  1.4556  1.0556
   11SAPS  H20S 1413   4.090   0.966   8.315  0.3026 -2.4397 -0.7147
   11SAPS  H20T 1414   3.941   0.895   8.256  1.4710 -0.5698  0.0927
   11SAPS   C33 1415   4.408   0.331   6.813  0.6542  0.2598 -0.3865
   11SAPS   H3X 1416   4.515   0.312   6.838  0.6601  0.1930 -0.4623
   11SAPS   H3Y 1417   4.366   0.229   6.805 -0.5227  0.8418 -1.7510
   11SAPS   C34 1418   4.342   0.404   6.931  0.3933 -0.2729 -0.5420
   11SAPS   H4X 1419   4.231   0.396   6.922  0.3043  2.0557 -2.0221
   11SAPS   H4Y 1420   4.369   0.511   6.916  0.2928 -0.2795 -0.7802
   11SAPS   C35 1421   4.399   0.355   7.063 -0.0645 -0.7433 -0.1786
   11SAPS   H5X 1422   4.509   0.365   7.060 -0.2510  1.2690 -0.4781
   11SAPS   H5Y 1423   4.374   0.247   7.077 -0.6105 -0.8407 -1.7710
   11SAPS   C36 1424   4.358   0.426   7.194 -0.3376 -0.2406 -0.4829
   11SAPS   H6X 1425   4.250   0.421   7.217 -0.8248  1.0855 -2.3301
   11SAPS   H6Y 1426   4.396   0.531   7.189 -0.2222 -0.1996  0.9966
   11SAPS   C37 1427   4.435   0.368   7.316  0.7954  0.1987  0.0689
   11SAPS   H7X 1428   4.543   0.351   7.295  0.7732  0.3498 -0.1720
   11SAPS   H7Y 1429   4.390   0.267   7.331  2.9541 -0.8520 -0.2754
   11SAPS   C38 1430   4.402   0.453   7.443 -0.2544  0.2569 -0.0427
   11SAPS   H8X 1431   4.311   0.514   7.425 -0.1184  1.6898  3.7715
   11SAPS   H8Y 1432   4.490   0.519   7.454 -0.0931  0.4795 -2.4231
   11SAPS   C39 1433   4.380   0.370   7.570 -0.1496  0.1791 -0.1439
   11SAPS   H9X 1434   4.461   0.295   7.583  2.2385  2.7754  0.5361
   11SAPS   H9Y 1435   4.286   0.311   7.560 -1.3458  1.9228  0.5071
   11SAPS  C310 1436   4.354   0.472   7.683 -0.2655 -0.1789 -0.2482
   11SAPS  H10X 1437   4.248   0.462   7.714  0.0737 -0.1994  0.9235
   11SAPS  H10Y 1438   4.372   0.576   7.648 -0.2098  0.6071  2.0177
   11SAPS  C311 1439   4.440   0.452   7.807  0.0434  0.2820  0.2855
   11SAPS  H11X 1440   4.415   0.527   7.885  2.2342  1.0518  0.2689
   11SAPS  H11Y 1441   4.548   0.462   7.784  0.0988 -0.7242  0.1037
   11SAPS  C312 1442   4.402   0.316   7.882  0.4539 -0.2533  0.4439
   11SAPS  H12X 1443   4.409   0.228   7.814 -0.6627 -0.2644  0.3194
   11SAPS  H12Y 1444   4.294   0.319   7.911 -0.0070 -2.2968 -0.9217
   11SAPS  C313 1445   4.477   0.311   8.016  0.2431  0.3190 -0.7423
   11SAPS  H13X 1446   4.468   0.406   8.074  0.5706  0.2748 -0.6180
   11SAPS  H13Y 1447   4.583   0.294   7.989  0.4274  1.7417 -0.9922
   11SAPS  C314 1448   4.445   0.190   8.110  0.5379  0.1526 -0.1337
   11SAPS  H14X 1449   4.541   0.159   8.158 -0.1653 -1.1388  0.4581
   11SAPS  H14Y 1450   4.400   0.107   8.051 -2.0070  1.4447 -0.0432
   11SAPS  C315 1451   4.347   0.241   8.220  0.2334  0.7852 -0.8147
   11SAPS  H15X 1452   4.243   0.257   8.186 -0.4837 -2.4327 -0.3585
   11SAPS  H15Y 1453   4.375   0.342   8.254  1.2450  0.0387  0.6406
   11SAPS  C316 1454   4.334   0.149   8.344  0.3017  0.1115 -0.0718
   11SAPS  H16X 1455   4.426   0.109   8.393 -0.1907 -2.5385 -1.2238
   11SAPS  H16Y 1456   4.292   0.056   8.299 -1.1503  1.6990 -2.0911
   11SAPS  C317 1457   4.244   0.213   8.452 -0.8307  0.3074  0.2936
   11SAPS  H17X 1458   4.154   0.241   8.393  0.6265 -0.3826 -2.3644
   11SAPS  H17Y 1459   4.300   0.306   8.474  0.5986 -0.5095  0.2046
   11SAPS  C318 1460   4.216   0.129   8.578  0.1720  1.2158  1.0552
   11SAPS  H18X 1461   4.210   0.019   8.560 -1.0031  1.5597 -0.7264
   11SAPS  H18Y 1462   4.127   0.166   8.633  1.4998  3.5840  1.6555
   11SAPS  H18Z 1463   4.290   0.139   8.661  0.7528  1.8303  0.4674
   12SAPS     N 1464   4.353   1.575   5.808  0.4203  0.0962  0.6026
   12SAPS   HN1 1465   4.364   1.547   5.709  0.7263 -1.8863  1.1766
   12SAPS   HN2 1466   4.435   1.549   5.867  2.1651  0.3532 -1.6541
   12SAPS   HN3 1467   4.272   1.527   5.854  1.3587 -0.6484  1.4967
   12SAPS   C12 1468   4.310   1.713   5.789 -0.0382 -0.0797  0.0035
   12SAPS  H12A 1469   4.395   1.771   5.757 -2.0921  2.4368 -1.0706
   12SAPS   C13 1470   4.194   1.743   5.691 -0.1459 -0.3879  0.1611
   12SAPS  O13A 1471   4.139   1.645   5.633  0.2286 -0.8241 -0.1013
   12SAPS  O13B 1472   4.159   1.861   5.659 -0.5335  0.1001  0.2675
   12SAPS   C11 1473   4.262   1.766   5.929 -0.0426 -0.1799  0.0993
   12SAPS  H11A 1474   4.218   1.867   5.919  0.5670  0.3178  2.1723
   12SAPS  H11B 1475   4.344   1.784   6.003 -0.3631 -0.7692  0.6019
   12SAPS     P 1476   4.166   1.649   6.143  0.1649  0.4561  0.3832
   12SAPS   O13 1477   4.033   1.590   6.186 -0.4070  0.7570 -0.1392
   12SAPS   O14 1478   4.283   1.575   6.183  0.3647  0.4224 -0.0418
   12SAPS   O12 1479   4.171   1.676   5.986 -0.0776  0.1666 -0.0596
   12SAPS   O11 1480   4.189   1.800   6.204  0.2139  0.5839  0.0650
   12SAPS    C1 1481   4.092   1.842   6.301  0.0922  0.6331 -0.0186
   12SAPS    HA 1482   4.092   1.952   6.284  0.0635  0.4382 -1.3342
   12SAPS    HB 1483   3.989   1.801   6.300 -0.1691  1.2676  0.5009
   12SAPS    C2 1484   4.156   1.826   6.437 -0.1880  0.7758  0.5342
   12SAPS    HS 1485   4.264   1.848   6.425 -0.3020  1.6666  1.0900
   12SAPS   O21 1486   4.126   1.696   6.486 -0.2806  0.1203  0.1644
   12SAPS   C21 1487   4.226   1.614   6.524  0.4519  0.0650 -0.6202
   12SAPS   O22 1488   4.339   1.645   6.526 -0.5696 -0.0455  0.5724
   12SAPS   C22 1489   4.167   1.477   6.547  0.5167  0.8418  0.1024
   12SAPS   H2R 1490   4.091   1.478   6.628  0.5909 -1.1112  0.2238
   12SAPS   H2S 1491   4.118   1.441   6.454 -0.6406  0.4130  0.8599
   12SAPS    C3 1492   4.115   1.935   6.550 -0.1949 -0.3894  0.6112
   12SAPS    HX 1493   4.008   1.910   6.569 -1.4254  2.0539 -2.6042
   12SAPS    HY 1494   4.116   2.037   6.506  2.1382 -0.8547 -0.4649
   12SAPS   O31 1495   4.177   1.907   6.676  0.8241  0.0659 -0.4579
   12SAPS   C31 1496   4.302   1.952   6.675 -0.6407  0.6888 -0.2372
   12SAPS   O32 1497   4.357   2.002   6.577 -0.0331  0.4978 -0.6580
   12SAPS   C32 1498   4.355   1.941   6.814 -0.1706 -0.2359 -0.4987
   12SAPS   H2X 1499   4.278   1.989   6.879 -2.3416  0.9334 -3.7809
   12SAPS   H2Y 1500   4.449   1.999   6.820 -0.9841  0.9307  1.4550
   12SAPS   C23 1501   4.282   1.384   6.591  0.1922 -0.3920  0.2967
   12SAPS   H3R 1502   4.348   1.418   6.673 -0.8992  0.8685  0.6570
   12SAPS   H3S 1503   4.340   1.367   6.497  0.2394  0.0924  0.2359
   12SAPS   C24 1504   4.231   1.243   6.624 -0.3858  0.0726 -0.4853
   12SAPS   H4R 1505   4.164   1.183   6.559  0.2523 -2.8157  1.3879
   12SAPS   H4S 1506   4.175   1.253   6.719 -0.5944 -1.0782 -0.4749
   12SAPS   C25 1507   4.356   1.153   6.645 -0.0409 -0.5395  0.3863
   12SAPS   H5R 1508   4.378   1.095   6.554  1.3390  0.2410  0.2022
   12SAPS   C26 1509   4.425   1.136   6.764  0.2089  0.2692  0.8586
   12SAPS   H6R 1510   4.501   1.057   6.759 -1.3192 -1.1500 -0.7698
   12SAPS   C27 1511   4.400   1.200   6.896 -0.4224  0.2972 -0.7340
   12SAPS   H7R 1512   4.327   1.282   6.884  0.2338  0.9550 -0.2775
   12SAPS   H7S 1513   4.490   1.250   6.937 -0.1372 -1.4473  0.8979
   12SAPS   C28 1514   4.353   1.094   6.993 -0.0867  0.3665 -0.5328
   12SAPS   H8R 1515   4.345   0.992   6.953 -0.9143  0.0612  0.4144
   12SAPS   C29 1516   4.325   1.124   7.119 -0.4094  0.5003 -0.5368
   12SAPS   H9R 1517   4.306   1.043   7.192  2.4222 -0.4835 -0.8332
   12SAPS  C210 1518   4.327   1.267   7.180  0.3613 -0.4602  0.2507
   12SAPS  H10R 1519   4.242   1.284   7.250 -1.0564  0.7418 -1.7290
   12SAPS  H10S 1520   4.284   1.344   7.113  1.2030 -0.6507 -0.5123
   12SAPS  C211 1521   4.458   1.314   7.235 -0.0206 -0.5608 -0.8667
   12SAPS  H11R 1522   4.522   1.354   7.155 -0.2887  0.9476 -0.3301
   12SAPS  C212 1523   4.512   1.285   7.357 -0.2686 -0.3430  0.1439
   12SAPS  H12R 1524   4.615   1.318   7.377 -0.2408  0.1714 -0.8188
   12SAPS  C213 1525   4.444   1.205   7.465 -0.0476 -0.6823 -0.5902
   12SAPS  H13R 1526   4.337   1.179   7.449 -0.1026 -0.7900 -0.0659
   12SAPS  H13S 1527   4.431   1.282   7.544 -0.0813 -1.6002  0.3042
   12SAPS  C214 1528   4.521   1.085   7.512 -0.0732  0.4382  0.3206
   12SAPS  H14R 1529   4.608   1.058   7.450 -1.9376 -1.4188 -1.5918
   12SAPS  C215 1530   4.496   1.026   7.635 -0.1016  0.4069 -0.0601
   12SAPS  H15R 1531   4.555   0.938   7.665 -0.9799 -0.3633 -0.5673
   12SAPS  C216 1532   4.378   1.073   7.723 -0.5931 -0.1473 -0.1828
   12SAPS  H16R 1533   4.319   1.161   7.689 -0.1056  0.8295  1.4252
   12SAPS  H16S 1534   4.424   1.100   7.821  0.6279  1.3464 -1.1410
   12SAPS  C217 1535   4.266   0.965   7.735  0.8218 -0.0118  0.3669
   12SAPS  H17R 1536   4.247   0.931   7.631 -1.2023  0.9751  0.3804
   12SAPS  H17S 1537   4.168   1.002   7.773  2.1570  1.8609  2.1100
   12SAPS  C218 1538   4.296   0.855   7.829  0.1480 -0.3161 -0.3060
   12SAPS  H18R 1539   4.388   0.808   7.787  0.0851  1.7592 -2.8912
   12SAPS  H18S 1540   4.209   0.787   7.830  0.2187 -0.4196  2.0925
   12SAPS  C219 1541   4.308   0.896   7.978 -0.9064  0.0469 -0.3042
   12SAPS  H19R 1542   4.216   0.951   8.006 -0.9677 -0.7484  1.1065
   12SAPS  H19S 1543   4.396   0.961   7.991 -1.1803  0.0923  1.4276
   12SAPS  C220 1544   4.323   0.773   8.075 -0.0837 -0.1839 -0.0348
   12SAPS  H20R 1545   4.232   0.711   8.054  0.4187 -0.7586 -0.5445
   12SAPS  H20S 1546   4.306   0.819   8.174  0.6636 -0.1791  0.0877
   12SAPS  H20T 1547   4.417   0.716   8.060  1.4808  1.8127  1.9208
   12SAPS   C33 1548   4.378   1.801   6.858  0.2288 -0.0298 -1.1019
   12SAPS   H3X 1549   4.432   1.751   6.775  0.5824  0.6172 -1.2585
   12SAPS   H3Y 1550   4.286   1.740   6.873 -0.0402  0.7370  0.4842
   12SAPS   C34 1551   4.464   1.791   6.984 -0.6835 -0.2108  0.2638
   12SAPS   H4X 1552   4.559   1.841   6.956 -0.6083 -0.7418 -0.4430
   12SAPS   H4Y 1553   4.492   1.683   6.989  2.0934  0.4405 -0.5150
   12SAPS   C35 1554   4.402   1.840   7.126 -0.2730 -0.6750  0.4174
   12SAPS   H5X 1555   4.336   1.758   7.163 -0.8054 -0.7564 -0.7075
   12SAPS   H5Y 1556   4.340   1.931   7.114 -0.0736 -0.9047 -2.8130
   12SAPS   C36 1557   4.518   1.850   7.224  0.4758  0.1363  0.1614
   12SAPS   H6X 1558   4.596   1.924   7.197 -0.0934  0.4859 -0.5468
   12SAPS   H6Y 1559   4.579   1.758   7.213 -0.4505 -0.3625 -0.9234
   12SAPS   C37 1560   4.479   1.887   7.367  0.0925  0.8157 -0.6032
   12SAPS   H7X 1561   4.380   1.848   7.398 -0.2647  0.5099 -2.0896
   12SAPS   H7Y 1562   4.460   1.996   7.381  1.8770  1.3581 -2.1305
   12SAPS   C38 1563   4.597   1.861   7.466  0.5916 -0.0090 -0.0148
   12SAPS   H8X 1564   4.695   1.879   7.417  1.7243 -4.3725  0.4427
   12SAPS   H8Y 1565   4.588   1.755   7.500  0.8689 -0.3864 -1.1000
   12SAPS   C39 1566   4.582   1.929   7.594  0.2386 -0.6968  0.4114
   12SAPS   H9X 1567   4.549   2.033   7.571  0.6861  0.1318  3.2982
   12SAPS   H9Y 1568   4.674   1.933   7.657 -0.6805 -1.8059  1.8734
   12SAPS  C310 1569   4.475   1.861   7.688  0.3817 -0.2851 -0.2132
   12SAPS  H10X 1570   4.506   1.755   7.682  0.8990 -0.2295  1.2007
   12SAPS  H10Y 1571   4.370   1.862   7.652  0.1836  0.5307  0.3587
   12SAPS  C311 1572   4.482   1.926   7.833 -0.6176 -0.0391 -0.6676
   12SAPS  H11X 1573   4.461   2.035   7.822 -2.8843 -0.2682  0.9807
   12SAPS  H11Y 1574   4.588   1.921   7.863 -0.1584 -0.0218 -2.2327
   12SAPS  C312 1575   4.396   1.862   7.945  0.0908 -0.3918 -0.0459
   12SAPS  H12X 1576   4.434   1.767   7.987 -1.9303 -1.9370 -1.5907
   12SAPS  H12Y 1577   4.295   1.859   7.900  0.7972  3.3937 -2.1038
   12SAPS  C313 1578   4.363   1.954   8.058  0.1858 -0.1398 -0.3620
   12SAPS  H13X 1579   4.300   1.897   8.129  1.3647 -2.2333 -0.9618
   12SAPS  H13Y 1580   4.302   2.039   8.019  2.1384  1.0464 -0.9044
   12SAPS  C314 1581   4.484   2.009   8.126 -0.8049 -0.2201 -0.2626
   12SAPS  H14X 1582   4.458   2.067   8.217 -0.1560 -0.2080 -0.0851
   12SAPS  H14Y 1583   4.546   2.067   8.054 -1.5316  2.6909  1.3736
   12SAPS  C315 1584   4.598   1.918   8.174  0.2938  0.6175 -0.1106
   12SAPS  H15X 1585   4.627   1.844   8.097 -1.7042 -1.3290  0.9519
   12SAPS  H15Y 1586   4.569   1.867   8.268 -1.4791  1.4985 -0.1445
   12SAPS  C316 1587   4.731   1.988   8.204  0.0783 -0.2525 -0.0243
   12SAPS  H16X 1588   4.750   2.058   8.119 -2.0341  0.9696  0.4767
   12SAPS  H16Y 1589   4.811   1.912   8.216  1.4404  1.5246  2.8215
   12SAPS  C317 1590   4.730   2.073   8.335 -0.3838 -0.5356 -0.1398
   12SAPS  H17X 1591   4.662   2.161   8.337  0.4064  0.0670  1.3053
   12SAPS  H17Y 1592   4.833   2.115   8.334 -0.4245 -0.4464 -3.3175
   12SAPS  C318 1593   4.714   2.006   8.474 -0.1543 -0.0984 -0.2457
   12SAPS  H18X 1594   4.609   2.005   8.508  0.2960 -0.2245  1.1971
   12SAPS  H18Y 1595   4.771   2.054   8.557 -0.6673 -0.7426  0.4821
   12SAPS  H18Z 1596   4.748   1.900   8.482  0.1693 -0.1267 -1.9661
   13SAPS     N 1597   5.239   6.166   6.265  0.8183 -0.0583  0.1265
   13SAPS   HN1 1598   5.211   6.167   6.365  0.7979  0.7125  0.1110
   13SAPS   HN2 1599   5.228   6.068   6.232  0.9621  0.2427 -0.8240
   13SAPS   HN3 1600   5.335   6.204   6.253  0.9026 -0.1489  0.4923
   13SAPS   C12 1601   5.144   6.235   6.179  0.4353 -0.3969  0.9758
   13SAPS  H12A 1602   5.061   6.272   6.238 -1.5813  0.0021 -2.0190
   13SAPS   C13 1603   5.210   6.345   6.095 -0.2008 -0.0949  0.2170
   13SAPS  O13A 1604   5.328   6.377   6.114 -0.5328 -0.8090 -0.1495
   13SAPS  O13B 1605   5.141   6.399   6.002 -0.0658  0.2027 -0.0385
   13SAPS   C11 1606   5.081   6.125   6.092  0.8605  0.0117 -0.0516
   13SAPS  H11A 1607   5.166   6.084   6.034 -0.7744 -1.1241 -1.6876
   13SAPS  H11B 1608   5.011   6.176   6.023  3.0528 -0.3596 -2.6320
   13SAPS     P 1609   4.868   5.980   6.160 -0.1472 -0.5816 -0.0683
   13SAPS   O13 1610   4.790   6.107   6.138  0.1822  0.1034 -0.1488
   13SAPS   O14 1611   4.845   5.864   6.074  0.5016  0.0879 -0.1612
   13SAPS   O12 1612   5.024   6.022   6.166 -0.3270 -0.3508  0.2565
   13SAPS   O11 1613   4.828   5.936   6.306 -0.3035  0.2012 -0.4062
   13SAPS    C1 1614   4.928   5.938   6.406 -0.3265  0.3389  0.2259
   13SAPS    HA 1615   5.015   5.874   6.380  0.9469  1.4286  1.6622
   13SAPS    HB 1616   4.976   6.036   6.428 -0.2042  0.0251  1.4192
   13SAPS    C2 1617   4.868   5.867   6.526 -0.1029 -0.5704 -0.2387
   13SAPS    HS 1618   4.808   5.781   6.488 -0.7417 -1.0572  1.8066
   13SAPS   O21 1619   4.789   5.962   6.603 -0.2567 -0.0438  0.0713
   13SAPS   C21 1620   4.688   5.903   6.662 -0.0051 -0.0644  0.0166
   13SAPS   O22 1621   4.653   5.788   6.638 -0.0647  0.0329  0.6451
   13SAPS   C22 1622   4.627   6.000   6.769 -0.0625  0.7585 -0.2968
   13SAPS   H2R 1623   4.690   5.998   6.860 -1.1175 -0.2144  0.4430
   13SAPS   H2S 1624   4.643   6.102   6.730 -0.6791  1.5374  1.4349
   13SAPS    C3 1625   4.987   5.820   6.617  0.0179  0.1236 -0.3596
   13SAPS    HX 1626   5.065   5.899   6.623  0.7878 -0.5655 -1.1880
   13SAPS    HY 1627   5.044   5.731   6.582 -0.5429  0.3480 -1.8984
   13SAPS   O31 1628   4.940   5.801   6.749  0.0774  0.1306  0.3754
   13SAPS   C31 1629   4.908   5.677   6.789 -0.1359 -0.8293  0.3243
   13SAPS   O32 1630   4.918   5.574   6.729  0.1594  0.1819 -0.1649
   13SAPS   C32 1631   4.848   5.691   6.930 -0.3334 -0.2115  0.0038
   13SAPS   H2X 1632   4.814   5.794   6.953 -0.4222 -0.7085  2.1762
   13SAPS   H2Y 1633   4.929   5.671   7.003  0.1181  0.8751 -0.1949
   13SAPS   C23 1634   4.476   5.978   6.803  0.4025 -0.2328  0.0594
   13SAPS   H3R 1635   4.422   5.988   6.707  1.5276 -0.7754 -0.6433
   13SAPS   H3S 1636   4.439   6.066   6.859  3.8414 -0.2426  2.5198
   13SAPS   C24 1637   4.451   5.848   6.877 -0.5052  0.3188  0.7478
   13SAPS   H4R 1638   4.519   5.836   6.964 -0.2633 -1.6034  0.3023
   13SAPS   H4S 1639   4.470   5.760   6.813 -1.2224  1.7484 -1.4840
   13SAPS   C25 1640   4.307   5.842   6.913 -0.6949  0.0411 -0.5659
   13SAPS   H5R 1641   4.243   5.858   6.826 -1.5043  0.6034  0.1197
   13SAPS   C26 1642   4.255   5.819   7.031  0.1853 -0.2793 -1.0289
   13SAPS   H6R 1643   4.147   5.801   7.046  0.9663 -3.4555  1.4662
   13SAPS   C27 1644   4.330   5.793   7.160 -0.8699  0.2156 -0.4825
   13SAPS   H7R 1645   4.424   5.738   7.140 -0.1955  0.5166  1.6802
   13SAPS   H7S 1646   4.272   5.718   7.217  2.2238 -1.5205  0.4376
   13SAPS   C28 1647   4.352   5.912   7.252  0.6927 -0.4699  0.4871
   13SAPS   H8R 1648   4.420   5.977   7.195 -0.7811  0.4500 -0.2427
   13SAPS   C29 1649   4.298   5.949   7.370 -0.1834 -0.4461 -0.2134
   13SAPS   H9R 1650   4.318   6.045   7.420  0.4670  1.0963 -3.3192
   13SAPS  C210 1651   4.201   5.854   7.446  0.8527  0.7399  0.1946
   13SAPS  H10R 1652   4.253   5.770   7.497  1.8180  1.8910  1.1641
   13SAPS  H10S 1653   4.132   5.814   7.369  1.0970  1.1907 -0.2686
   13SAPS  C211 1654   4.140   5.931   7.563 -0.7915 -0.0403 -0.3832
   13SAPS  H11R 1655   4.058   5.999   7.537  1.3351  2.4570 -0.7721
   13SAPS  C212 1656   4.156   5.910   7.693  0.4998  0.6550  0.0485
   13SAPS  H12R 1657   4.096   5.977   7.756 -2.5658 -1.3955 -0.6002
   13SAPS  C213 1658   4.250   5.815   7.757  0.3080 -0.4193  0.4973
   13SAPS  H13R 1659   4.300   5.744   7.688  1.2919  1.6288 -0.9212
   13SAPS  H13S 1660   4.189   5.745   7.819 -0.4052 -0.4657 -0.2486
   13SAPS  C214 1661   4.338   5.887   7.855 -1.1755 -0.9622 -0.3689
   13SAPS  H14R 1662   4.421   5.946   7.814  1.2475 -1.7774  3.1362
   13SAPS  C215 1663   4.339   5.881   7.989 -0.2475 -1.0697  0.4650
   13SAPS  H15R 1664   4.420   5.934   8.041  0.9997 -1.9401 -0.5542
   13SAPS  C216 1665   4.247   5.805   8.085 -0.0825  0.5551 -0.1771
   13SAPS  H16R 1666   4.322   5.757   8.151 -0.4693  0.7475  0.3982
   13SAPS  H16S 1667   4.185   5.722   8.043 -0.4843  0.9594 -0.3843
   13SAPS  C217 1668   4.161   5.892   8.175 -0.2678 -0.8500 -0.4756
   13SAPS  H17R 1669   4.063   5.923   8.134  0.1303 -0.7263 -1.3510
   13SAPS  H17S 1670   4.224   5.984   8.187 -1.7724  0.4130 -2.1325
   13SAPS  C218 1671   4.133   5.836   8.318  0.2184 -0.3161 -0.6702
   13SAPS  H18R 1672   4.227   5.797   8.363  0.6404  0.2150 -1.0911
   13SAPS  H18S 1673   4.071   5.745   8.306 -0.2342 -0.2477  0.9441
   13SAPS  C219 1674   4.071   5.940   8.405  0.1538  0.0650 -0.1965
   13SAPS  H19R 1675   3.979   5.972   8.350 -0.3225 -0.8784  0.0405
   13SAPS  H19S 1676   4.131   6.034   8.413  0.7691 -0.3674  0.2965
   13SAPS  C220 1677   4.043   5.887   8.542  0.2285 -0.1550 -0.3324
   13SAPS  H20R 1678   4.137   5.873   8.598  0.8630  2.5181 -0.6295
   13SAPS  H20S 1679   3.983   5.794   8.539 -0.6963  0.3437  1.9958
   13SAPS  H20T 1680   3.978   5.954   8.603  0.9644  0.6002 -0.3598
   13SAPS   C33 1681   4.741   5.587   6.967  0.6521  0.7601  0.1200
   13SAPS   H3X 1682   4.788   5.487   6.978 -0.6205  0.2112  0.6783
   13SAPS   H3Y 1683   4.671   5.577   6.881 -1.6053  1.0041  1.9117
   13SAPS   C34 1684   4.658   5.613   7.092 -0.0032 -0.0156  0.0934
   13SAPS   H4X 1685   4.563   5.558   7.076  0.0369 -0.2808  0.7766
   13SAPS   H4Y 1686   4.634   5.721   7.102 -0.7504 -0.2369  0.7512
   13SAPS   C35 1687   4.723   5.560   7.215  0.0137  0.1695 -0.1419
   13SAPS   H5X 1688   4.829   5.585   7.234  0.4696 -1.7960  0.0621
   13SAPS   H5Y 1689   4.724   5.449   7.216 -0.2301  0.1003 -3.2981
   13SAPS   C36 1690   4.647   5.607   7.335  0.2882 -0.1746 -0.6790
   13SAPS   H6X 1691   4.540   5.592   7.312  0.1598 -0.2619 -0.0144
   13SAPS   H6Y 1692   4.655   5.715   7.360 -0.2198 -0.4538  0.6759
   13SAPS   C37 1693   4.680   5.520   7.460 -0.4505 -0.7136  0.0416
   13SAPS   H7X 1694   4.789   5.542   7.471 -0.5232  0.1732 -0.9806
   13SAPS   H7Y 1695   4.668   5.410   7.445  2.0335 -1.1926  1.1930
   13SAPS   C38 1696   4.614   5.576   7.588 -0.3594 -0.1856 -0.1652
   13SAPS   H8X 1697   4.506   5.558   7.571 -0.3442 -0.6368  0.2162
   13SAPS   H8Y 1698   4.620   5.685   7.610  0.2375  0.1481 -1.9450
   13SAPS   C39 1699   4.658   5.513   7.716  0.3076  0.3475 -0.6802
   13SAPS   H9X 1700   4.763   5.538   7.741  1.2471 -0.2282 -3.8181
   13SAPS   H9Y 1701   4.668   5.406   7.690 -1.6879  0.0471 -0.2931
   13SAPS  C310 1702   4.561   5.527   7.837 -0.3263  0.1612 -0.8170
   13SAPS  H10X 1703   4.475   5.458   7.824 -1.0188  0.7944  0.2404
   13SAPS  H10Y 1704   4.518   5.628   7.854 -0.7765 -0.1749  0.0869
   13SAPS  C311 1705   4.615   5.467   7.967 -0.1105  0.1615  0.4163
   13SAPS  H11X 1706   4.708   5.408   7.951 -1.2968 -0.6261 -4.6204
   13SAPS  H11Y 1707   4.547   5.387   8.006  1.1057 -1.5584 -0.8777
   13SAPS  C312 1708   4.648   5.577   8.063  0.2841  0.1733  0.2609
   13SAPS  H12X 1709   4.560   5.612   8.121  0.2132 -1.7103  1.3385
   13SAPS  H12Y 1710   4.692   5.662   8.007 -3.2675  0.8915 -1.5932
   13SAPS  C313 1711   4.748   5.533   8.167  0.5348 -0.0582 -0.1569
   13SAPS  H13X 1712   4.840   5.501   8.115 -0.1532 -1.0722 -0.7625
   13SAPS  H13Y 1713   4.715   5.436   8.208  1.1379 -0.2547 -0.1434
   13SAPS  C314 1714   4.752   5.633   8.276 -0.4429 -0.2180 -0.5444
   13SAPS  H14X 1715   4.751   5.734   8.230 -0.0997  0.3716  0.7281
   13SAPS  H14Y 1716   4.853   5.619   8.321 -0.7992  2.9321  1.3772
   13SAPS  C315 1717   4.638   5.616   8.377  0.0056 -0.5101 -0.1343
   13SAPS  H15X 1718   4.646   5.510   8.411 -0.4868 -0.7460 -0.7482
   13SAPS  H15Y 1719   4.539   5.630   8.328 -0.7583  2.8628  2.2285
   13SAPS  C316 1720   4.647   5.719   8.493  0.1408  0.1077 -0.0620
   13SAPS  H16X 1721   4.646   5.823   8.454 -1.9562  0.5097  1.0234
   13SAPS  H16Y 1722   4.743   5.701   8.547 -0.5934 -1.7334  0.6540
   13SAPS  C317 1723   4.535   5.713   8.600 -0.4036 -0.3730  0.7586
   13SAPS  H17X 1724   4.437   5.713   8.548 -0.0728 -0.6281  0.1335
   13SAPS  H17Y 1725   4.544   5.807   8.658  2.6224 -0.5229  0.6413
   13SAPS  C318 1726   4.534   5.579   8.674  0.4989 -0.2275  0.3071
   13SAPS  H18X 1727   4.476   5.501   8.620 -3.2123 -0.4031  4.3358
   13SAPS  H18Y 1728   4.478   5.590   8.769  0.4896  4.2142 -0.1006
   13SAPS  H18Z 1729   4.640   5.559   8.701 -0.1173  0.1746  3.0864
   14SAPS     N 1730   5.168   1.415   5.922 -0.7608 -1.0887  0.7781
   14SAPS   HN1 1731   5.134   1.364   6.005 -1.7334  0.7286  1.5413
   14SAPS   HN2 1732   5.207   1.349   5.852  1.2397 -0.0492  0.8740
   14SAPS   HN3 1733   5.249   1.469   5.961 -0.2778 -0.3638 -1.1499
   14SAPS   C12 1734   5.061   1.499   5.871  0.6433  0.1601 -0.2570
   14SAPS  H12A 1735   5.035   1.574   5.944 -1.7758 -1.0437  0.1690
   14SAPS   C13 1736   5.083   1.577   5.734 -0.2061  0.5228  0.2729
   14SAPS  O13A 1737   5.185   1.547   5.663  0.0362 -0.0144 -0.1123
   14SAPS  O13B 1738   4.999   1.663   5.700 -0.2859  0.1775  0.5578
   14SAPS   C11 1739   4.934   1.413   5.840 -0.4709  0.2906  0.0636
   14SAPS  H11A 1740   4.943   1.360   5.743 -0.9901  0.3171  0.0015
   14SAPS  H11B 1741   4.845   1.478   5.826 -0.9844 -0.7710 -1.6837
   14SAPS     P 1742   4.817   1.205   5.929 -0.4261  0.2528 -0.3350
   14SAPS   O13 1743   4.676   1.246   5.898 -0.5457  0.3548 -0.4812
   14SAPS   O14 1744   4.883   1.115   5.827  0.1528 -0.2143 -0.1894
   14SAPS   O12 1745   4.906   1.333   5.956 -0.6923 -0.3211  0.3650
   14SAPS   O11 1746   4.828   1.131   6.066 -0.2755  0.1928  0.4429
   14SAPS    C1 1747   4.825   1.195   6.195 -0.2540  0.4169 -0.0105
   14SAPS    HA 1748   4.917   1.172   6.251 -0.8924 -1.7811  0.2057
   14SAPS    HB 1749   4.820   1.306   6.191  0.2132  0.4997  1.5876
   14SAPS    C2 1750   4.698   1.138   6.273 -0.7647  0.0584 -0.2751
   14SAPS    HS 1751   4.608   1.179   6.223 -0.8178 -0.4866 -0.6237
   14SAPS   O21 1752   4.707   1.175   6.408 -0.2949  0.4184  0.1926
   14SAPS   C21 1753   4.677   1.297   6.439 -0.6594 -0.0916 -0.8789
   14SAPS   O22 1754   4.636   1.380   6.365 -0.1283  0.4030  0.1069
   14SAPS   C22 1755   4.711   1.316   6.585  0.0337 -0.5130  0.1952
   14SAPS   H2R 1756   4.654   1.237   6.638 -1.6144 -0.7855 -1.8894
   14SAPS   H2S 1757   4.818   1.289   6.591  0.8615  2.9494  1.8736
   14SAPS    C3 1758   4.696   0.980   6.255 -0.2482 -0.4815 -0.3878
   14SAPS    HX 1759   4.802   0.946   6.258  0.0530  0.5127  1.5193
   14SAPS    HY 1760   4.655   0.972   6.152  1.7340  1.6422 -1.3993
   14SAPS   O31 1761   4.612   0.918   6.350  0.6745 -0.2371 -0.1769
   14SAPS   C31 1762   4.663   0.810   6.406  0.5331 -0.1314  0.3475
   14SAPS   O32 1763   4.759   0.752   6.371  0.2266  0.6337  0.5650
   14SAPS   C32 1764   4.586   0.775   6.528  0.3326  0.1865 -0.1308
   14SAPS   H2X 1765   4.574   0.664   6.533  1.3096  0.1525  1.7287
   14SAPS   H2Y 1766   4.477   0.793   6.521  0.8193  3.7554  0.6049
   14SAPS   C23 1767   4.697   1.459   6.650  0.2609  0.6377  0.1904
   14SAPS   H3R 1768   4.590   1.486   6.651  0.3205  0.9023  1.9129
   14SAPS   H3S 1769   4.752   1.537   6.593  0.8171  0.3534  0.3329
   14SAPS   C24 1770   4.761   1.473   6.787  0.3964 -0.0855 -0.1955
   14SAPS   H4R 1771   4.745   1.379   6.844 -1.0823  0.2531 -0.0234
   14SAPS   H4S 1772   4.705   1.554   6.838 -0.0871 -0.8384  0.4855
   14SAPS   C25 1773   4.908   1.508   6.777  0.4748 -0.4055  0.5383
   14SAPS   H5R 1774   4.974   1.425   6.745  1.1095 -0.5292  2.1214
   14SAPS   C26 1775   4.960   1.632   6.804  0.1172  0.2779  0.4647
   14SAPS   H6R 1776   5.067   1.651   6.793 -0.3389  1.9272 -1.4645
   14SAPS   C27 1777   4.885   1.757   6.835 -0.0278  0.3370 -0.4249
   14SAPS   H7R 1778   4.795   1.746   6.771 -1.1719 -0.5639  1.2970
   14SAPS   H7S 1779   4.938   1.849   6.800 -0.1386  0.4576 -0.2755
   14SAPS   C28 1780   4.832   1.766   6.978  0.5382 -0.0873  0.1818
   14SAPS   H8R 1781   4.830   1.675   7.039 -0.7270 -1.2334 -1.5182
   14SAPS   C29 1782   4.829   1.879   7.051 -0.0622  0.3565  0.5030
   14SAPS   H9R 1783   4.794   1.870   7.155  0.7235 -1.8582  0.6045
   14SAPS  C210 1784   4.864   2.021   7.010 -0.4182 -0.5723 -0.2999
   14SAPS  H10R 1785   4.944   2.029   6.934 -0.6337 -0.6642 -0.5375
   14SAPS  H10S 1786   4.887   2.080   7.102  4.7410 -1.0027 -1.2088
   14SAPS  C211 1787   4.748   2.091   6.928  0.2392  0.3266 -0.6460
   14SAPS  H11R 1788   4.716   2.029   6.843 -1.1809 -2.5382  1.8767
   14SAPS  C212 1789   4.691   2.210   6.957  0.1811  0.2904  0.1867
   14SAPS  H12R 1790   4.625   2.244   6.875 -2.7593 -0.2792  2.2583
   14SAPS  C213 1791   4.713   2.302   7.081 -0.2500  1.1119  0.1126
   14SAPS  H13R 1792   4.696   2.407   7.048  2.3137  1.7852  0.7747
   14SAPS  H13S 1793   4.820   2.300   7.109  0.0101 -0.5750 -0.9056
   14SAPS  C214 1794   4.633   2.252   7.197  0.1747 -0.1407  0.6703
   14SAPS  H14R 1795   4.527   2.236   7.176  0.0697  1.2063  0.1068
   14SAPS  C215 1796   4.689   2.243   7.320  0.1510 -0.2156  0.2120
   14SAPS  H15R 1797   4.617   2.199   7.391  0.1316  0.9271  0.9092
   14SAPS  C216 1798   4.829   2.269   7.373  0.5834  0.3284 -0.2145
   14SAPS  H16R 1799   4.846   2.379   7.378  1.8757  0.1259  0.0058
   14SAPS  H16S 1800   4.899   2.230   7.297 -0.3779 -0.2011 -0.8346
   14SAPS  C217 1801   4.853   2.212   7.514  0.2004 -0.4758  0.1717
   14SAPS  H17R 1802   4.843   2.101   7.515 -0.0144 -0.4759  4.1279
   14SAPS  H17S 1803   4.779   2.245   7.589 -1.7979  0.9552 -2.3448
   14SAPS  C218 1804   4.988   2.265   7.557 -0.4029 -0.5924  0.2655
   14SAPS  H18R 1805   5.013   2.372   7.541 -0.2547 -0.8710 -1.3567
   14SAPS  H18S 1806   5.061   2.201   7.505  0.8566 -0.4120  1.7662
   14SAPS  C219 1807   5.018   2.231   7.702 -0.6038 -0.0327  0.0969
   14SAPS  H19R 1808   5.125   2.260   7.713 -0.6661  0.1003  0.3543
   14SAPS  H19S 1809   4.993   2.123   7.709  0.3752 -0.3056 -0.4919
   14SAPS  C220 1810   4.925   2.294   7.803  0.0362 -0.5257  0.3808
   14SAPS  H20R 1811   4.889   2.392   7.766  1.6040  0.5159  1.5634
   14SAPS  H20S 1812   4.972   2.331   7.896  1.0317  1.2025 -0.7845
   14SAPS  H20T 1813   4.835   2.234   7.828  0.1192 -1.0307 -0.5017
   14SAPS   C33 1814   4.654   0.829   6.654  0.6880  0.4671 -0.4746
   14SAPS   H3X 1815   4.654   0.938   6.678  0.4893  0.7398 -1.6904
   14SAPS   H3Y 1816   4.759   0.796   6.668  0.3474 -0.2679  0.3442
   14SAPS   C34 1817   4.576   0.765   6.777 -0.1578  0.0414  0.0405
   14SAPS   H4X 1818   4.587   0.655   6.777 -0.8703 -0.0338 -0.4721
   14SAPS   H4Y 1819   4.467   0.782   6.764 -0.7096 -2.1962  1.3882
   14SAPS   C35 1820   4.624   0.802   6.917  0.6702  0.7048 -0.6972
   14SAPS   H5X 1821   4.620   0.909   6.945 -2.4160  0.7512 -1.1546
   14SAPS   H5Y 1822   4.729   0.768   6.923  0.7865  0.7970 -1.9986
   14SAPS   C36 1823   4.532   0.735   7.025  0.0215  0.6977  0.1099
   14SAPS   H6X 1824   4.563   0.628   7.032  0.3980  0.8826  1.4288
   14SAPS   H6Y 1825   4.423   0.735   7.001  0.5276 -0.2786 -2.3698
   14SAPS   C37 1826   4.547   0.801   7.166  0.8496 -0.3330 -0.0711
   14SAPS   H7X 1827   4.458   0.768   7.223  2.1394 -2.8616  0.5602
   14SAPS   H7Y 1828   4.553   0.909   7.143  0.8733  0.0139  1.5032
   14SAPS   C38 1829   4.663   0.740   7.236  0.3107 -0.4186  0.1618
   14SAPS   H8X 1830   4.754   0.796   7.205  0.0136 -0.3300 -0.5444
   14SAPS   H8Y 1831   4.666   0.633   7.208 -1.3176 -0.7618  1.2711
   14SAPS   C39 1832   4.664   0.773   7.383  0.0378 -0.1818 -0.6394
   14SAPS   H9X 1833   4.559   0.784   7.420 -0.2319  2.5916 -2.1099
   14SAPS   H9Y 1834   4.720   0.864   7.412  1.4621 -1.2917  0.1622
   14SAPS  C310 1835   4.732   0.662   7.475  0.4247  0.6735 -0.9202
   14SAPS  H10X 1836   4.842   0.669   7.467  0.6979 -0.5064  1.4197
   14SAPS  H10Y 1837   4.716   0.562   7.428  1.4938  0.0170  0.1008
   14SAPS  C311 1838   4.686   0.664   7.623 -0.1027 -0.7885  0.1564
   14SAPS  H11X 1839   4.686   0.565   7.672  0.9390 -0.8437  0.0508
   14SAPS  H11Y 1840   4.578   0.690   7.625  0.2528  0.9316 -1.2718
   14SAPS  C312 1841   4.758   0.764   7.716  0.2133 -0.2858 -1.1816
   14SAPS  H12X 1842   4.742   0.867   7.678 -0.9725  0.4069  1.0969
   14SAPS  H12Y 1843   4.869   0.756   7.717  0.1910 -0.7249 -1.8920
   14SAPS  C313 1844   4.704   0.756   7.856 -0.4157 -0.3291 -0.2145
   14SAPS  H13X 1845   4.722   0.649   7.883 -2.8295 -0.0596  2.6122
   14SAPS  H13Y 1846   4.594   0.765   7.852 -0.2725  1.8589  0.1919
   14SAPS  C314 1847   4.771   0.850   7.955  0.3702 -0.1789  0.0458
   14SAPS  H14X 1848   4.818   0.931   7.895  1.5501 -1.4800 -0.8015
   14SAPS  H14Y 1849   4.844   0.818   8.031  1.3197 -0.3642 -0.9380
   14SAPS  C315 1850   4.667   0.923   8.040 -0.8641  0.4972  0.5135
   14SAPS  H15X 1851   4.592   0.867   8.100  2.1518 -2.0538  2.0524
   14SAPS  H15Y 1852   4.611   0.972   7.958 -0.7840 -0.9870 -0.4570
   14SAPS  C316 1853   4.742   1.006   8.145  0.3500 -0.6018  0.6268
   14SAPS  H16X 1854   4.829   1.054   8.095  0.7517 -1.4158  0.5431
   14SAPS  H16Y 1855   4.786   0.951   8.231 -0.3745  1.5187  2.4196
   14SAPS  C317 1856   4.649   1.110   8.218  0.2369 -0.1801  0.0239
   14SAPS  H17X 1857   4.593   1.168   8.142 -1.2904 -2.6200 -0.7535
   14SAPS  H17Y 1858   4.723   1.182   8.260 -1.9764  1.4892  1.1129
   14SAPS  C318 1859   4.556   1.057   8.326 -0.0236  0.1726 -0.1882
   14SAPS  H18X 1860   4.504   0.973   8.275  1.6765 -1.2508  0.3858
   14SAPS  H18Y 1861   4.479   1.132   8.356  1.1871  0.0339  3.5354
   14SAPS  H18Z 1862   4.618   1.021   8.411  0.3055  1.9697  0.3689
   15SAPS     N 1863   5.570   1.103   5.943 -0.0903  0.3025 -0.0654
   15SAPS   HN1 1864   5.582   1.079   6.044 -1.6266 -0.7626 -0.1303
   15SAPS   HN2 1865   5.572   1.011   5.896 -0.6623  0.8972 -1.2856
   15SAPS   HN3 1866   5.639   1.174   5.911 -0.1060 -0.5359 -2.0258
   15SAPS   C12 1867   5.425   1.158   5.917 -0.2243 -0.2674 -0.0864
   15SAPS  H12A 1868   5.411   1.250   5.971 -0.4730 -1.2804  1.6239
   15SAPS   C13 1869   5.399   1.177   5.761  0.4220  0.1681  0.4743
   15SAPS  O13A 1870   5.478   1.130   5.677  0.2501  0.9392  0.0956
   15SAPS  O13B 1871   5.293   1.237   5.727 -0.0376 -0.0249 -0.4812
   15SAPS   C11 1872   5.324   1.053   5.978 -0.0798 -0.0972  0.1178
   15SAPS  H11A 1873   5.354   0.954   5.937 -1.0590  0.6121 -2.3717
   15SAPS  H11B 1874   5.222   1.088   5.950  0.1030 -0.7786 -1.4564
   15SAPS     P 1875   5.269   1.143   6.217  0.2500  0.2944  0.1010
   15SAPS   O13 1876   5.366   1.177   6.324  0.0465  0.3989  0.3720
   15SAPS   O14 1877   5.209   1.257   6.144  0.1737 -0.4524  0.2218
   15SAPS   O12 1878   5.343   1.045   6.115  0.3102  0.1145  0.3485
   15SAPS   O11 1879   5.153   1.052   6.279  0.0865 -0.5821  0.5601
   15SAPS    C1 1880   5.201   0.938   6.353  0.1366  0.7071  0.2396
   15SAPS    HA 1881   5.238   0.853   6.291 -0.4571 -0.3878  1.3794
   15SAPS    HB 1882   5.288   0.962   6.418  0.0551 -0.7939  0.9057
   15SAPS    C2 1883   5.094   0.889   6.456  0.1826  0.2413  0.4051
   15SAPS    HS 1884   5.001   0.936   6.417 -0.3220  1.6266  3.1813
   15SAPS   O21 1885   5.133   0.926   6.585 -0.2798  0.1266 -0.0417
   15SAPS   C21 1886   5.034   0.955   6.667 -0.0051  0.7317  0.6694
   15SAPS   O22 1887   4.922   0.971   6.638  0.3774  0.2654  1.0048
   15SAPS   C22 1888   5.089   0.947   6.807  0.7635 -0.3137 -0.4621
   15SAPS   H2R 1889   5.156   0.858   6.812 -0.1904 -0.9368  2.3965
   15SAPS   H2S 1890   5.144   1.041   6.829  0.6858 -0.3941  0.0864
   15SAPS    C3 1891   5.099   0.730   6.439  0.2593 -0.4554 -0.1523
   15SAPS    HX 1892   5.198   0.681   6.452  1.0920  1.3152  0.3368
   15SAPS    HY 1893   5.065   0.709   6.336 -1.4085  1.3063  0.0000
   15SAPS   O31 1894   4.996   0.665   6.523 -0.2579 -0.6446  0.5559
   15SAPS   C31 1895   5.040   0.609   6.638 -0.4850  0.3609  0.6209
   15SAPS   O32 1896   5.158   0.596   6.671  0.1794 -0.0178 -1.0016
   15SAPS   C32 1897   4.925   0.582   6.736 -0.0964  0.1503 -0.3460
   15SAPS   H2X 1898   4.839   0.529   6.692  0.6284  0.0242 -1.6475
   15SAPS   H2Y 1899   4.889   0.682   6.768 -1.4437 -0.2204 -0.6716
   15SAPS   C23 1900   4.993   0.936   6.927 -0.4236 -0.0334  0.1275
   15SAPS   H3R 1901   5.056   0.914   7.016  0.6550 -2.4829 -1.1929
   15SAPS   H3S 1902   4.922   0.852   6.912  0.5977 -0.7526 -0.8318
   15SAPS   C24 1903   4.926   1.078   6.955  0.2915  0.4701 -0.9480
   15SAPS   H4R 1904   4.876   1.116   6.864  1.4968 -0.8254 -2.1642
   15SAPS   H4S 1905   5.013   1.146   6.966  1.5877 -1.1256 -1.1626
   15SAPS   C25 1906   4.842   1.087   7.076 -0.9033 -0.3824  0.0417
   15SAPS   H5R 1907   4.740   1.115   7.048 -0.2874 -0.5392 -2.4933
   15SAPS   C26 1908   4.873   1.079   7.208  0.1921  0.4901 -0.3292
   15SAPS   H6R 1909   4.793   1.091   7.283 -0.4207  1.7962 -1.1693
   15SAPS   C27 1910   5.006   1.052   7.270  0.3468 -0.8702  0.0656
   15SAPS   H7R 1911   5.087   1.030   7.198  0.5168 -1.7969  0.5249
   15SAPS   H7S 1912   4.998   0.963   7.337  1.2208  0.8039  2.4709
   15SAPS   C28 1913   5.039   1.169   7.353 -0.2738  0.0802 -0.3703
   15SAPS   H8R 1914   5.101   1.245   7.303 -0.4923  0.9238  0.6149
   15SAPS   C29 1915   5.006   1.195   7.476 -0.0632  0.7849  0.6793
   15SAPS   H9R 1916   5.050   1.276   7.537  0.4587  0.7761  0.3144
   15SAPS  C210 1917   4.931   1.095   7.565 -0.4749  0.2867 -0.1281
   15SAPS  H10R 1918   4.952   0.987   7.551 -0.0323  0.6707 -2.7159
   15SAPS  H10S 1919   4.821   1.105   7.549 -0.7745 -3.0441 -0.5680
   15SAPS  C211 1920   4.963   1.138   7.712 -0.3280 -0.6489 -0.2919
   15SAPS  H11R 1921   5.062   1.103   7.746  0.9717  1.3528 -1.8694
   15SAPS  C212 1922   4.889   1.203   7.808 -0.8211 -0.6278 -0.0677
   15SAPS  H12R 1923   4.936   1.228   7.904 -2.1636  1.1398  0.1282
   15SAPS  C213 1924   4.746   1.255   7.791 -0.1735  0.0511 -0.2080
   15SAPS  H13R 1925   4.688   1.266   7.884 -0.4212 -4.0736  0.2351
   15SAPS  H13S 1926   4.690   1.184   7.726 -0.5117  1.3236 -1.3308
   15SAPS  C214 1927   4.747   1.395   7.740  0.1346  0.2665  0.3358
   15SAPS  H14R 1928   4.816   1.416   7.658  1.4834  0.4041  1.4793
   15SAPS  C215 1929   4.694   1.505   7.797 -0.1892  0.1393  0.7132
   15SAPS  H15R 1930   4.704   1.604   7.749  0.0550 -0.8707 -1.3891
   15SAPS  C216 1931   4.622   1.509   7.929 -0.1419  0.3326  0.9221
   15SAPS  H16R 1932   4.563   1.418   7.952 -1.4438  0.7102 -0.8836
   15SAPS  H16S 1933   4.542   1.585   7.922 -2.3075 -1.8918  0.7956
   15SAPS  C217 1934   4.708   1.544   8.059  0.1242 -0.5394 -0.0069
   15SAPS  H17R 1935   4.730   1.653   8.059  2.1247 -0.8739  2.5465
   15SAPS  H17S 1936   4.799   1.480   8.062  0.6316  0.2024  0.5718
   15SAPS  C218 1937   4.633   1.522   8.194  0.2407 -1.0343 -0.2095
   15SAPS  H18R 1938   4.593   1.418   8.193 -0.2673 -0.8659  1.3321
   15SAPS  H18S 1939   4.545   1.590   8.194  0.8683 -0.2177  0.3379
   15SAPS  C219 1940   4.718   1.530   8.319 -0.4980 -0.7911 -0.3542
   15SAPS  H19R 1941   4.760   1.632   8.312 -1.3148 -0.5068 -1.2124
   15SAPS  H19S 1942   4.807   1.463   8.311  0.9706  1.0941 -0.1924
   15SAPS  C220 1943   4.642   1.517   8.449  0.2294  0.6696  0.0808
   15SAPS  H20R 1944   4.613   1.410   8.458  0.3607  0.6098 -0.1905
   15SAPS  H20S 1945   4.549   1.578   8.447  1.6954  2.9280 -2.1524
   15SAPS  H20T 1946   4.697   1.549   8.540  2.1448 -3.0014  0.2822
   15SAPS   C33 1947   4.973   0.520   6.870  0.0202  0.0071 -0.6577
   15SAPS   H3X 1948   5.057   0.579   6.913  1.2444  0.2095 -3.2511
   15SAPS   H3Y 1949   5.012   0.419   6.844 -2.6746 -1.3770  0.4922
   15SAPS   C34 1950   4.861   0.510   6.970  0.7845  0.0930 -0.4841
   15SAPS   H4X 1951   4.772   0.453   6.936 -0.7216  0.5087  2.5639
   15SAPS   H4Y 1952   4.819   0.612   6.986  0.6316 -0.0498  0.0229
   15SAPS   C35 1953   4.900   0.450   7.108 -0.5410 -0.0572 -0.7566
   15SAPS   H5X 1954   4.959   0.356   7.100  2.2226  1.3042  2.2825
   15SAPS   H5Y 1955   4.801   0.432   7.155 -0.8675  0.3174 -1.2962
   15SAPS   C36 1956   4.985   0.545   7.198  0.3096 -0.6391 -0.0338
   15SAPS   H6X 1957   4.940   0.647   7.198  0.3377 -0.6252 -0.8368
   15SAPS   H6Y 1958   5.080   0.574   7.148 -0.4154  1.1946 -0.4073
   15SAPS   C37 1959   5.017   0.484   7.340 -0.0841  0.6130  0.3885
   15SAPS   H7X 1960   5.058   0.382   7.326  0.2070  0.8817 -0.7443
   15SAPS   H7Y 1961   4.922   0.470   7.397  0.2781 -2.1107  0.3848
   15SAPS   C38 1962   5.126   0.556   7.425 -0.1095 -0.5135 -0.0549
   15SAPS   H8X 1963   5.075   0.655   7.434  0.2397 -0.0993 -2.3115
   15SAPS   H8Y 1964   5.225   0.556   7.373  0.1972  0.7367  0.5002
   15SAPS   C39 1965   5.151   0.496   7.568  0.7050 -0.2642 -0.0457
   15SAPS   H9X 1966   5.244   0.540   7.611 -0.1352  1.7568 -0.2356
   15SAPS   H9Y 1967   5.162   0.385   7.563 -1.8609 -0.5241 -0.2590
   15SAPS  C310 1968   5.035   0.537   7.661  0.1170 -0.3945  0.0114
   15SAPS  H10X 1969   4.945   0.529   7.595  0.3359  1.9907 -0.6010
   15SAPS  H10Y 1970   5.058   0.641   7.692  2.6800 -1.2761  1.1623
   15SAPS  C311 1971   5.035   0.451   7.786  1.1314 -0.0185 -0.4148
   15SAPS  H11X 1972   5.128   0.475   7.842 -0.0357 -1.0463  2.0276
   15SAPS  H11Y 1973   5.039   0.345   7.752 -1.3397 -0.5130  0.7253
   15SAPS  C312 1974   4.916   0.471   7.888  0.5042 -0.7116  0.2438
   15SAPS  H12X 1975   4.820   0.467   7.833  1.3159 -0.7343 -1.1958
   15SAPS  H12Y 1976   4.923   0.576   7.924 -0.0930  0.2081 -2.2269
   15SAPS  C313 1977   4.910   0.366   8.001 -0.2724  0.1557  0.1636
   15SAPS  H13X 1978   5.013   0.346   8.035  0.5538 -0.2545 -2.4833
   15SAPS  H13Y 1979   4.880   0.266   7.964  1.8250 -0.4569  0.0657
   15SAPS  C314 1980   4.823   0.406   8.120  0.1519 -0.1283  0.0122
   15SAPS  H14X 1981   4.802   0.320   8.187 -1.4036  1.3309  1.4357
   15SAPS  H14Y 1982   4.726   0.446   8.086 -0.2825 -0.7162  0.5417
   15SAPS  C315 1983   4.891   0.508   8.215 -0.1308  0.0943 -0.0905
   15SAPS  H15X 1984   4.961   0.575   8.161  2.8440 -0.9813  2.3004
   15SAPS  H15Y 1985   4.947   0.452   8.292 -0.5522  0.3009  0.3760
   15SAPS  C316 1986   4.775   0.601   8.273  0.4477  0.2455  0.8820
   15SAPS  H16X 1987   4.722   0.652   8.190  0.3341 -0.6966  0.3664
   15SAPS  H16Y 1988   4.820   0.668   8.349  2.9264  2.1462 -2.1595
   15SAPS  C317 1989   4.658   0.528   8.348  0.0510  0.4404 -0.7113
   15SAPS  H17X 1990   4.698   0.485   8.442  0.1572  3.5152  0.7296
   15SAPS  H17Y 1991   4.620   0.443   8.288 -1.6666  1.0885 -0.5761
   15SAPS  C318 1992   4.545   0.625   8.378 -0.5912 -0.5054  0.7033
   15SAPS  H18X 1993   4.512   0.657   8.277 -0.4179  2.1363  1.4360
   15SAPS  H18Y 1994   4.591   0.706   8.439  1.9469 -1.4286  0.0707
   15SAPS  H18Z 1995   4.461   0.583   8.437 -1.0749 -2.8498 -1.5698
   16SAPS     N 1996   0.424   3.041   6.466  0.3957 -0.5543 -0.5172
   16SAPS   HN1 1997   0.335   3.085   6.436 -1.3054 -2.4272  1.5993
   16SAPS   HN2 1998   0.475   3.085   6.545 -0.7484 -0.1756  0.0171
   16SAPS   HN3 1999   0.489   3.057   6.386 -0.2199 -1.3298 -1.1867
   16SAPS   C12 2000   0.415   2.894   6.477  0.0721 -0.7594  0.2985
   16SAPS  H12A 2001   0.346   2.879   6.559 -0.2391  0.9949  0.3820
   16SAPS   C13 2002   0.340   2.819   6.362 -0.1196 -0.4183  0.8825
   16SAPS  O13A 2003   0.334   2.878   6.249 -0.0286  0.1762 -0.2488
   16SAPS  O13B 2004   0.325   2.692   6.371 -0.2902 -0.2271  0.1077
   16SAPS   C11 2005   0.552   2.823   6.495  0.0935  0.2245  0.2167
   16SAPS  H11A 2006   0.621   2.854   6.413  0.2036 -0.8971 -0.1198
   16SAPS  H11B 2007   0.540   2.713   6.496 -0.4042  0.2745 -0.0983
   16SAPS     P 2008   0.710   2.789   6.706 -0.1910  0.2862  0.0371
   16SAPS   O13 2009   0.822   2.752   6.618  0.5273 -0.5597 -0.3019
   16SAPS   O14 2010   0.732   2.879   6.819 -0.1666 -0.3414 -0.5030
   16SAPS   O12 2011   0.604   2.866   6.622 -0.4730 -0.0879 -0.0114
   16SAPS   O11 2012   0.638   2.656   6.752 -0.3433 -0.4489 -0.9008
   16SAPS    C1 2013   0.496   2.651   6.773  0.2569  0.2931 -0.0643
   16SAPS    HA 2014   0.435   2.674   6.682  1.3400 -0.5321 -1.0054
   16SAPS    HB 2015   0.479   2.545   6.801  1.1730  0.1733  0.0446
   16SAPS    C2 2016   0.467   2.725   6.904 -0.0614 -0.0443 -1.0240
   16SAPS    HS 2017   0.461   2.833   6.879  3.6366  0.9781  2.0948
   16SAPS   O21 2018   0.567   2.695   6.997 -0.4866 -0.0317 -0.1312
   16SAPS   C21 2019   0.590   2.780   7.096  0.0407  0.1835 -0.1270
   16SAPS   O22 2020   0.514   2.870   7.121  0.2125  0.3063 -0.5967
   16SAPS   C22 2021   0.720   2.743   7.171 -0.7991  0.7026 -0.4450
   16SAPS   H2R 2022   0.774   2.661   7.119 -1.3764 -0.1780  0.3383
   16SAPS   H2S 2023   0.792   2.828   7.170  0.2500 -0.1687 -0.4235
   16SAPS    C3 2024   0.328   2.680   6.959  0.1489  0.1753 -0.8708
   16SAPS    HX 2025   0.245   2.705   6.889 -0.3980  0.8381  0.0077
   16SAPS    HY 2026   0.303   2.732   7.054  2.5585  0.2498 -0.2389
   16SAPS   O31 2027   0.330   2.536   6.996 -0.5838  0.3642  0.2901
   16SAPS   C31 2028   0.225   2.470   6.956  0.2300  0.2440 -0.6180
   16SAPS   O32 2029   0.129   2.514   6.896 -0.0287 -0.3660  0.0761
   16SAPS   C32 2030   0.256   2.320   7.000  0.5778  0.0017 -0.6733
   16SAPS   H2X 2031   0.359   2.293   6.970  1.3150  0.2292  1.5728
   16SAPS   H2Y 2032   0.200   2.253   6.931  1.7482 -0.4062 -1.2241
   16SAPS   C23 2033   0.700   2.718   7.321 -0.0700 -0.1045 -0.0422
   16SAPS   H3R 2034   0.658   2.803   7.379  0.0185 -0.3195  0.3430
   16SAPS   H3S 2035   0.804   2.694   7.355  0.6655 -2.0338 -3.4666
   16SAPS   C24 2036   0.620   2.591   7.341 -0.1047  0.2267  0.1912
   16SAPS   H4R 2037   0.617   2.524   7.252 -1.3493  1.9099 -1.0502
   16SAPS   H4S 2038   0.515   2.624   7.349 -0.6786 -1.9255  2.3113
   16SAPS   C25 2039   0.654   2.508   7.465  0.4036 -0.3906 -0.2128
   16SAPS   H5R 2040   0.761   2.494   7.485 -0.0287 -1.3175  1.5499
   16SAPS   C26 2041   0.567   2.455   7.562 -0.0340  0.0750  1.4422
   16SAPS   H6R 2042   0.603   2.367   7.619 -0.9256 -1.7215 -0.7182
   16SAPS   C27 2043   0.423   2.472   7.548 -0.7405  0.0127  0.3254
   16SAPS   H7R 2044   0.414   2.449   7.440 -0.8705 -0.9024  0.5264
   16SAPS   H7S 2045   0.380   2.571   7.575 -0.3759 -0.7528  3.9375
   16SAPS   C28 2046   0.361   2.363   7.630 -0.4611 -0.5185 -0.2269
   16SAPS   H8R 2047   0.342   2.275   7.568  0.9823 -0.2537 -1.0801
   16SAPS   C29 2048   0.317   2.370   7.756  0.3837  0.7158  0.0936
   16SAPS   H9R 2049   0.274   2.276   7.794 -3.9939  1.6939 -2.0849
   16SAPS  C210 2050   0.317   2.492   7.841 -0.5084  0.0710  0.1403
   16SAPS  H10R 2051   0.233   2.560   7.815 -0.8249 -0.0114  0.9456
   16SAPS  H10S 2052   0.401   2.562   7.819 -1.5411  1.1838 -0.3678
   16SAPS  C211 2053   0.319   2.475   7.991  0.0267 -0.4400 -0.1492
   16SAPS  H11R 2054   0.265   2.388   8.031 -1.1440 -0.1239 -1.0226
   16SAPS  C212 2055   0.373   2.564   8.079  0.9531  0.1810 -0.0837
   16SAPS  H12R 2056   0.379   2.541   8.187 -1.3055  0.5936  0.1498
   16SAPS  C213 2057   0.442   2.698   8.037  0.5032  0.1315 -0.0268
   16SAPS  H13R 2058   0.512   2.674   7.954  0.0502  0.3385 -0.4686
   16SAPS  H13S 2059   0.507   2.744   8.114 -3.2223 -0.3125  3.4909
   16SAPS  C214 2060   0.335   2.791   7.995  0.4965 -0.4677  0.4112
   16SAPS  H14R 2061   0.310   2.761   7.893 -1.4205 -1.7156  1.2278
   16SAPS  C215 2062   0.277   2.896   8.059 -0.3968  0.8577  0.5252
   16SAPS  H15R 2063   0.206   2.959   8.003 -1.0711  0.1551  0.5851
   16SAPS  C216 2064   0.296   2.927   8.202  0.9925 -0.4864  0.4032
   16SAPS  H16R 2065   0.315   3.036   8.211 -0.1605 -0.1072 -1.3747
   16SAPS  H16S 2066   0.384   2.873   8.243  1.0942  0.6292  1.6870
   16SAPS  C217 2067   0.166   2.894   8.268 -0.0417 -0.1336 -0.2689
   16SAPS  H17R 2068   0.148   2.787   8.246  2.8362 -0.2922 -2.0202
   16SAPS  H17S 2069   0.078   2.956   8.238 -0.7405 -0.2249  1.5433
   16SAPS  C218 2070   0.194   2.918   8.421 -0.6135  1.4360  0.7923
   16SAPS  H18R 2071   0.226   3.021   8.448 -1.5498  1.9696 -0.0870
   16SAPS  H18S 2072   0.286   2.861   8.443 -0.9086  1.1177  1.2072
   16SAPS  C219 2073   0.083   2.876   8.507  0.4795  0.1535 -0.5113
   16SAPS  H19R 2074   0.060   2.769   8.488 -1.4099  0.5476 -0.5981
   16SAPS  H19S 2075  -0.010   2.938   8.505 -0.2736 -0.9143  0.2634
   16SAPS  C220 2076   0.119   2.881   8.663 -0.4708 -0.3707  0.3178
   16SAPS  H20R 2077   0.205   2.819   8.696  1.0178  1.8176  0.6527
   16SAPS  H20S 2078   0.028   2.852   8.720 -1.3288  1.2322 -0.2112
   16SAPS  H20T 2079   0.145   2.984   8.694 -1.2950  0.7917 -2.6898
   16SAPS   C33 2080   0.242   2.290   7.147  0.2026  0.3678 -0.8417
   16SAPS   H3X 2081   0.311   2.357   7.202 -1.3738  0.9326  0.4840
   16SAPS   H3Y 2082   0.282   2.187   7.157  2.0534  1.2268  0.8304
   16SAPS   C34 2083   0.100   2.303   7.209  0.6461  0.0677  0.3285
   16SAPS   H4X 2084   0.057   2.204   7.182  1.0008 -0.3465  1.2289
   16SAPS   H4Y 2085   0.038   2.386   7.171 -0.1975 -0.8555 -0.3444
   16SAPS   C35 2086   0.096   2.300   7.362 -0.1255  0.4175  0.7267
   16SAPS   H5X 2087   0.149   2.385   7.409 -0.4808  1.2878 -0.4371
   16SAPS   H5Y 2088   0.136   2.202   7.397 -0.1434  0.7503  1.6901
   16SAPS   C36 2089  -0.049   2.321   7.409  0.1405  0.6403  0.4923
   16SAPS   H6X 2090  -0.115   2.281   7.330 -0.4792  0.9102  0.8655
   16SAPS   H6Y 2091  -0.073   2.429   7.421  0.0218  0.5976  0.6369
   16SAPS   C37 2092  -0.074   2.251   7.546 -0.0770 -0.6569 -0.0711
   16SAPS   H7X 2093  -0.033   2.149   7.558 -0.5958 -0.8574  0.0217
   16SAPS   H7Y 2094  -0.184   2.245   7.564  0.3090  0.1931  2.6804
   16SAPS   C38 2095  -0.029   2.341   7.661 -0.1928  0.0533  0.1471
   16SAPS   H8X 2096  -0.053   2.447   7.639  1.6913  0.6904  1.0943
   16SAPS   H8Y 2097   0.079   2.336   7.685 -0.3513 -0.6909  0.7285
   16SAPS   C39 2098  -0.109   2.325   7.794 -0.0031 -0.2218  0.2240
   16SAPS   H9X 2099  -0.125   2.216   7.802 -2.6018  0.0698 -0.4580
   16SAPS   H9Y 2100  -0.212   2.364   7.779  0.7248  1.9826  0.6785
   16SAPS  C310 2101  -0.034   2.393   7.912 -0.8871  0.3297 -0.0673
   16SAPS  H10X 2102  -0.010   2.497   7.882 -1.1392  0.3600 -0.1636
   16SAPS  H10Y 2103   0.058   2.330   7.916 -1.0123  0.1796  0.4833
   16SAPS  C311 2104  -0.101   2.380   8.043 -0.4742 -0.0135 -0.3623
   16SAPS  H11X 2105  -0.108   2.271   8.065 -0.6896  0.2129  0.6814
   16SAPS  H11Y 2106  -0.204   2.420   8.028 -1.0325 -0.5049  2.0668
   16SAPS  C312 2107  -0.024   2.458   8.149 -0.1895  0.5027  0.0887
   16SAPS  H12X 2108   0.040   2.529   8.093 -0.3791 -1.4718 -2.7095
   16SAPS  H12Y 2109   0.036   2.377   8.196  0.9857  0.3418 -1.6742
   16SAPS  C313 2110  -0.102   2.542   8.260 -0.0315  0.0637 -0.1365
   16SAPS  H13X 2111  -0.162   2.617   8.205  1.5910  0.4313 -1.4263
   16SAPS  H13Y 2112  -0.032   2.605   8.317 -0.2537  1.2812 -1.1900
   16SAPS  C314 2113  -0.197   2.465   8.347 -0.7111  0.2047 -0.0431
   16SAPS  H14X 2114  -0.138   2.381   8.388  0.0348  1.8879  2.4477
   16SAPS  H14Y 2115  -0.283   2.424   8.290  0.2954 -0.6414 -0.9768
   16SAPS  C315 2116  -0.259   2.545   8.460  0.3138  0.0643 -0.0082
   16SAPS  H15X 2117  -0.329   2.618   8.415 -1.2428 -1.8722 -0.7614
   16SAPS  H15Y 2118  -0.186   2.612   8.511 -0.8923  1.5323 -0.1766
   16SAPS  C316 2119  -0.318   2.467   8.576  0.1434  0.6053  0.5208
   16SAPS  H16X 2120  -0.249   2.381   8.590  0.6111  0.8110 -0.4207
   16SAPS  H16Y 2121  -0.407   2.419   8.530  2.0184 -0.3472 -2.2371
   16SAPS  C317 2122  -0.349   2.558   8.694  0.5138 -0.0321 -0.1372
   16SAPS  H17X 2123  -0.252   2.583   8.741  0.5347 -0.1698 -0.1082
   16SAPS  H17Y 2124  -0.390   2.491   8.773 -0.1735 -0.1364 -0.5775
   16SAPS  C318 2125  -0.435   2.679   8.668 -0.3302 -0.6368 -0.1017
   16SAPS  H18X 2126  -0.481   2.682   8.567 -1.9571  0.2482  0.6460
   16SAPS  H18Y 2127  -0.370   2.767   8.686  1.8043 -2.1631 -0.1613
   16SAPS  H18Z 2128  -0.520   2.690   8.739  0.2099 -0.9981  0.5965
   17SAPC     N 2129   4.624   5.289  10.664 -0.4553 -0.2513 -0.3126
   17SAPC   C12 2130   4.570   5.236  10.529 -0.2846 -0.9274 -0.3263
   17SAPC  H12A 2131   4.466   5.263  10.516  0.3220  1.0259 -1.3508
   17SAPC  H12B 2132   4.568   5.129  10.522 -1.1289 -1.0712  1.8546
   17SAPC   C13 2133   4.634   5.441  10.668  0.1770 -0.5579  0.0875
   17SAPC  H13A 2134   4.673   5.470  10.764  0.1439  0.1108 -0.0979
   17SAPC  H13B 2135   4.694   5.473  10.584  1.4844  1.7094  1.8497
   17SAPC  H13C 2136   4.535   5.479  10.647  0.1686  0.6956  2.3232
   17SAPC   C14 2137   4.540   5.239  10.772 -0.1410  0.7073 -0.4786
   17SAPC  H14A 2138   4.581   5.281  10.863 -1.9025  1.0204  0.1981
   17SAPC  H14B 2139   4.440   5.278  10.766 -0.0421  0.8445 -1.1983
   17SAPC  H14C 2140   4.535   5.131  10.778  1.8886  0.6775  1.4381
   17SAPC   C15 2141   4.759   5.241  10.692 -0.1635  0.1173  0.0374
   17SAPC  H15A 2142   4.825   5.251  10.608  0.2578  1.1903  0.4907
   17SAPC  H15B 2143   4.803   5.290  10.777  1.4979 -0.7685 -0.2999
   17SAPC  H15C 2144   4.739   5.136  10.710 -2.5467  0.2803 -1.3869
   17SAPC   C11 2145   4.615   5.287  10.385 -0.6344  0.3572  0.0621
   17SAPC  H11A 2146   4.579   5.393  10.382  1.7458  1.1668 -0.5179
   17SAPC  H11B 2147   4.552   5.239  10.307 -1.1149  2.2428 -0.7409
   17SAPC     P 2148   4.835   5.142  10.333  0.2734  0.1632  0.1187
   17SAPC   O13 2149   4.974   5.180  10.320 -0.0018 -0.4889 -0.0166
   17SAPC   O14 2150   4.799   5.051  10.446 -0.8656  0.8503 -0.3664
   17SAPC   O12 2151   4.753   5.279  10.360  0.0493 -0.5301  0.6462
   17SAPC   O11 2152   4.776   5.085  10.205 -0.6442  0.2694  0.5783
   17SAPC    C1 2153   4.776   4.946  10.167  0.1377 -0.6199 -0.8886
   17SAPC    HA 2154   4.872   4.901  10.200  0.6341  1.1703  0.1837
   17SAPC    HB 2155   4.698   4.886  10.219 -0.6834  2.1598  1.2557
   17SAPC    C2 2156   4.763   4.917  10.014  0.3525  0.0126 -0.1938
   17SAPC    HS 2157   4.827   4.830   9.987  0.5420  0.2420 -0.4955
   17SAPC   O21 2158   4.808   5.029   9.938 -0.4230 -0.6143  0.5085
   17SAPC   C21 2159   4.939   5.076   9.949 -0.1505  0.0937  0.3303
   17SAPC   O22 2160   5.027   5.019  10.008  0.3649 -0.1650 -0.3857
   17SAPC   C22 2161   4.951   5.209   9.869  0.2784 -0.2999  0.1924
   17SAPC   H2R 2162   4.857   5.269   9.869  0.5440  0.1155 -0.0115
   17SAPC   H2S 2163   5.017   5.269   9.935  0.7899 -0.2000 -0.4115
   17SAPC    C3 2164   4.613   4.885   9.982  0.0436 -0.0631 -0.4320
   17SAPC    HX 2165   4.555   4.969  10.027 -2.1914 -0.1818 -2.9687
   17SAPC    HY 2166   4.582   4.790  10.030 -0.8603  0.1265 -0.6365
   17SAPC   O31 2167   4.594   4.893   9.838 -0.4626 -0.0674  0.3144
   17SAPC   C31 2168   4.542   5.004   9.781  0.6500 -0.6287  0.2663
   17SAPC   O32 2169   4.530   5.117   9.826 -0.1156  0.0635 -0.4583
   17SAPC   C32 2170   4.496   4.968   9.639 -0.2480 -0.7335  0.1444
   17SAPC   H2X 2171   4.417   5.033   9.594 -2.6516 -3.1710  0.7247
   17SAPC   H2Y 2172   4.444   4.871   9.647  2.1540 -1.9470  1.4130
   17SAPC   C23 2173   5.012   5.193   9.729  0.2247 -0.0935 -0.1955
   17SAPC   H3R 2174   5.101   5.126   9.725 -0.3249 -0.8919  0.7853
   17SAPC   H3S 2175   5.055   5.292   9.700  0.8507  0.2891  1.9466
   17SAPC   C24 2176   4.910   5.128   9.633 -0.2860 -0.3813 -0.4503
   17SAPC   H4R 2177   4.815   5.186   9.637  0.6020  1.2239 -1.8603
   17SAPC   H4S 2178   4.883   5.027   9.668  0.1514 -0.5349 -0.5492
   17SAPC   C25 2179   4.971   5.124   9.492  0.1521 -1.0346 -0.3602
   17SAPC   H5R 2180   4.969   5.213   9.427 -1.4697  0.2026  1.3394
   17SAPC   C26 2181   5.035   5.018   9.435  0.5343 -0.0799 -0.2732
   17SAPC   H6R 2182   5.080   5.032   9.336  2.2913 -1.2582  0.3448
   17SAPC   C27 2183   5.070   4.881   9.486  0.6716 -0.6722  0.7902
   17SAPC   H7R 2184   5.080   4.815   9.397  2.2175  0.9192 -0.2568
   17SAPC   H7S 2185   4.987   4.827   9.536 -2.4801  2.4639 -0.8660
   17SAPC   C28 2186   5.201   4.878   9.559 -0.3185 -0.3076 -0.0162
   17SAPC   H8R 2187   5.184   4.880   9.667  0.0817 -0.2151  0.0435
   17SAPC   C29 2188   5.324   4.879   9.511 -0.2557 -0.2397 -1.0494
   17SAPC   H9R 2189   5.410   4.869   9.579 -1.5357 -1.5833  0.4027
   17SAPC  C210 2190   5.362   4.867   9.370  0.0197 -0.5168 -0.1842
   17SAPC  H10R 2191   5.430   4.954   9.356 -1.3193  0.7746  1.1987
   17SAPC  H10S 2192   5.277   4.891   9.303 -0.0933  1.3472  0.5933
   17SAPC  C211 2193   5.445   4.749   9.323 -0.6990  0.3178  0.7614
   17SAPC  H11R 2194   5.492   4.692   9.405 -1.2979 -0.2312  0.7220
   17SAPC  C212 2195   5.481   4.720   9.192  0.9538  0.0725  0.2087
   17SAPC  H12R 2196   5.557   4.645   9.165 -0.8435 -0.9161 -2.3013
   17SAPC  C213 2197   5.424   4.793   9.069 -0.0855  0.0558 -0.8667
   17SAPC  H13R 2198   5.505   4.779   8.994  0.0526 -2.1157 -0.3528
   17SAPC  H13S 2199   5.434   4.902   9.086 -3.8026  0.4533 -0.8824
   17SAPC  C214 2200   5.288   4.756   9.021  0.5327 -0.2813  0.0678
   17SAPC  H14R 2201   5.233   4.672   9.068 -0.7909  0.6581  0.2418
   17SAPC  C215 2202   5.229   4.836   8.926 -0.5622 -0.3038 -0.1831
   17SAPC  H15R 2203   5.121   4.824   8.907 -0.7975  2.5647 -0.8593
   17SAPC  C216 2204   5.299   4.943   8.850  0.0436  0.3703  0.5725
   17SAPC  H16R 2205   5.397   4.971   8.893  0.2718 -0.7653  0.8011
   17SAPC  H16S 2206   5.228   5.029   8.842  0.5404  0.4905 -3.2174
   17SAPC  C217 2207   5.325   4.878   8.710 -0.6025 -0.1301  0.2769
   17SAPC  H17R 2208   5.375   4.779   8.720  1.7337  1.1912  2.2644
   17SAPC  H17S 2209   5.395   4.945   8.655 -0.2667 -0.8817 -0.2258
   17SAPC  C218 2210   5.194   4.867   8.624  0.8130 -0.0485  0.3370
   17SAPC  H18R 2211   5.120   4.935   8.672  0.4321 -0.8489  0.9051
   17SAPC  H18S 2212   5.151   4.765   8.637  2.2577 -1.0026 -2.0479
   17SAPC  C219 2213   5.202   4.912   8.478 -0.6160 -0.2780 -0.7951
   17SAPC  H19R 2214   5.273   4.842   8.428  3.7057  3.0825  0.3302
   17SAPC  H19S 2215   5.245   5.014   8.473  0.3073 -0.6507 -0.6031
   17SAPC  C220 2216   5.068   4.902   8.410  0.2229 -0.1340  0.4726
   17SAPC  H20R 2217   5.005   4.994   8.418  1.9515  1.1593 -0.4662
   17SAPC  H20S 2218   5.026   4.810   8.455 -0.0539 -1.8578 -3.1273
   17SAPC  H20T 2219   5.091   4.897   8.302  1.7933  1.4080  0.7255
   17SAPC   C33 2220   4.611   4.973   9.534 -0.1073  0.0849 -0.2438
   17SAPC   H3X 2221   4.714   4.938   9.558  0.2407  1.4188  0.2587
   17SAPC   H3Y 2222   4.625   5.078   9.501 -2.7482  0.2377 -1.0157
   17SAPC   C34 2223   4.563   4.880   9.420 -0.3623 -0.3328  0.4543
   17SAPC   H4X 2224   4.590   4.918   9.319  2.1945  1.4475  1.7416
   17SAPC   H4Y 2225   4.453   4.875   9.437 -0.4655  0.2021 -0.0303
   17SAPC   C35 2226   4.606   4.732   9.430 -0.1604 -0.6614  0.3135
   17SAPC   H5X 2227   4.554   4.688   9.518  4.5562 -1.7800  2.7008
   17SAPC   H5Y 2228   4.715   4.733   9.449 -0.1493  2.2925  0.3679
   17SAPC   C36 2229   4.562   4.639   9.313  0.1226 -0.0468  0.1939
   17SAPC   H6X 2230   4.603   4.680   9.219  0.3721  1.5655  0.9936
   17SAPC   H6Y 2231   4.453   4.657   9.300 -0.0685 -2.7330 -2.6521
   17SAPC   C37 2232   4.579   4.489   9.333  0.3481 -0.5823  0.2194
   17SAPC   H7X 2233   4.560   4.477   9.442  0.8158  1.5935  0.5751
   17SAPC   H7Y 2234   4.686   4.462   9.325  0.7811  1.6341 -2.2181
   17SAPC   C38 2235   4.493   4.401   9.251  0.1428 -0.3390 -0.4276
   17SAPC   H8X 2236   4.401   4.455   9.221 -0.3252 -1.6767 -1.4733
   17SAPC   H8Y 2237   4.466   4.313   9.313  0.6473  1.0280  1.7640
   17SAPC   C39 2238   4.569   4.344   9.133 -0.3750  0.4227 -0.0966
   17SAPC   H9X 2239   4.667   4.299   9.158  0.5364  2.3718 -0.1012
   17SAPC   H9Y 2240   4.577   4.430   9.063  0.2329  1.0372  0.7364
   17SAPC  C310 2241   4.471   4.256   9.056  0.0961  0.3788  0.2542
   17SAPC  H10X 2242   4.376   4.303   9.023  0.1514 -0.5559 -1.2611
   17SAPC  H10Y 2243   4.444   4.166   9.117 -0.2514  1.5152  1.8059
   17SAPC  C311 2244   4.539   4.207   8.923  0.2323  0.8191 -0.2555
   17SAPC  H11X 2245   4.475   4.131   8.873 -1.5566  1.1601  1.4176
   17SAPC  H11Y 2246   4.627   4.145   8.951 -0.5560  0.2089  0.9171
   17SAPC  C312 2247   4.581   4.317   8.828  0.1935 -0.6674 -0.3174
   17SAPC  H12X 2248   4.672   4.374   8.856 -1.1437  1.0120  0.6682
   17SAPC  H12Y 2249   4.502   4.395   8.830  0.5214 -0.3414  0.4440
   17SAPC  C313 2250   4.607   4.272   8.685 -0.1856 -0.2829 -0.4651
   17SAPC  H13X 2251   4.542   4.191   8.645 -0.5500 -1.1135  1.7264
   17SAPC  H13Y 2252   4.709   4.229   8.682 -1.8547 -4.6297  1.0729
   17SAPC  C314 2253   4.613   4.398   8.601 -0.5736  0.2952  0.4922
   17SAPC  H14X 2254   4.683   4.470   8.650 -1.9145  2.6038 -0.8989
   17SAPC  H14Y 2255   4.518   4.455   8.606 -1.1248 -0.8501  4.1266
   17SAPC  C315 2256   4.658   4.385   8.460  0.1066  0.6766 -0.1792
   17SAPC  H15X 2257   4.746   4.319   8.442 -0.3650  0.2609 -1.0018
   17SAPC  H15Y 2258   4.677   4.488   8.424  0.4411  0.6669 -0.0352
   17SAPC  C316 2259   4.532   4.336   8.388 -0.0051 -0.0739 -0.6390
   17SAPC  H16X 2260   4.444   4.395   8.421  0.8396  0.6989  0.2717
   17SAPC  H16Y 2261   4.507   4.233   8.424 -0.8500 -0.1018 -1.2691
   17SAPC  C317 2262   4.546   4.349   8.239  0.2350 -0.0474 -0.3263
   17SAPC  H17X 2263   4.631   4.283   8.212  0.2053  0.7968 -2.5599
   17SAPC  H17Y 2264   4.559   4.454   8.204  1.5979 -0.1100 -0.0465
   17SAPC  C318 2265   4.427   4.306   8.153  0.2308 -0.7709 -0.2341
   17SAPC  H18X 2266   4.406   4.199   8.179  1.9753 -1.3356 -1.1159
   17SAPC  H18Y 2267   4.343   4.374   8.179  0.9331 -0.6541  1.8333
   17SAPC  H18Z 2268   4.443   4.309   8.044 -0.6528 -1.0815 -0.3852
   18SAPC     N 2269   4.802   4.498  10.635  0.5367  0.0939 -0.4730
   18SAPC   C12 2270   4.925   4.421  10.584  0.2802 -0.6273  0.3668
   18SAPC  H12A 2271   4.892   4.323  10.552  1.2889 -0.4716 -1.2061
   18SAPC  H12B 2272   4.999   4.417  10.663 -0.3107 -1.0854  0.9049
   18SAPC   C13 2273   4.837   4.634  10.688  0.2037  0.1191 -0.1000
   18SAPC  H13A 2274   4.748   4.694  10.700  0.0016 -0.3287  0.6894
   18SAPC  H13B 2275   4.886   4.625  10.784 -1.5804  1.9483  1.0275
   18SAPC  H13C 2276   4.905   4.684  10.620  1.5173  2.0616  2.5424
   18SAPC   C14 2277   4.698   4.512  10.531 -0.0799 -0.1346  0.6187
   18SAPC  H14A 2278   4.651   4.420  10.501  1.5380 -0.4505 -1.0119
   18SAPC  H14B 2279   4.617   4.578  10.559 -0.4672 -0.8398  1.1474
   18SAPC  H14C 2280   4.742   4.539  10.436 -0.6003  0.1633  0.4611
   18SAPC   C15 2281   4.745   4.424  10.751  0.5256 -0.0725 -0.4830
   18SAPC  H15A 2282   4.831   4.390  10.806  0.1363  0.3291  0.3873
   18SAPC  H15B 2283   4.685   4.495  10.806 -0.4038 -1.3830  0.2325
   18SAPC  H15C 2284   4.693   4.335  10.720  1.1997 -0.7268  0.2428
   18SAPC   C11 2285   4.994   4.484  10.460 -0.4553  0.2214 -0.4487
   18SAPC  H11A 2286   4.919   4.469  10.379 -1.1745  0.8830  0.0812
   18SAPC  H11B 2287   5.082   4.421  10.436 -1.1255 -0.7968 -0.2385
   18SAPC     P 2288   5.184   4.643  10.541 -0.4941 -0.1901 -0.0291
   18SAPC   O13 2289   5.183   4.765  10.623  0.8827  0.4065  0.4502
   18SAPC   O14 2290   5.236   4.523  10.613 -0.2869 -0.0170 -0.1045
   18SAPC   O12 2291   5.034   4.618  10.487  0.3331 -0.2757 -0.1964
   18SAPC   O11 2292   5.268   4.666  10.410 -0.1311 -0.1705  0.2530
   18SAPC    C1 2293   5.252   4.787  10.341 -0.0805 -0.7400  1.2256
   18SAPC    HA 2294   5.147   4.820  10.332  0.5505  0.7068 -1.4772
   18SAPC    HB 2295   5.315   4.871  10.376  1.7751 -1.8731  0.7264
   18SAPC    C2 2296   5.297   4.767  10.192  0.3491 -0.5604  0.1015
   18SAPC    HS 2297   5.311   4.867  10.145  2.6078 -1.2697 -0.7698
   18SAPC   O21 2298   5.190   4.688  10.130 -0.0270  0.0188 -0.5123
   18SAPC   C21 2299   5.184   4.710   9.993 -0.3153  0.1580 -0.2551
   18SAPC   O22 2300   5.267   4.771   9.933 -0.3779  0.0467 -0.7143
   18SAPC   C22 2301   5.061   4.631   9.944 -0.8836 -0.2597  0.1255
   18SAPC   H2R 2302   5.077   4.525   9.972  2.1889 -0.4582 -2.0854
   18SAPC   H2S 2303   4.979   4.681   9.999 -0.1739  1.4086 -0.2981
   18SAPC    C3 2304   5.438   4.705  10.199 -0.2050  0.2109 -0.2607
   18SAPC    HX 2305   5.420   4.603  10.240 -5.0895  1.6685  1.5355
   18SAPC    HY 2306   5.512   4.758  10.262 -0.3052 -1.5161  1.3632
   18SAPC   O31 2307   5.488   4.686  10.065  0.4347 -0.0309 -0.0333
   18SAPC   C31 2308   5.568   4.777  10.008  0.1990  0.8391  1.0542
   18SAPC   O32 2309   5.608   4.880  10.060  0.2380  0.6175  0.6626
   18SAPC   C32 2310   5.622   4.721   9.881 -0.1644 -0.3787 -0.2207
   18SAPC   H2X 2311   5.597   4.794   9.801 -0.7853  0.1873  0.4734
   18SAPC   H2Y 2312   5.567   4.628   9.856  1.1285 -1.1153 -0.3593
   18SAPC   C23 2313   5.043   4.657   9.792 -0.6571 -0.2052 -0.0398
   18SAPC   H3R 2314   5.137   4.629   9.741 -0.3426 -0.7248  0.8124
   18SAPC   H3S 2315   5.044   4.764   9.761  1.5664  0.3300  1.7578
   18SAPC   C24 2316   4.936   4.569   9.723  0.6659 -0.2018 -0.7690
   18SAPC   H4R 2317   4.936   4.473   9.779 -3.3695  0.3859  0.3748
   18SAPC   H4S 2318   4.978   4.546   9.623  1.9963 -0.3438 -0.1921
   18SAPC   C25 2319   4.806   4.643   9.734 -0.0484 -1.1159 -0.0774
   18SAPC   H5R 2320   4.806   4.749   9.762  2.0112 -1.0711 -0.1753
   18SAPC   C26 2321   4.685   4.591   9.737  0.0811 -0.2382 -0.0281
   18SAPC   H6R 2322   4.597   4.654   9.756 -0.7563 -1.0510 -1.1496
   18SAPC   C27 2323   4.656   4.444   9.736  0.0877  0.4177 -0.3912
   18SAPC   H7R 2324   4.725   4.374   9.685 -0.4947 -0.0118 -0.5958
   18SAPC   H7S 2325   4.563   4.444   9.676  0.1110  0.1739 -0.4286
   18SAPC   C28 2326   4.650   4.384   9.871  1.0134 -0.1692 -0.1741
   18SAPC   H8R 2327   4.752   4.360   9.905  1.7572 -0.6760 -2.6360
   18SAPC   C29 2328   4.545   4.364   9.949 -1.0144 -0.0551 -0.1196
   18SAPC   H9R 2329   4.560   4.331  10.053 -1.0373 -1.8560 -0.6790
   18SAPC  C210 2330   4.407   4.405   9.910 -0.2273  0.1155 -0.4807
   18SAPC  H10R 2331   4.331   4.371   9.984  0.8167  0.6750  0.8621
   18SAPC  H10S 2332   4.379   4.340   9.824  1.4281 -0.7943 -0.3531
   18SAPC  C211 2333   4.383   4.558   9.899  0.0264  0.2435  0.2169
   18SAPC  H11R 2334   4.422   4.612   9.987  0.3200  2.0454 -0.9796
   18SAPC  C212 2335   4.317   4.620   9.800  0.2661  0.8186 -0.1310
   18SAPC  H12R 2336   4.315   4.728   9.821 -1.7275  0.8779 -0.5085
   18SAPC  C213 2337   4.247   4.559   9.682 -0.1553 -0.8823 -0.4192
   18SAPC  H13R 2338   4.221   4.453   9.701  0.4313 -1.3501 -2.1810
   18SAPC  H13S 2339   4.320   4.562   9.598  0.1288  2.0957 -0.1148
   18SAPC  C214 2340   4.118   4.626   9.648 -0.3329 -0.2470 -0.5196
   18SAPC  H14R 2341   4.042   4.627   9.728  0.2321 -0.5974  0.0208
   18SAPC  C215 2342   4.077   4.671   9.525  0.2298  0.6692 -0.7758
   18SAPC  H15R 2343   3.977   4.715   9.513  0.9336  1.4917 -4.0891
   18SAPC  C216 2344   4.162   4.679   9.403 -0.6798  0.1147 -0.3015
   18SAPC  H16R 2345   4.271   4.676   9.426 -0.9180 -1.1872  0.7692
   18SAPC  H16S 2346   4.142   4.782   9.367 -2.4342 -0.4596 -1.0257
   18SAPC  C217 2347   4.151   4.567   9.293  0.1705  0.1489  0.2844
   18SAPC  H17R 2348   4.174   4.468   9.336  2.1219  0.8245  0.8474
   18SAPC  H17S 2349   4.233   4.573   9.218  0.2546 -1.8650  0.1959
   18SAPC  C218 2350   4.020   4.569   9.215 -0.2113 -0.3292 -0.1440
   18SAPC  H18R 2351   4.016   4.672   9.173  0.8975  1.7245  4.4741
   18SAPC  H18S 2352   3.930   4.566   9.280 -0.3170 -0.8460 -0.3117
   18SAPC  C219 2353   4.003   4.471   9.091 -0.0704  0.1668 -0.3751
   18SAPC  H19R 2354   4.106   4.452   9.054  0.0718 -1.2778  0.7087
   18SAPC  H19S 2355   3.936   4.522   9.018  1.3954  0.6911 -1.3761
   18SAPC  C220 2356   3.949   4.330   9.124  0.2900 -1.1359 -0.3510
   18SAPC  H20R 2357   4.014   4.282   9.201 -1.2199 -0.9548  1.0650
   18SAPC  H20S 2358   3.949   4.255   9.043  2.8428  0.5224 -1.9738
   18SAPC  H20T 2359   3.844   4.343   9.156  0.6097  1.1981 -0.1348
   18SAPC   C33 2360   5.769   4.695   9.894  0.0173 -0.9219 -0.3970
   18SAPC   H3X 2361   5.794   4.641   9.988 -0.3774  3.0640  2.0799
   18SAPC   H3Y 2362   5.808   4.798   9.894  1.2687 -1.3836  1.4404
   18SAPC   C34 2363   5.836   4.633   9.769 -0.0260 -0.0993 -0.2679
   18SAPC   H4X 2364   5.779   4.546   9.731 -0.8285  0.9357 -1.4478
   18SAPC   H4Y 2365   5.932   4.589   9.804 -0.1341 -0.6194 -0.6180
   18SAPC   C35 2366   5.874   4.721   9.652 -0.0400  0.1972  0.4316
   18SAPC   H5X 2367   5.935   4.811   9.679 -2.4924  1.6651  1.1889
   18SAPC   H5Y 2368   5.791   4.759   9.589 -0.6895  0.0988  1.2149
   18SAPC   C36 2369   5.977   4.637   9.566 -0.2159 -0.2857  0.3699
   18SAPC   H6X 2370   6.067   4.617   9.629  0.2050 -1.1905 -0.5058
   18SAPC   H6Y 2371   6.017   4.700   9.484 -1.0290  1.4981  1.3089
   18SAPC   C37 2372   5.920   4.507   9.509 -0.3566  0.1687 -0.5509
   18SAPC   H7X 2373   5.826   4.537   9.458 -0.7152  0.8702  0.5052
   18SAPC   H7Y 2374   5.889   4.443   9.594 -1.8306 -0.0752 -1.2485
   18SAPC   C38 2375   6.002   4.425   9.412 -0.4032  0.4761  0.8137
   18SAPC   H8X 2376   5.936   4.344   9.373 -1.4846  1.6149  0.2568
   18SAPC   H8Y 2377   6.078   4.376   9.476  0.3653  0.0108 -0.4350
   18SAPC   C39 2378   6.057   4.506   9.299  0.1862 -0.2577 -0.1908
   18SAPC   H9X 2379   6.138   4.570   9.338 -0.2563  0.0302  0.2524
   18SAPC   H9Y 2380   5.984   4.561   9.236 -0.7709 -0.8909  0.3594
   18SAPC  C310 2381   6.144   4.421   9.194  0.1824 -0.6291  0.0959
   18SAPC  H10X 2382   6.091   4.323   9.194 -1.4185  0.1745  3.0619
   18SAPC  H10Y 2383   6.237   4.398   9.250 -0.1749  0.0498  0.9904
   18SAPC  C311 2384   6.175   4.489   9.058 -0.3202  0.8655 -0.4456
   18SAPC  H11X 2385   6.229   4.585   9.076  1.8332 -0.4561  0.2765
   18SAPC  H11Y 2386   6.074   4.519   9.022 -1.6016 -1.6501  0.9672
   18SAPC  C312 2387   6.230   4.392   8.951  0.5525 -0.3561  0.1599
   18SAPC  H12X 2388   6.169   4.300   8.944 -2.4391  1.6725 -1.6026
   18SAPC  H12Y 2389   6.333   4.360   8.975  1.2644  1.8220  0.1168
   18SAPC  C313 2390   6.228   4.439   8.804  0.0837  0.3321  0.2063
   18SAPC  H13X 2391   6.248   4.358   8.730  1.7231 -0.0409  1.0412
   18SAPC  H13Y 2392   6.312   4.512   8.794  2.0711 -1.9911 -0.6361
   18SAPC  C314 2393   6.098   4.503   8.767  0.6861  0.2425  0.3797
   18SAPC  H14X 2394   6.106   4.613   8.774 -2.5639  0.5211  0.5414
   18SAPC  H14Y 2395   6.014   4.467   8.831  0.6082  0.3791  0.3531
   18SAPC  C315 2396   6.054   4.487   8.622  0.0029 -0.2541 -0.1767
   18SAPC  H15X 2397   5.955   4.535   8.605  1.7589  2.4658 -3.2615
   18SAPC  H15Y 2398   6.047   4.381   8.591  1.4908 -1.0202  1.9827
   18SAPC  C316 2399   6.152   4.553   8.523  0.0497 -0.0518 -0.0189
   18SAPC  H16X 2400   6.245   4.493   8.523  0.1172  0.0031  2.0549
   18SAPC  H16Y 2401   6.177   4.656   8.558 -2.5999  0.6980 -0.1867
   18SAPC  C317 2402   6.103   4.555   8.377  0.2052  0.1945 -0.0030
   18SAPC  H17X 2403   6.003   4.605   8.379  1.4061  2.7133 -0.4497
   18SAPC  H17Y 2404   6.098   4.452   8.337 -0.3001 -0.7731  2.5221
   18SAPC  C318 2405   6.175   4.649   8.281 -0.6030 -0.2386 -0.0680
   18SAPC  H18X 2406   6.130   4.648   8.179 -0.7485 -1.2728  0.0013
   18SAPC  H18Y 2407   6.284   4.629   8.270 -0.8611 -1.3955 -0.5650
   18SAPC  H18Z 2408   6.169   4.752   8.322  1.2555  0.2207 -0.8748
   19SAPC     N 2409   4.671   6.502  10.672 -0.1430 -0.6496  0.6589
   19SAPC   C12 2410   4.724   6.436  10.545 -0.3901 -0.0115  0.2854
   19SAPC  H12A 2411   4.752   6.335  10.573  0.9080  0.4382  0.6496
   19SAPC  H12B 2412   4.808   6.490  10.506 -0.8243  0.7384  0.3767
   19SAPC   C13 2413   4.568   6.420  10.747  0.2094  0.6551  0.5012
   19SAPC  H13A 2414   4.611   6.326  10.776 -1.2819 -1.1943 -3.0205
   19SAPC  H13B 2415   4.533   6.461  10.840 -1.6559 -2.9636  1.4911
   19SAPC  H13C 2416   4.484   6.402  10.681  1.2761  0.4110 -0.8010
   19SAPC   C14 2417   4.798   6.512  10.755 -0.6977 -0.3339 -0.0488
   19SAPC  H14A 2418   4.877   6.547  10.690 -0.3065  1.4305  1.3221
   19SAPC  H14B 2419   4.792   6.581  10.838  1.0265 -0.2194 -0.0119
   19SAPC  H14C 2420   4.826   6.419  10.801 -0.6014 -0.5690 -0.5804
   19SAPC   C15 2421   4.614   6.636  10.623 -0.0487 -0.7075 -0.4987
   19SAPC  H15A 2422   4.581   6.692  10.709 -1.1480 -0.7619 -0.8798
   19SAPC  H15B 2423   4.679   6.704  10.570 -0.1266  0.2034  0.5659
   19SAPC  H15C 2424   4.523   6.619  10.567 -0.1267 -0.4235 -0.4574
   19SAPC   C11 2425   4.626   6.423  10.418  0.5790  0.4597 -0.0870
   19SAPC  H11A 2426   4.665   6.358  10.338 -0.2726 -0.4189  0.2049
   19SAPC  H11B 2427   4.611   6.522  10.371 -1.3321  0.3960  0.3305
   19SAPC     P 2428   4.480   6.213  10.454  0.3313  0.1117 -0.2496
   19SAPC   O13 2429   4.598   6.141  10.394  0.7559  0.1015 -0.1822
   19SAPC   O14 2430   4.427   6.166  10.583  0.2297  0.0192 -0.0823
   19SAPC   O12 2431   4.505   6.369  10.462  0.4277 -0.2174 -0.2649
   19SAPC   O11 2432   4.364   6.219  10.349  0.2256 -0.4525  0.0589
   19SAPC    C1 2433   4.253   6.315  10.353  0.0133 -0.0443 -0.0092
   19SAPC    HA 2434   4.155   6.268  10.372  1.3079 -2.7214  0.2566
   19SAPC    HB 2435   4.274   6.385  10.437 -0.0221  0.0540 -0.0825
   19SAPC    C2 2436   4.233   6.388  10.216  0.5874 -0.1066  0.4267
   19SAPC    HS 2437   4.169   6.477  10.235  0.1187 -0.6302  1.3695
   19SAPC   O21 2438   4.178   6.296  10.116  0.5285  0.2003  0.4802
   19SAPC   C21 2439   4.053   6.311  10.084 -0.2923 -0.5397 -0.3477
   19SAPC   O22 2440   3.983   6.412  10.102 -0.2284  0.2014 -0.3084
   19SAPC   C22 2441   3.990   6.190  10.012  0.3097  0.1399 -0.2085
   19SAPC   H2R 2442   4.008   6.198   9.902  3.0446  1.7778  0.3062
   19SAPC   H2S 2443   4.036   6.095  10.046  2.6800  1.0607 -0.7563
   19SAPC    C3 2444   4.373   6.436  10.163  0.2041 -0.0789 -0.4365
   19SAPC    HX 2445   4.439   6.348  10.150  1.1861  0.8341 -1.8444
   19SAPC    HY 2446   4.412   6.503  10.242  0.6634 -1.7931  0.8041
   19SAPC   O31 2447   4.362   6.502  10.036  0.0248  0.4578 -0.0110
   19SAPC   C31 2448   4.397   6.630  10.023  0.1568  0.4481  0.0622
   19SAPC   O32 2449   4.445   6.700  10.108  0.5634 -0.5635  0.0676
   19SAPC   C32 2450   4.368   6.673   9.876  0.3988  0.0880 -0.4497
   19SAPC   H2X 2451   4.467   6.663   9.825  0.4644  0.1036 -0.3237
   19SAPC   H2Y 2452   4.349   6.782   9.871  0.0845  0.1994  2.3985
   19SAPC   C23 2453   3.836   6.188  10.020 -0.8208 -0.2855 -0.2954
   19SAPC   H3R 2454   3.800   6.291  10.003  0.5134  0.5061  1.4935
   19SAPC   H3S 2455   3.804   6.174  10.126 -0.1343 -0.6958 -0.1327
   19SAPC   C24 2456   3.751   6.090   9.940 -0.2669 -0.0013  0.8884
   19SAPC   H4R 2457   3.775   6.113   9.834 -0.4662  0.4744  0.9471
   19SAPC   H4S 2458   3.643   6.110   9.958 -0.6317 -0.0593 -1.0371
   19SAPC   C25 2459   3.779   5.947   9.970 -0.2231  0.2863  0.6531
   19SAPC   H5R 2460   3.766   5.914  10.074 -2.3717  1.1806  0.6885
   19SAPC   C26 2461   3.811   5.844   9.888  0.2638 -0.2559 -0.0703
   19SAPC   H6R 2462   3.858   5.756   9.935 -0.7379 -0.0084  1.3920
   19SAPC   C27 2463   3.827   5.868   9.739 -0.8473  0.0307 -0.2553
   19SAPC   H7R 2464   3.738   5.925   9.703  0.2783  1.0152 -1.5332
   19SAPC   H7S 2465   3.811   5.764   9.702 -1.9576  0.1328 -0.0814
   19SAPC   C28 2466   3.948   5.939   9.690 -0.7718  0.1911 -0.2184
   19SAPC   H8R 2467   4.017   5.977   9.767  1.1345  2.4789 -2.9516
   19SAPC   C29 2468   3.966   5.990   9.567 -0.2415 -0.5684 -0.1055
   19SAPC   H9R 2469   4.055   6.052   9.550 -0.6352  0.2125  0.6628
   19SAPC  C210 2470   3.873   5.989   9.450  0.0869  0.0247 -0.0273
   19SAPC  H10R 2471   3.811   5.897   9.455 -0.0057  0.1087  0.3273
   19SAPC  H10S 2472   3.926   5.977   9.353  3.1967 -0.4376  1.6702
   19SAPC  C211 2473   3.777   6.109   9.445 -0.3655 -0.8605 -0.3979
   19SAPC  H11R 2474   3.779   6.175   9.533  1.2483 -1.9835  0.4321
   19SAPC  C212 2475   3.705   6.147   9.339  0.3689  0.5849  0.1817
   19SAPC  H12R 2476   3.635   6.229   9.362  0.5917  0.7547  0.2501
   19SAPC  C213 2477   3.703   6.088   9.197 -0.9379 -0.2483 -0.0307
   19SAPC  H13R 2478   3.626   6.144   9.139 -2.7610 -1.8991  0.7247
   19SAPC  H13S 2479   3.665   5.984   9.202  1.1893 -0.9663  1.8493
   19SAPC  C214 2480   3.838   6.099   9.126 -0.2751  0.2368  0.2910
   19SAPC  H14R 2481   3.917   6.158   9.175 -0.9279  1.2125  0.1867
   19SAPC  C215 2482   3.854   6.064   8.995 -0.5432 -0.1713  0.1694
   19SAPC  H15R 2483   3.950   6.085   8.946 -0.6647 -1.3609 -0.5970
   19SAPC  C216 2484   3.743   6.007   8.904 -0.4125 -0.9153 -0.7778
   19SAPC  H16R 2485   3.677   5.942   8.966  0.0807  0.0333  0.7668
   19SAPC  H16S 2486   3.800   5.942   8.834 -0.8487 -0.9491 -1.1041
   19SAPC  C217 2487   3.655   6.104   8.826  0.4262  0.5567 -0.4118
   19SAPC  H17R 2488   3.626   6.192   8.887 -1.3004  0.1177 -0.5877
   19SAPC  H17S 2489   3.563   6.068   8.776 -0.6627 -0.1420  2.0562
   19SAPC  C218 2490   3.739   6.164   8.710 -0.0862 -0.2950 -0.2456
   19SAPC  H18R 2491   3.799   6.086   8.657 -2.7095 -1.4555 -1.6072
   19SAPC  H18S 2492   3.813   6.238   8.747  0.8959 -2.5957  2.6494
   19SAPC  C219 2493   3.653   6.241   8.613  0.3465 -0.0739 -0.0334
   19SAPC  H19R 2494   3.599   6.318   8.671 -3.3167 -2.1928 -0.4855
   19SAPC  H19S 2495   3.579   6.178   8.560 -0.0599  0.8004 -0.5082
   19SAPC  C220 2496   3.729   6.315   8.505 -0.8103 -0.1637 -0.5858
   19SAPC  H20R 2497   3.663   6.358   8.427 -1.9006  0.2764  0.5666
   19SAPC  H20S 2498   3.799   6.246   8.453 -2.4065 -0.9086 -1.8033
   19SAPC  H20T 2499   3.794   6.394   8.547  1.0678 -1.5992 -0.7328
   19SAPC   C33 2500   4.267   6.591   9.789  0.7045  1.0892  0.0809
   19SAPC   H3X 2501   4.287   6.483   9.808 -0.9623  0.5912 -0.9693
   19SAPC   H3Y 2502   4.280   6.612   9.681 -0.5330 -0.7137 -0.4264
   19SAPC   C34 2503   4.118   6.627   9.820  0.1127  0.0008  0.3352
   19SAPC   H4X 2504   4.099   6.736   9.828  1.2525  0.1965  0.5047
   19SAPC   H4Y 2505   4.094   6.594   9.923 -2.9332  0.5736 -0.1699
   19SAPC   C35 2506   4.016   6.555   9.725 -0.2426  0.5358  0.2108
   19SAPC   H5X 2507   3.916   6.569   9.772 -0.6526 -0.6531 -0.2932
   19SAPC   H5Y 2508   4.045   6.448   9.731  0.2205  0.7205  1.3499
   19SAPC   C36 2509   4.012   6.609   9.585 -0.1416  0.0884  0.5306
   19SAPC   H6X 2510   4.103   6.587   9.524 -0.2125  1.3387 -0.0436
   19SAPC   H6Y 2511   3.997   6.718   9.600 -0.6832  0.1735 -0.5639
   19SAPC   C37 2512   3.888   6.563   9.510  0.7887  0.9553 -0.3446
   19SAPC   H7X 2513   3.794   6.615   9.539 -1.0214 -2.1933 -0.2546
   19SAPC   H7Y 2514   3.879   6.455   9.535 -0.8039  0.8994 -1.1534
   19SAPC   C38 2515   3.905   6.574   9.363 -0.1167  0.5044  0.1904
   19SAPC   H8X 2516   3.986   6.506   9.329 -0.9041  0.1570 -1.0270
   19SAPC   H8Y 2517   3.928   6.674   9.320  0.3086  0.8089  1.1251
   19SAPC   C39 2518   3.784   6.509   9.287  0.0223 -0.1537 -0.6553
   19SAPC   H9X 2519   3.695   6.543   9.344  0.3879  1.0012 -0.7618
   19SAPC   H9Y 2520   3.786   6.399   9.302 -4.3921  0.0436  2.4067
   19SAPC  C310 2521   3.774   6.557   9.144  0.3668 -0.3062  0.5801
   19SAPC  H10X 2522   3.863   6.539   9.080 -0.5848 -0.0058 -0.8502
   19SAPC  H10Y 2523   3.760   6.667   9.154 -0.1763 -0.4634  1.5371
   19SAPC  C311 2524   3.660   6.484   9.071  0.6426 -0.0206 -0.2199
   19SAPC  H11X 2525   3.568   6.521   9.121  0.8784 -0.1482  0.3165
   19SAPC  H11Y 2526   3.673   6.380   9.108 -0.4264 -0.2221 -0.4039
   19SAPC  C312 2527   3.655   6.522   8.921  0.0001  0.1329 -0.2510
   19SAPC  H12X 2528   3.569   6.466   8.876  0.3310 -0.0774 -0.6225
   19SAPC  H12Y 2529   3.745   6.482   8.871 -0.5738  1.9671 -2.8632
   19SAPC  C313 2530   3.642   6.666   8.884  0.6890  0.4934  0.6671
   19SAPC  H13X 2531   3.724   6.726   8.928  0.9309  1.3704 -0.9558
   19SAPC  H13Y 2532   3.556   6.719   8.931 -0.1995 -1.2307  1.0280
   19SAPC  C314 2533   3.655   6.701   8.736  0.7359 -0.2807  0.3367
   19SAPC  H14X 2534   3.757   6.698   8.691 -0.0688 -1.2018 -1.4577
   19SAPC  H14Y 2535   3.647   6.811   8.741 -0.1198 -0.2877 -0.8410
   19SAPC  C315 2536   3.543   6.643   8.644  0.0779 -0.6103 -0.4326
   19SAPC  H15X 2537   3.443   6.660   8.688 -0.8833  1.2388 -3.1424
   19SAPC  H15Y 2538   3.559   6.533   8.646 -0.2272 -0.6321  1.0340
   19SAPC  C316 2539   3.547   6.705   8.504  0.3200 -0.0025  0.1607
   19SAPC  H16X 2540   3.526   6.632   8.423  0.3616 -0.8007  0.8631
   19SAPC  H16Y 2541   3.651   6.736   8.482  1.0321 -0.6026  2.4929
   19SAPC  C317 2542   3.440   6.811   8.493  0.6533 -0.0866  0.0403
   19SAPC  H17X 2543   3.462   6.891   8.567 -0.4373 -0.4493  0.7549
   19SAPC  H17Y 2544   3.340   6.774   8.523  0.9030 -1.2997 -0.6076
   19SAPC  C318 2545   3.436   6.886   8.363 -0.1942 -0.7280 -0.4824
   19SAPC  H18X 2546   3.535   6.926   8.332  0.6837 -1.7385  0.9471
   19SAPC  H18Y 2547   3.355   6.962   8.361 -0.3765 -0.8825  0.7300
   19SAPC  H18Z 2548   3.414   6.822   8.275 -0.1958  0.0078 -1.0196
   20SAPC     N 2549   3.670   3.834  11.212  0.2759 -0.5571 -0.5265
   20SAPC   C12 2550   3.640   3.829  11.062 -0.2790 -0.6364 -0.0602
   20SAPC  H12A 2551   3.593   3.919  11.024  1.2772 -0.6251 -2.0705
   20SAPC  H12B 2552   3.565   3.752  11.061  0.6356 -1.5314 -1.0524
   20SAPC   C13 2553   3.800   3.904  11.236  0.2019 -1.0226  0.1135
   20SAPC  H13A 2554   3.786   4.002  11.194 -1.8226 -1.4718 -0.3295
   20SAPC  H13B 2555   3.834   3.915  11.338 -1.8144 -0.7605  0.7809
   20SAPC  H13C 2556   3.881   3.857  11.181  0.7230  1.0053 -0.9152
   20SAPC   C14 2557   3.556   3.911  11.280 -0.5685 -0.3733  0.4595
   20SAPC  H14A 2558   3.548   3.910  11.388 -0.3944 -0.9246  0.4684
   20SAPC  H14B 2559   3.566   4.016  11.257 -0.6770 -0.9664 -2.5395
   20SAPC  H14C 2560   3.464   3.871  11.240 -2.0974  2.0931  1.3809
   20SAPC   C15 2561   3.681   3.702  11.272 -0.0967 -0.3538  0.1905
   20SAPC  H15A 2562   3.700   3.710  11.378 -0.2073  1.4241  0.0789
   20SAPC  H15B 2563   3.588   3.652  11.248  0.0455  0.1477 -1.4827
   20SAPC  H15C 2564   3.763   3.642  11.234  1.3299  1.3967  0.4473
   20SAPC   C11 2565   3.749   3.780  10.961 -0.0691 -0.8305 -0.0486
   20SAPC  H11A 2566   3.832   3.854  10.959 -0.3004 -0.5848 -0.9189
   20SAPC  H11B 2567   3.721   3.785  10.853 -2.6101 -0.7681  0.6038
   20SAPC     P 2568   3.722   3.516  10.980  0.3212  0.4409 -0.3406
   20SAPC   O13 2569   3.762   3.421  11.086  0.3446  0.2543 -0.6490
   20SAPC   O14 2570   3.576   3.542  10.977  0.4034 -0.3515  0.1927
   20SAPC   O12 2571   3.808   3.657  10.996 -0.1999 -0.2423  0.0683
   20SAPC   O11 2572   3.757   3.455  10.849  0.3709  0.2651  0.4904
   20SAPC    C1 2573   3.888   3.438  10.798 -0.2586 -0.2263 -0.5568
   20SAPC    HA 2574   3.908   3.535  10.747  0.3713  0.0649  0.2435
   20SAPC    HB 2575   3.967   3.429  10.875 -0.5366 -3.1316 -0.5710
   20SAPC    C2 2576   3.896   3.325  10.693 -1.1857  0.1921 -0.0190
   20SAPC    HS 2577   3.986   3.345  10.631 -1.7289 -0.1632 -0.9330
   20SAPC   O21 2578   3.780   3.322  10.612  0.4158  0.3873  0.5626
   20SAPC   C21 2579   3.762   3.426  10.523 -0.0040 -0.4086  0.0525
   20SAPC   O22 2580   3.835   3.519  10.508 -0.5724  0.6815  0.1322
   20SAPC   C22 2581   3.642   3.403  10.432 -0.5436  0.4914  0.3946
   20SAPC   H2R 2582   3.684   3.335  10.354 -1.9917  0.6538 -0.5418
   20SAPC   H2S 2583   3.561   3.351  10.487 -1.6658  1.0423 -0.7306
   20SAPC    C3 2584   3.916   3.191  10.765  0.2040  0.2814 -0.7195
   20SAPC    HX 2585   3.832   3.165  10.833  0.4948  0.7597 -0.1726
   20SAPC    HY 2586   3.999   3.189  10.839 -1.3997  0.5307  1.1434
   20SAPC   O31 2587   3.931   3.087  10.670  0.0601 -0.2208  0.2989
   20SAPC   C31 2588   3.816   3.031  10.621  0.1384  0.8826 -0.3532
   20SAPC   O32 2589   3.702   3.052  10.653  0.3846 -0.2454  0.1784
   20SAPC   C32 2590   3.851   2.931  10.517  0.8811 -0.0185 -0.0653
   20SAPC   H2X 2591   3.766   2.864  10.493  2.1943 -1.3170 -1.1988
   20SAPC   H2Y 2592   3.922   2.858  10.562  0.2767 -0.6031 -0.0569
   20SAPC   C23 2593   3.595   3.539  10.368  0.0371 -0.7876  0.2245
   20SAPC   H3R 2594   3.685   3.596  10.339 -2.3023  2.5398 -0.7786
   20SAPC   H3S 2595   3.552   3.605  10.446  1.1470 -2.6380  2.4751
   20SAPC   C24 2596   3.514   3.511  10.238 -0.7208  0.0611 -0.6739
   20SAPC   H4R 2597   3.444   3.595  10.216 -0.9331  0.0291 -0.1379
   20SAPC   H4S 2598   3.450   3.422  10.256 -1.3110  0.6247  0.0542
   20SAPC   C25 2599   3.596   3.484  10.114  0.2539 -0.6138  1.1653
   20SAPC   H5R 2600   3.702   3.457  10.126  0.0192 -1.4825  1.3475
   20SAPC   C26 2601   3.559   3.496   9.983 -0.0458  0.2812  1.1513
   20SAPC   H6R 2602   3.633   3.470   9.906 -1.1920 -1.6361  0.6545
   20SAPC   C27 2603   3.426   3.525   9.935  0.6163  0.4160 -0.2625
   20SAPC   H7R 2604   3.358   3.501  10.019  0.8429 -1.5066 -0.5986
   20SAPC   H7S 2605   3.398   3.462   9.847  2.9200 -2.1833  0.8064
   20SAPC   C28 2606   3.413   3.673   9.907  0.1675 -0.0188  0.0953
   20SAPC   H8R 2607   3.451   3.738   9.987  1.1445 -1.1644  0.5686
   20SAPC   C29 2608   3.367   3.747   9.807  0.4375  0.0583  0.0173
   20SAPC   H9R 2609   3.360   3.857   9.810 -0.6163  0.0680 -2.3937
   20SAPC  C210 2610   3.309   3.701   9.676  0.1321  0.0730 -0.2492
   20SAPC  H10R 2611   3.228   3.773   9.650 -1.1464 -1.4186 -0.4607
   20SAPC  H10S 2612   3.270   3.597   9.678  0.4387 -0.0456 -0.2707
   20SAPC  C211 2613   3.415   3.701   9.569  0.0960 -0.3878  0.6778
   20SAPC  H11R 2614   3.518   3.715   9.606 -0.4888  1.1753  1.7855
   20SAPC  C212 2615   3.390   3.681   9.435  0.2648 -0.4530  0.0552
   20SAPC  H12R 2616   3.477   3.675   9.368  0.4214  0.2910  0.1921
   20SAPC  C213 2617   3.256   3.667   9.365 -0.0070  0.2667  0.7186
   20SAPC  H13R 2618   3.167   3.670   9.432 -2.2960  3.3352 -2.2740
   20SAPC  H13S 2619   3.250   3.566   9.320 -0.3935  0.2810  0.7360
   20SAPC  C214 2620   3.225   3.777   9.262  0.5321  0.9937 -0.1602
   20SAPC  H14R 2621   3.248   3.881   9.293  1.6153  0.5083  0.7076
   20SAPC  C215 2622   3.188   3.768   9.134 -0.5822  0.1887  0.8333
   20SAPC  H15R 2623   3.173   3.861   9.078  0.8402 -1.1783 -1.9216
   20SAPC  C216 2624   3.164   3.644   9.053  0.0565 -0.3813  0.0137
   20SAPC  H16R 2625   3.143   3.553   9.114  0.5199 -2.7418 -3.1859
   20SAPC  H16S 2626   3.252   3.620   8.990 -0.4832  0.4707 -1.0719
   20SAPC  C217 2627   3.046   3.675   8.959 -0.0815  0.1178  0.1559
   20SAPC  H17R 2628   2.962   3.725   9.012 -0.3340  0.6021 -0.6795
   20SAPC  H17S 2629   3.003   3.578   8.927  1.1238  0.7452 -3.6261
   20SAPC  C218 2630   3.088   3.769   8.838  0.5086  0.4151 -0.1805
   20SAPC  H18R 2631   3.174   3.723   8.785  2.2269  3.3625  0.0013
   20SAPC  H18S 2632   3.106   3.871   8.877  0.2797  1.4789 -2.7081
   20SAPC  C219 2633   2.971   3.792   8.740 -0.3771 -0.1183 -0.0358
   20SAPC  H19R 2634   2.890   3.853   8.785 -0.4691 -0.4999  0.3141
   20SAPC  H19S 2635   2.933   3.696   8.700 -0.2317  0.3274 -1.2776
   20SAPC  C220 2636   3.032   3.877   8.629  0.7064  0.9569  0.0855
   20SAPC  H20R 2637   3.081   3.971   8.662  1.9023 -0.3119  2.0206
   20SAPC  H20S 2638   2.947   3.886   8.557  1.0035  1.3690 -0.2126
   20SAPC  H20T 2639   3.109   3.810   8.584 -0.1399  1.2903 -1.9039
   20SAPC   C33 2640   3.903   2.985  10.384 -0.8405 -0.1003 -0.0024
   20SAPC   H3X 2641   3.976   2.910  10.345 -3.0525 -1.8145 -0.9289
   20SAPC   H3Y 2642   3.968   3.074  10.396 -0.3004 -0.5456  0.4339
   20SAPC   C34 2643   3.802   3.027  10.278  0.1919 -0.1640 -0.0943
   20SAPC   H4X 2644   3.728   3.099  10.318 -1.2011 -2.6584  1.8959
   20SAPC   H4Y 2645   3.748   2.934  10.250  0.0371 -0.4652  1.1710
   20SAPC   C35 2646   3.863   3.086  10.151 -0.0106  0.1515 -0.1493
   20SAPC   H5X 2647   3.945   3.021  10.114  0.6826  0.0566  1.5152
   20SAPC   H5Y 2648   3.912   3.182  10.179 -2.6459  2.6981 -3.6838
   20SAPC   C36 2649   3.759   3.133  10.048  0.1851 -0.6176 -0.1406
   20SAPC   H6X 2650   3.688   3.200  10.102  1.3977  0.6124 -0.0665
   20SAPC   H6Y 2651   3.708   3.041  10.011  1.1207 -0.2932 -2.3085
   20SAPC   C37 2652   3.817   3.201   9.927 -0.3266 -0.0552  0.0195
   20SAPC   H7X 2653   3.908   3.253   9.964  0.5737 -0.9647 -0.8893
   20SAPC   H7Y 2654   3.742   3.275   9.893 -0.5665 -0.8710 -1.2822
   20SAPC   C38 2655   3.854   3.104   9.811 -0.0247  0.7980  0.4226
   20SAPC   H8X 2656   3.764   3.076   9.753  0.1295  0.1498  0.4937
   20SAPC   H8Y 2657   3.894   3.014   9.864 -1.5388 -0.7398 -0.9766
   20SAPC   C39 2658   3.945   3.165   9.711  0.2389  0.0108 -0.0042
   20SAPC   H9X 2659   4.036   3.202   9.763  0.0475  0.3970  0.0475
   20SAPC   H9Y 2660   3.898   3.256   9.669 -0.4451 -0.6339 -0.6603
   20SAPC  C310 2661   4.002   3.070   9.603 -0.3799 -0.0638  0.5205
   20SAPC  H10X 2662   4.058   2.985   9.648  1.5963 -0.8138 -3.1828
   20SAPC  H10Y 2663   4.076   3.134   9.550  0.3861 -0.3648  1.2025
   20SAPC  C311 2664   3.909   3.011   9.497  0.8552  0.4872 -0.2351
   20SAPC  H11X 2665   3.812   2.990   9.547  1.3804  0.1719  0.6749
   20SAPC  H11Y 2666   3.953   2.919   9.452  2.0639  1.8519 -1.9119
   20SAPC  C312 2667   3.889   3.111   9.385 -0.0265  0.5411  0.1123
   20SAPC  H12X 2668   3.990   3.119   9.341 -0.0414 -0.0882 -0.0383
   20SAPC  H12Y 2669   3.872   3.212   9.429  1.0408 -0.1906  2.2569
   20SAPC  C313 2670   3.787   3.074   9.269  0.8622 -0.2707 -0.4434
   20SAPC  H13X 2671   3.816   3.127   9.176 -1.2700 -2.0648 -2.2097
   20SAPC  H13Y 2672   3.685   3.107   9.298  0.5753 -0.6966 -0.9603
   20SAPC  C314 2673   3.785   2.915   9.238 -0.2709 -0.2580 -0.0678
   20SAPC  H14X 2674   3.716   2.881   9.319  1.2206 -0.5965  1.0722
   20SAPC  H14Y 2675   3.885   2.867   9.230 -0.1463  0.1101 -0.7613
   20SAPC  C315 2676   3.713   2.894   9.106  0.7519  0.8270 -0.4032
   20SAPC  H15X 2677   3.634   2.970   9.085 -1.0603 -0.5799  1.1855
   20SAPC  H15Y 2678   3.668   2.794   9.089  0.6129  0.6113  1.1382
   20SAPC  C316 2679   3.812   2.900   8.986 -0.4840 -0.1427 -0.4285
   20SAPC  H16X 2680   3.874   2.807   8.984  0.0916  0.2595 -3.2863
   20SAPC  H16Y 2681   3.876   2.990   8.995  0.3891 -0.9108  1.2522
   20SAPC  C317 2682   3.747   2.912   8.849 -0.1762  0.2044 -0.5854
   20SAPC  H17X 2683   3.656   2.850   8.836 -0.6956  0.6813  0.6650
   20SAPC  H17Y 2684   3.814   2.863   8.775 -2.2677 -3.7140 -0.0432
   20SAPC  C318 2685   3.712   3.052   8.810  0.0421  0.0233 -0.5327
   20SAPC  H18X 2686   3.809   3.103   8.792 -0.8893  1.4995 -1.4567
   20SAPC  H18Y 2687   3.649   3.098   8.889 -0.1982 -1.2980  0.0531
   20SAPC  H18Z 2688   3.649   3.047   8.719 -2.9880  1.6151  1.4281
   21SAPC     N 2689   3.767   2.228  10.919  0.0049  0.4990 -0.0596
   21SAPC   C12 2690   3.860   2.272  10.804  0.4352  0.0368  0.4065
   21SAPC  H12A 2691   3.801   2.300  10.718  1.6814  1.5919  0.0329
   21SAPC  H12B 2692   3.902   2.176  10.781 -1.9032 -1.0251  0.4008
   21SAPC   C13 2693   3.855   2.168  11.025  0.2784 -0.1524  0.1951
   21SAPC  H13A 2694   3.929   2.240  11.060 -1.1599  1.0175  0.8772
   21SAPC  H13B 2695   3.791   2.143  11.108 -2.6263  2.2588 -1.2353
   21SAPC  H13C 2696   3.917   2.084  10.997 -2.1799 -1.9790  0.1284
   21SAPC   C14 2697   3.692   2.348  10.977  1.0470 -0.0720 -0.1968
   21SAPC  H14A 2698   3.614   2.382  10.910  2.0784  0.4520 -1.1465
   21SAPC  H14B 2699   3.639   2.311  11.064  0.0173 -0.8123 -1.1325
   21SAPC  H14C 2700   3.759   2.430  11.000  0.8944 -0.2345  0.8760
   21SAPC   C15 2701   3.665   2.125  10.866  0.0322 -0.3845  0.3261
   21SAPC  H15A 2702   3.594   2.091  10.939 -0.4244 -0.6783 -0.2523
   21SAPC  H15B 2703   3.597   2.164  10.792  0.6184 -1.5325 -0.8294
   21SAPC  H15C 2704   3.704   2.044  10.806 -0.3029  0.6284 -1.3059
   21SAPC   C11 2705   3.972   2.365  10.837  0.1456  0.6098  0.4108
   21SAPC  H11A 2706   4.050   2.369  10.758  1.4435 -1.1539  1.5747
   21SAPC  H11B 2707   4.037   2.327  10.919  1.0498  1.8591  0.3081
   21SAPC     P 2708   3.904   2.606  10.777  0.2380  0.0674  0.2383
   21SAPC   O13 2709   3.788   2.686  10.824  0.0054  0.0479 -0.1571
   21SAPC   O14 2710   4.022   2.681  10.755  0.1787 -0.1645  0.0498
   21SAPC   O12 2711   3.933   2.493  10.874 -0.8159  0.0240  0.2918
   21SAPC   O11 2712   3.870   2.517  10.659  0.2919 -0.3437  0.8158
   21SAPC    C1 2713   3.773   2.556  10.564 -0.1061  0.8320 -0.0636
   21SAPC    HA 2714   3.723   2.653  10.584  0.2353  0.6652  1.6783
   21SAPC    HB 2715   3.822   2.573  10.466 -2.4190 -0.6850 -1.5566
   21SAPC    C2 2716   3.656   2.457  10.558  0.3763 -0.5136 -0.0609
   21SAPC    HS 2717   3.618   2.429  10.658  0.9755  0.4391  0.4430
   21SAPC   O21 2718   3.694   2.342  10.480 -0.0810 -0.0280 -0.3212
   21SAPC   C21 2719   3.605   2.243  10.477  0.1694  0.2792 -0.0490
   21SAPC   O22 2720   3.495   2.248  10.532  0.1108 -0.3479  0.0584
   21SAPC   C22 2721   3.660   2.130  10.396 -0.3549 -0.3293 -0.2226
   21SAPC   H2R 2722   3.768   2.153  10.388 -0.6822  1.2066 -0.4769
   21SAPC   H2S 2723   3.647   2.035  10.452 -2.0411  0.0649  0.1003
   21SAPC    C3 2724   3.534   2.534  10.489  0.7805 -0.0526 -0.4612
   21SAPC    HX 2725   3.490   2.601  10.565 -0.2919  0.2939 -1.3618
   21SAPC    HY 2726   3.461   2.459  10.451  0.9741  1.0954 -3.2278
   21SAPC   O31 2727   3.578   2.612  10.380  0.0999  0.3575  0.8888
   21SAPC   C31 2728   3.599   2.553  10.266  0.4306  0.9841 -0.0378
   21SAPC   O32 2729   3.595   2.435  10.236 -0.5694 -0.0746  0.4503
   21SAPC   C32 2730   3.634   2.668  10.160  0.4004  0.9544  0.1447
   21SAPC   H2X 2731   3.732   2.715  10.185 -0.4159  0.4779  4.6859
   21SAPC   H2Y 2732   3.557   2.746  10.177 -0.1909  0.2308  0.8178
   21SAPC   C23 2733   3.598   2.127  10.256  0.3268 -0.0005  0.5126
   21SAPC   H3R 2734   3.624   2.213  10.190 -0.1525 -0.1794  0.0874
   21SAPC   H3S 2735   3.490   2.151  10.264  0.4355  1.3088 -1.5844
   21SAPC   C24 2736   3.623   1.998  10.181 -0.3147  0.3465 -0.0262
   21SAPC   H4R 2737   3.564   1.982  10.088 -1.0914  1.3041  0.2911
   21SAPC   H4S 2738   3.602   1.903  10.235 -1.2744  0.1545 -0.7318
   21SAPC   C25 2739   3.776   1.997  10.162 -0.3480  0.2949 -0.1855
   21SAPC   H5R 2740   3.830   1.941  10.239 -0.1638 -1.0159 -1.2571
   21SAPC   C26 2741   3.836   2.037  10.051 -0.4327 -0.3267 -0.1893
   21SAPC   H6R 2742   3.945   2.022  10.043  0.0104  1.3421  2.2776
   21SAPC   C27 2743   3.770   2.094   9.929  0.0976 -0.0608 -0.4079
   21SAPC   H7R 2744   3.660   2.086   9.938  0.2135  0.6479  1.9042
   21SAPC   H7S 2745   3.802   2.039   9.838  0.3216  2.2857 -1.8106
   21SAPC   C28 2746   3.821   2.234   9.907  0.5473 -0.5575 -0.0736
   21SAPC   H8R 2747   3.789   2.300   9.989 -1.2618 -2.1083  0.5103
   21SAPC   C29 2748   3.888   2.287   9.806 -0.3710 -0.7243  0.5661
   21SAPC   H9R 2749   3.930   2.388   9.820  0.6344 -1.2152  1.1341
   21SAPC  C210 2750   3.921   2.201   9.688 -0.6883 -0.5336  0.4414
   21SAPC  H10R 2751   3.828   2.145   9.666 -0.0829 -1.5451  0.4213
   21SAPC  H10S 2752   3.990   2.118   9.715 -1.2393 -0.6585  1.4687
   21SAPC  C211 2753   3.978   2.275   9.566  0.1343  0.2898  0.1749
   21SAPC  H11R 2754   4.072   2.330   9.582 -0.1618  1.3286 -1.5537
   21SAPC  C212 2755   3.926   2.271   9.446 -0.1970 -0.1546  0.3783
   21SAPC  H12R 2756   3.974   2.324   9.362 -1.3556 -0.7084 -0.6382
   21SAPC  C213 2757   3.788   2.217   9.406  0.1938  0.4196 -0.5172
   21SAPC  H13R 2758   3.749   2.255   9.309  0.8731 -2.1711 -1.8254
   21SAPC  H13S 2759   3.709   2.259   9.474 -1.8915  0.1215 -2.6784
   21SAPC  C214 2760   3.774   2.069   9.399 -0.1495  0.4925  0.5252
   21SAPC  H14R 2761   3.857   2.005   9.431  0.5008  1.6440  1.1926
   21SAPC  C215 2762   3.656   2.016   9.379  0.4029  0.8249 -0.3744
   21SAPC  H15R 2763   3.643   1.907   9.367 -1.1675  0.9587 -0.0474
   21SAPC  C216 2764   3.527   2.091   9.350  0.0627  0.6343  0.1082
   21SAPC  H16R 2765   3.540   2.194   9.390 -2.9947  0.6845  1.0485
   21SAPC  H16S 2766   3.434   2.046   9.389  0.8278 -1.4233 -0.3737
   21SAPC  C217 2767   3.507   2.111   9.196  0.1451 -0.2087  0.4036
   21SAPC  H17R 2768   3.597   2.163   9.156  0.2272 -0.7646 -0.1300
   21SAPC  H17S 2769   3.422   2.179   9.174 -1.6281 -2.0105  1.5763
   21SAPC  C218 2770   3.480   1.981   9.118  0.1245 -0.1658 -0.1215
   21SAPC  H18R 2771   3.405   1.918   9.171  1.2034  1.0286  2.9287
   21SAPC  H18S 2772   3.575   1.923   9.124 -0.2535 -1.1233 -2.8136
   21SAPC  C219 2773   3.425   2.012   8.979 -0.2030  0.0477  0.4396
   21SAPC  H19R 2774   3.493   2.071   8.915 -1.4690  0.2544 -0.7397
   21SAPC  H19S 2775   3.333   2.073   8.993 -0.4422 -0.5921  1.7358
   21SAPC  C220 2776   3.397   1.890   8.898  0.7433  0.4269  0.5086
   21SAPC  H20R 2777   3.354   1.813   8.966 -0.5478  0.7138  0.0401
   21SAPC  H20S 2778   3.493   1.852   8.856  0.2758 -0.0112 -0.1736
   21SAPC  H20T 2779   3.327   1.896   8.812  1.1426 -2.0614 -0.0287
   21SAPC   C33 2780   3.626   2.602  10.019  0.3641  0.3762  0.6098
   21SAPC   H3X 2781   3.531   2.545  10.017  0.7711 -0.2700 -0.7204
   21SAPC   H3Y 2782   3.713   2.534  10.010 -0.0085 -0.1945  1.2487
   21SAPC   C34 2783   3.624   2.699   9.904  0.2999 -0.7373  0.3199
   21SAPC   H4X 2784   3.714   2.763   9.915 -0.2562  0.1696 -0.3170
   21SAPC   H4Y 2785   3.531   2.760   9.903  1.8872  1.7730 -0.9324
   21SAPC   C35 2786   3.635   2.631   9.770  0.9257 -0.3637 -0.2421
   21SAPC   H5X 2787   3.544   2.580   9.731 -0.8035  1.0992  1.7499
   21SAPC   H5Y 2788   3.716   2.555   9.774  0.5691 -0.6804  1.9108
   21SAPC   C36 2789   3.700   2.723   9.666 -1.0279 -0.2893  0.1982
   21SAPC   H6X 2790   3.796   2.764   9.705 -0.9087 -0.8379  0.5040
   21SAPC   H6Y 2791   3.636   2.811   9.645 -0.9628 -0.3544 -0.2642
   21SAPC   C37 2792   3.738   2.654   9.529  0.0826  0.2899 -0.1240
   21SAPC   H7X 2793   3.815   2.578   9.552  1.2121  1.5106  0.2042
   21SAPC   H7Y 2794   3.790   2.729   9.464 -0.1661  0.5686 -0.0021
   21SAPC   C38 2795   3.627   2.582   9.451 -1.0730  0.4200 -0.0915
   21SAPC   H8X 2796   3.532   2.639   9.450 -1.1984  0.1895 -2.1418
   21SAPC   H8Y 2797   3.617   2.482   9.499 -1.4505  1.7625  2.7027
   21SAPC   C39 2798   3.670   2.560   9.310  0.1647  0.0265 -0.2222
   21SAPC   H9X 2799   3.749   2.481   9.319 -1.6057 -1.6838  0.7090
   21SAPC   H9Y 2800   3.698   2.654   9.258 -0.2950 -0.5448 -1.5127
   21SAPC  C310 2801   3.560   2.500   9.217 -0.2036  0.2672  1.6024
   21SAPC  H10X 2802   3.476   2.573   9.214  0.8083  1.3491 -1.5044
   21SAPC  H10Y 2803   3.522   2.402   9.253  1.4943  0.1768  3.2776
   21SAPC  C311 2804   3.621   2.497   9.073  0.4395  0.1051  0.5953
   21SAPC  H11X 2805   3.708   2.428   9.071  0.6390  0.2954  1.9591
   21SAPC  H11Y 2806   3.677   2.593   9.064  2.1793 -0.9403  0.0906
   21SAPC  C312 2807   3.512   2.468   8.964  0.2643 -0.7264  0.2877
   21SAPC  H12X 2808   3.460   2.566   8.968 -1.9533 -1.8771  1.4897
   21SAPC  H12Y 2809   3.448   2.389   9.010  1.9848 -1.9927  0.5441
   21SAPC  C313 2810   3.581   2.430   8.833  0.6906  0.0987  0.1590
   21SAPC  H13X 2811   3.523   2.347   8.788 -0.0860  1.2166 -0.9353
   21SAPC  H13Y 2812   3.677   2.376   8.851  0.3414 -0.7986 -0.6371
   21SAPC  C314 2813   3.606   2.546   8.737  0.3094 -0.5471 -0.4891
   21SAPC  H14X 2814   3.684   2.509   8.667  0.3709 -0.8172 -0.2747
   21SAPC  H14Y 2815   3.650   2.633   8.790  1.7144 -2.0885  0.9063
   21SAPC  C315 2816   3.481   2.582   8.658  0.2635 -0.1793 -0.3548
   21SAPC  H15X 2817   3.400   2.611   8.728 -2.3675  2.1442 -4.1510
   21SAPC  H15Y 2818   3.440   2.498   8.599 -1.2998  0.5460 -0.3322
   21SAPC  C316 2819   3.495   2.695   8.559 -0.1712 -0.0915 -0.2020
   21SAPC  H16X 2820   3.511   2.778   8.631 -1.4169 -0.5784  0.6496
   21SAPC  H16Y 2821   3.396   2.718   8.514 -0.1780  0.9442  0.3156
   21SAPC  C317 2822   3.615   2.672   8.457 -0.2757 -0.1241 -0.1692
   21SAPC  H17X 2823   3.701   2.629   8.513  1.2859  2.3773 -0.5466
   21SAPC  H17Y 2824   3.644   2.773   8.420 -0.8136  0.4873  1.0626
   21SAPC  C318 2825   3.587   2.581   8.339 -0.0359 -0.1427  0.1622
   21SAPC  H18X 2826   3.556   2.479   8.370  0.3839 -0.0146  1.0397
   21SAPC  H18Y 2827   3.682   2.576   8.281 -2.1384 -1.1140 -3.3453
   21SAPC  H18Z 2828   3.507   2.625   8.276  1.4095 -0.5356 -2.0028
   22SAPC     N 2829   3.374   5.928  10.882  0.2988  0.1434  0.1604
   22SAPC   C12 2830   3.311   5.954  10.742  0.0120  0.2310  0.1212
   22SAPC  H12A 2831   3.205   5.949  10.762  0.2513 -3.7310  0.8725
   22SAPC  H12B 2832   3.341   5.870  10.681  0.6458 -0.6004  1.5427
   22SAPC   C13 2833   3.385   6.057  10.958 -0.9529  0.0882 -0.7855
   22SAPC  H13A 2834   3.430   6.133  10.895  1.4573 -0.3372  0.3529
   22SAPC  H13B 2835   3.290   6.104  10.979 -0.4391  0.0979  1.7652
   22SAPC  H13C 2836   3.431   6.042  11.055 -2.3007  2.2759  0.2342
   22SAPC   C14 2837   3.286   5.827  10.948  0.2620 -0.2106  1.2840
   22SAPC  H14A 2838   3.335   5.791  11.037  1.1182 -2.7248 -0.1531
   22SAPC  H14B 2839   3.192   5.874  10.973  1.3514  1.8590  1.5901
   22SAPC  H14C 2840   3.283   5.732  10.896  1.9355  0.4957 -0.1261
   22SAPC   C15 2841   3.509   5.877  10.870  0.2232  0.1068 -0.1290
   22SAPC  H15A 2842   3.569   5.959  10.834  1.6750 -0.4559  0.9360
   22SAPC  H15B 2843   3.550   5.850  10.966 -0.5340 -0.8968 -0.0766
   22SAPC  H15C 2844   3.543   5.800  10.802 -2.4859 -0.2504 -1.1389
   22SAPC   C11 2845   3.351   6.085  10.662  0.1666  0.0043 -0.0095
   22SAPC  H11A 2846   3.302   6.082  10.563  1.4509 -1.6795 -0.6331
   22SAPC  H11B 2847   3.459   6.067  10.642  0.3750  0.8321  0.3432
   22SAPC     P 2848   3.422   6.340  10.705  0.0862 -0.1311 -0.2340
   22SAPC   O13 2849   3.335   6.450  10.736 -0.0020 -0.1616  0.0455
   22SAPC   O14 2850   3.550   6.322  10.784  0.0251 -0.0977  0.3780
   22SAPC   O12 2851   3.330   6.212  10.720  0.0509 -0.1739  0.6994
   22SAPC   O11 2852   3.456   6.339  10.556  0.7881 -0.4421 -0.3035
   22SAPC    C1 2853   3.445   6.451  10.475 -0.6866  0.1460  0.2210
   22SAPC    HA 2854   3.403   6.546  10.512  0.7292  0.7136  0.3892
   22SAPC    HB 2855   3.551   6.479  10.453  0.3768 -3.4939  0.3508
   22SAPC    C2 2856   3.379   6.419  10.338  0.1611  0.2390 -0.2017
   22SAPC    HS 2857   3.354   6.513  10.285 -1.9235  0.3945  1.0098
   22SAPC   O21 2858   3.261   6.343  10.368  0.0279  0.0734 -0.1332
   22SAPC   C21 2859   3.163   6.417  10.411 -0.3782 -0.0484 -0.3718
   22SAPC   O22 2860   3.161   6.534  10.433  0.0638 -0.0123  0.5593
   22SAPC   C22 2861   3.033   6.332  10.402 -0.3066 -0.4311  0.0578
   22SAPC   H2R 2862   3.041   6.225  10.372 -0.9291 -0.9460  1.6895
   22SAPC   H2S 2863   2.992   6.335  10.505  1.8711 -2.4115  1.0243
   22SAPC    C3 2864   3.476   6.343  10.238 -0.9323  0.5390  0.4601
   22SAPC    HX 2865   3.492   6.248  10.294 -0.0365  0.1045 -0.5361
   22SAPC    HY 2866   3.566   6.407  10.248  0.9081 -1.7678 -0.8000
   22SAPC   O31 2867   3.434   6.342  10.100 -0.6375 -0.4924  0.0280
   22SAPC   C31 2868   3.405   6.222  10.052  0.3612  0.3973 -0.2431
   22SAPC   O32 2869   3.422   6.117  10.116 -0.2709  0.0253 -0.0796
   22SAPC   C32 2870   3.327   6.221   9.920  0.4165  0.3153 -0.1140
   22SAPC   H2X 2871   3.268   6.314   9.936 -1.6158 -1.0504  0.5157
   22SAPC   H2Y 2872   3.266   6.128   9.921  0.0735  0.5386  0.0923
   22SAPC   C23 2873   2.942   6.385  10.297  0.0988  0.1781  0.4292
   22SAPC   H3R 2874   2.906   6.488  10.316 -2.6352 -0.5800 -0.2936
   22SAPC   H3S 2875   2.852   6.319  10.287  1.3542 -1.4733 -0.2460
   22SAPC   C24 2876   3.008   6.381  10.150  0.0127  0.7499 -0.0996
   22SAPC   H4R 2877   3.008   6.277  10.109  0.2302 -0.0818  1.9604
   22SAPC   H4S 2878   3.110   6.424  10.148  0.2880  0.0804 -1.3983
   22SAPC   C25 2879   2.922   6.475  10.064  1.0346  0.6362  0.0957
   22SAPC   H5R 2880   2.885   6.561  10.122 -2.3932 -0.2239 -0.7067
   22SAPC   C26 2881   2.904   6.470   9.928 -0.3330  0.9546  0.1373
   22SAPC   H6R 2882   2.836   6.540   9.878  0.7994  0.8947 -1.5410
   22SAPC   C27 2883   2.964   6.366   9.829 -0.2452  0.0341  0.5748
   22SAPC   H7R 2884   2.882   6.292   9.822 -0.3979  0.2692 -0.2122
   22SAPC   H7S 2885   3.059   6.320   9.864 -1.4108 -0.3412  3.4500
   22SAPC   C28 2886   2.993   6.431   9.694  0.3614  0.7012 -0.2529
   22SAPC   H8R 2887   3.028   6.534   9.710 -0.8441  1.3698 -1.7849
   22SAPC   C29 2888   2.956   6.396   9.573  0.0748  0.1790 -0.5115
   22SAPC   H9R 2889   3.001   6.442   9.483  1.3560 -0.5171 -0.2413
   22SAPC  C210 2890   2.881   6.275   9.527  0.0369  0.3301  0.1330
   22SAPC  H10R 2891   2.889   6.196   9.604 -3.7475  0.1976  0.5190
   22SAPC  H10S 2892   2.922   6.232   9.433 -0.9731  0.1261 -0.2294
   22SAPC  C211 2893   2.730   6.296   9.525  0.7627 -0.1252 -0.4287
   22SAPC  H11R 2894   2.686   6.307   9.625 -0.4491 -1.4176 -0.8183
   22SAPC  C212 2895   2.657   6.292   9.416 -0.1215  0.2932 -0.6521
   22SAPC  H12R 2896   2.549   6.303   9.433  0.3552  1.0006  2.1014
   22SAPC  C213 2897   2.705   6.274   9.282  0.0315 -0.0807 -0.3170
   22SAPC  H13R 2898   2.764   6.180   9.289  1.0553  0.5692 -0.1022
   22SAPC  H13S 2899   2.780   6.354   9.264 -0.2054 -0.3282 -2.4785
   22SAPC  C214 2900   2.600   6.282   9.170  0.3458  0.5091  0.0195
   22SAPC  H14R 2901   2.495   6.261   9.195  0.8399  1.1441  2.7963
   22SAPC  C215 2902   2.626   6.323   9.044  0.7347 -0.0795  0.3410
   22SAPC  H15R 2903   2.540   6.318   8.975  0.4350  0.8849  0.6398
   22SAPC  C216 2904   2.756   6.368   8.978  0.2862  0.0290 -0.2065
   22SAPC  H16R 2905   2.834   6.396   9.052 -1.1858 -0.0210  1.3842
   22SAPC  H16S 2906   2.736   6.463   8.924  0.3010 -0.1601 -0.5441
   22SAPC  C217 2907   2.817   6.271   8.869 -0.1680 -0.0763 -0.1857
   22SAPC  H17R 2908   2.847   6.176   8.918 -0.7084 -0.1891 -0.0703
   22SAPC  H17S 2909   2.912   6.316   8.832 -0.3017  0.0460 -0.3773
   22SAPC  C218 2910   2.721   6.221   8.757 -0.3034 -0.4186  0.2991
   22SAPC  H18R 2911   2.695   6.306   8.691 -1.8337  0.9821  2.6445
   22SAPC  H18S 2912   2.628   6.175   8.798 -1.5454  1.4874 -0.3503
   22SAPC  C219 2913   2.786   6.118   8.658 -0.2250 -0.3053 -0.4460
   22SAPC  H19R 2914   2.838   6.049   8.727 -1.3666 -0.0951  0.6423
   22SAPC  H19S 2915   2.871   6.167   8.605 -2.3318  1.4993 -2.2340
   22SAPC  C220 2916   2.694   6.049   8.554  0.0313  0.6111  0.1455
   22SAPC  H20R 2917   2.748   5.961   8.513  1.1369  0.5326  1.7352
   22SAPC  H20S 2918   2.669   6.120   8.471  1.6910  0.8663 -0.1586
   22SAPC  H20T 2919   2.599   6.011   8.597  0.1742  0.1241  0.0324
   22SAPC   C33 2920   3.420   6.217   9.797  0.0868 -0.0841  0.3087
   22SAPC   H3X 2921   3.489   6.131   9.800  0.8308  0.4849 -0.2385
   22SAPC   H3Y 2922   3.472   6.314   9.786 -1.5279  0.7929  0.1631
   22SAPC   C34 2923   3.333   6.190   9.679  0.3039  0.2747 -0.4155
   22SAPC   H4X 2924   3.280   6.286   9.663 -0.9362 -0.3253  0.0725
   22SAPC   H4Y 2925   3.258   6.113   9.708  1.5193  0.0153  2.2493
   22SAPC   C35 2926   3.413   6.142   9.561 -0.1598  0.0936  0.8130
   22SAPC   H5X 2927   3.470   6.054   9.600  3.6940  0.7521 -2.8666
   22SAPC   H5Y 2928   3.483   6.218   9.521  0.7685 -0.1300  1.9895
   22SAPC   C36 2929   3.338   6.103   9.438 -0.0721 -0.3200 -0.0168
   22SAPC   H6X 2930   3.256   6.032   9.464  0.3933 -0.0186  2.3048
   22SAPC   H6Y 2931   3.400   6.057   9.358  0.1482  1.6033 -0.9837
   22SAPC   C37 2932   3.265   6.216   9.375  0.6964 -0.6267  0.1460
   22SAPC   H7X 2933   3.334   6.303   9.364 -0.6173  0.3220 -0.7729
   22SAPC   H7Y 2934   3.184   6.245   9.445  0.0955  2.6365 -1.7792
   22SAPC   C38 2935   3.187   6.190   9.245 -0.4026  0.2087  0.1441
   22SAPC   H8X 2936   3.102   6.262   9.237 -1.0317 -0.7327 -1.8657
   22SAPC   H8Y 2937   3.140   6.089   9.242  1.5923 -0.7280  0.0728
   22SAPC   C39 2938   3.273   6.213   9.118  0.4339 -0.1715 -0.4931
   22SAPC   H9X 2939   3.350   6.134   9.117  1.0115  0.3903 -1.7543
   22SAPC   H9Y 2940   3.324   6.311   9.127 -1.7120  1.0576 -1.1755
   22SAPC  C310 2941   3.193   6.217   8.983  1.0037  0.1635 -0.5091
   22SAPC  H10X 2942   3.110   6.290   8.975 -1.2416 -2.2792 -0.5037
   22SAPC  H10Y 2943   3.138   6.120   8.976  0.1860  0.7005 -1.8378
   22SAPC  C311 2944   3.282   6.216   8.853  0.5475  0.1801  0.1826
   22SAPC  H11X 2945   3.367   6.150   8.881 -0.8720 -1.2474  1.2301
   22SAPC  H11Y 2946   3.313   6.322   8.838 -2.2067  1.4299  2.7831
   22SAPC  C312 2947   3.202   6.162   8.735  0.0495 -0.7454 -0.0658
   22SAPC  H12X 2948   3.098   6.199   8.736  0.0104 -0.8492  1.3517
   22SAPC  H12Y 2949   3.206   6.051   8.733 -2.9332 -0.8809  0.0626
   22SAPC  C313 2950   3.262   6.203   8.594 -0.3277 -0.4766 -0.0926
   22SAPC  H13X 2951   3.215   6.138   8.517 -0.0042  0.0115 -0.7026
   22SAPC  H13Y 2952   3.373   6.195   8.591 -0.2748  0.4069 -1.0136
   22SAPC  C314 2953   3.228   6.351   8.557 -0.4051  0.1915  0.2607
   22SAPC  H14X 2954   3.295   6.418   8.614 -2.1279  2.0908  0.1166
   22SAPC  H14Y 2955   3.128   6.386   8.590  0.1555  0.6421  1.5036
   22SAPC  C315 2956   3.246   6.370   8.404 -0.2586  0.2069 -0.0158
   22SAPC  H15X 2957   3.179   6.304   8.345 -1.2845  1.8756 -0.7278
   22SAPC  H15Y 2958   3.349   6.351   8.368 -0.7957 -0.6898 -1.1143
   22SAPC  C316 2959   3.213   6.514   8.367 -0.1541  0.0230  0.4731
   22SAPC  H16X 2960   3.283   6.587   8.414  1.2293 -0.7774 -0.3271
   22SAPC  H16Y 2961   3.108   6.542   8.393 -0.3258  0.7805 -0.9945
   22SAPC  C317 2962   3.244   6.518   8.216 -0.4709  0.2591  0.3649
   22SAPC  H17X 2963   3.202   6.433   8.159 -0.5286  1.6269 -1.6655
   22SAPC  H17Y 2964   3.354   6.503   8.212 -0.2076  2.3347 -0.6871
   22SAPC  C318 2965   3.194   6.644   8.149  0.0831 -0.3691 -0.5852
   22SAPC  H18X 2966   3.100   6.687   8.189  1.2827  1.2240  0.5688
   22SAPC  H18Y 2967   3.179   6.630   8.039 -2.4594  0.4834 -0.3732
   22SAPC  H18Z 2968   3.273   6.722   8.160 -0.9788  0.6349 -0.0532
   23SAPC     N 2969   4.745   1.144  10.620 -0.2580 -0.0873 -0.2379
   23SAPC   C12 2970   4.775   1.288  10.580 -0.7658  0.5762  0.1718
   23SAPC  H12A 2971   4.869   1.298  10.529  0.1513  0.5215  1.8433
   23SAPC  H12B 2972   4.799   1.334  10.675 -1.7532 -2.4338  1.9684
   23SAPC   C13 2973   4.755   1.056  10.498 -0.6567 -0.2162  0.0195
   23SAPC  H13A 2974   4.847   1.054  10.442 -1.2002  0.4772 -0.9168
   23SAPC  H13B 2975   4.728   0.957  10.531 -2.0876  1.2096  3.5167
   23SAPC  H13C 2976   4.677   1.081  10.427 -0.3247  0.8706  0.0291
   23SAPC   C14 2977   4.853   1.108  10.718  0.3359  0.8193 -0.4485
   23SAPC  H14A 2978   4.952   1.106  10.675 -0.2280 -2.8180 -1.7780
   23SAPC  H14B 2979   4.857   1.177  10.801  2.0464 -0.0754  0.2458
   23SAPC  H14C 2980   4.824   1.012  10.758  1.4313 -0.0806 -1.7642
   23SAPC   C15 2981   4.612   1.129  10.689  0.1406 -0.2495  0.1747
   23SAPC  H15A 2982   4.601   1.024  10.710 -0.2240 -0.6224 -1.7543
   23SAPC  H15B 2983   4.593   1.184  10.780  2.2713  0.4065  0.2438
   23SAPC  H15C 2984   4.526   1.156  10.628  0.9190 -1.5627 -1.5485
   23SAPC   C11 2985   4.660   1.373  10.517 -0.2082 -0.1685 -0.4935
   23SAPC  H11A 2986   4.618   1.333  10.423 -0.5989 -2.9940  0.8034
   23SAPC  H11B 2987   4.726   1.451  10.473  0.6646 -0.1176  0.8562
   23SAPC     P 2988   4.614   1.524  10.726 -0.7642  0.5646 -0.1213
   23SAPC   O13 2989   4.498   1.613  10.747 -0.6668  0.5507  0.0881
   23SAPC   O14 2990   4.667   1.446  10.842  0.1738  0.6221 -0.0026
   23SAPC   O12 2991   4.566   1.421  10.618  0.2825  0.2566 -0.0889
   23SAPC   O11 2992   4.736   1.606  10.670 -0.0032 -0.4610 -0.0807
   23SAPC    C1 2993   4.723   1.748  10.653  0.4070  0.0712 -0.6036
   23SAPC    HA 2994   4.619   1.785  10.664  0.2969  0.2308 -1.9830
   23SAPC    HB 2995   4.794   1.792  10.726  3.0325 -2.2927 -1.6103
   23SAPC    C2 2996   4.768   1.794  10.512  0.4753 -0.2710  0.1413
   23SAPC    HS 2997   4.761   1.905  10.513  0.1777 -0.2110 -3.1518
   23SAPC   O21 2998   4.694   1.727  10.409 -0.0682  0.9244  0.3903
   23SAPC   C21 2999   4.568   1.757  10.387 -0.0614  0.6145 -0.5890
   23SAPC   O22 3000   4.514   1.848  10.445 -0.2221  0.5334 -0.1721
   23SAPC   C22 3001   4.513   1.648  10.281  0.3159  0.2506  0.2235
   23SAPC   H2R 3002   4.510   1.553  10.339  1.0787 -0.2515 -0.5642
   23SAPC   H2S 3003   4.407   1.673  10.259  0.5124  0.0695 -0.9236
   23SAPC    C3 3004   4.914   1.761  10.471 -0.1101 -0.2162  0.0821
   23SAPC    HX 3005   4.908   1.652  10.452  0.2018  0.1672 -2.3077
   23SAPC    HY 3006   4.978   1.795  10.556  0.9532 -1.2739 -0.2809
   23SAPC   O31 3007   4.963   1.829  10.353 -0.0508 -0.1604  0.4942
   23SAPC   C31 3008   5.062   1.770  10.282 -0.2753 -0.2016  0.9155
   23SAPC   O32 3009   5.104   1.659  10.303 -0.6502  0.1277 -0.4682
   23SAPC   C32 3010   5.108   1.861  10.164  0.0659  0.6801 -0.1283
   23SAPC   H2X 3011   5.217   1.869  10.187 -0.4651 -0.0068  2.8050
   23SAPC   H2Y 3012   5.065   1.960  10.192 -0.7137 -0.0504  1.2814
   23SAPC   C23 3013   4.598   1.631  10.157  0.5431 -0.0127 -0.6656
   23SAPC   H3R 3014   4.704   1.636  10.189  1.3760  1.4283 -3.5028
   23SAPC   H3S 3015   4.598   1.718  10.088  1.9510  1.0073  0.6018
   23SAPC   C24 3016   4.559   1.511  10.066 -0.5360  0.3370  0.0115
   23SAPC   H4R 3017   4.576   1.411  10.112 -0.4377 -0.5584 -1.9251
   23SAPC   H4S 3018   4.619   1.503   9.973  3.2583 -0.1243  2.4056
   23SAPC   C25 3019   4.414   1.529  10.033  0.8646  0.1682 -0.1538
   23SAPC   H5R 3020   4.348   1.525  10.120 -1.1039  0.6903 -1.5859
   23SAPC   C26 3021   4.366   1.566   9.918 -0.2926  0.3649  0.4784
   23SAPC   H6R 3022   4.259   1.587   9.907 -0.9736 -2.7383  0.8482
   23SAPC   C27 3023   4.448   1.593   9.798  0.5940  0.6430  0.1458
   23SAPC   H7R 3024   4.526   1.668   9.823  1.0804 -0.4305  1.9785
   23SAPC   H7S 3025   4.385   1.646   9.723  0.0140 -2.9754 -2.0626
   23SAPC   C28 3026   4.500   1.469   9.731  0.3425  0.5074  0.2016
   23SAPC   H8R 3027   4.562   1.399   9.790  0.6910  0.7230  0.0905
   23SAPC   C29 3028   4.481   1.424   9.608 -0.8249 -0.4510 -0.8790
   23SAPC   H9R 3029   4.524   1.328   9.578 -0.7355 -0.0552 -2.0543
   23SAPC  C210 3030   4.403   1.482   9.500  0.1132  0.5749  0.1542
   23SAPC  H10R 3031   4.478   1.504   9.421 -0.8229 -0.3332 -0.9973
   23SAPC  H10S 3032   4.360   1.575   9.541  3.0292  1.7685  0.6160
   23SAPC  C211 3033   4.289   1.392   9.466  0.6335  0.3413  0.2570
   23SAPC  H11R 3034   4.232   1.341   9.544  2.3476 -0.5750  0.9371
   23SAPC  C212 3035   4.245   1.373   9.344 -0.1253 -0.5736 -0.5003
   23SAPC  H12R 3036   4.158   1.306   9.334 -1.3064  0.8077  0.2790
   23SAPC  C213 3037   4.306   1.443   9.224  0.2991  0.3763 -1.0255
   23SAPC  H13R 3038   4.324   1.549   9.248  2.3122  0.1572 -1.5297
   23SAPC  H13S 3039   4.214   1.438   9.162 -0.5743 -0.1769  0.2922
   23SAPC  C214 3040   4.436   1.407   9.160  0.1377  0.3256 -0.2147
   23SAPC  H14R 3041   4.505   1.336   9.208 -0.4455  1.1356  1.8843
   23SAPC  C215 3042   4.484   1.473   9.057 -0.3681 -0.0490  0.3871
   23SAPC  H15R 3043   4.577   1.429   9.017  0.6106  0.0559  2.4568
   23SAPC  C216 3044   4.430   1.595   8.985 -0.7426  0.3399  0.0910
   23SAPC  H16R 3045   4.485   1.685   9.020 -0.1512 -0.3488  0.9593
   23SAPC  H16S 3046   4.322   1.610   9.003 -1.2216 -4.7516  2.3032
   23SAPC  C217 3047   4.448   1.586   8.831  0.0302 -0.5083 -0.0220
   23SAPC  H17R 3048   4.400   1.493   8.796  0.0737 -0.0294 -1.3952
   23SAPC  H17S 3049   4.558   1.581   8.812  0.0243 -0.0347 -0.1996
   23SAPC  C218 3050   4.381   1.714   8.770  0.5453  0.2178  0.5241
   23SAPC  H18R 3051   4.439   1.800   8.809  1.2937 -0.9464  2.0613
   23SAPC  H18S 3052   4.275   1.706   8.804  0.7631 -0.3837  1.0917
   23SAPC  C219 3053   4.372   1.710   8.615 -0.0446 -0.2305  0.1841
   23SAPC  H19R 3054   4.329   1.612   8.586  0.3741 -0.3449 -0.0604
   23SAPC  H19S 3055   4.474   1.714   8.572 -0.5218  1.4587 -0.8484
   23SAPC  C220 3056   4.302   1.828   8.558 -0.0039 -0.3533 -0.0055
   23SAPC  H20R 3057   4.242   1.793   8.471  0.4924  0.4409 -0.6748
   23SAPC  H20S 3058   4.374   1.888   8.498  0.0542 -0.3325  0.0848
   23SAPC  H20T 3059   4.249   1.901   8.623 -0.2264 -0.1131 -0.4579
   23SAPC   C33 3060   5.059   1.814  10.027 -0.2057  0.4468 -1.2245
   23SAPC   H3X 3061   5.062   1.703  10.018  0.2786  0.4275 -0.8547
   23SAPC   H3Y 3062   5.139   1.844   9.957 -0.5268 -0.4017 -1.9615
   23SAPC   C34 3063   4.921   1.871  10.010 -0.2860  0.6129 -0.2588
   23SAPC   H4X 3064   4.930   1.980   9.991  1.4020  0.4731 -0.3070
   23SAPC   H4Y 3065   4.860   1.852  10.101 -0.3672  1.3737 -0.1485
   23SAPC   C35 3066   4.839   1.807   9.895 -0.0419 -0.3252  0.7023
   23SAPC   H5X 3067   4.740   1.856   9.905  0.6247  1.4438 -1.2110
   23SAPC   H5Y 3068   4.809   1.703   9.921  1.1181 -1.3454 -1.9355
   23SAPC   C36 3069   4.893   1.833   9.763 -0.5524 -0.2927  1.0163
   23SAPC   H6X 3070   4.997   1.794   9.756 -1.2809 -2.6467  2.8457
   23SAPC   H6Y 3071   4.909   1.939   9.733  0.3559 -1.0147 -1.2184
   23SAPC   C37 3072   4.803   1.772   9.657  0.5108  0.0143 -0.7483
   23SAPC   H7X 3073   4.695   1.792   9.674  1.5121  3.4847  2.2291
   23SAPC   H7Y 3074   4.802   1.661   9.664  0.2688 -0.1042 -2.5060
   23SAPC   C38 3075   4.843   1.809   9.512 -0.2451 -0.4590 -0.2266
   23SAPC   H8X 3076   4.953   1.811   9.497 -0.1757 -0.2378  0.2691
   23SAPC   H8Y 3077   4.824   1.918   9.503  0.9041 -0.2212  0.0745
   23SAPC   C39 3078   4.778   1.728   9.406 -0.3843 -0.3394 -0.1883
   23SAPC   H9X 3079   4.668   1.731   9.419 -0.6579 -1.9056 -1.9081
   23SAPC   H9Y 3080   4.812   1.623   9.417 -2.2971 -0.8625  0.8569
   23SAPC  C310 3081   4.820   1.771   9.263 -0.4303 -0.4410 -0.0743
   23SAPC  H10X 3082   4.927   1.756   9.238  0.2961  0.6761  2.2700
   23SAPC  H10Y 3083   4.790   1.877   9.245  0.8563 -0.0985 -0.3040
   23SAPC  C311 3084   4.753   1.696   9.153  0.5398 -0.1833  0.2973
   23SAPC  H11X 3085   4.651   1.663   9.183  0.4874 -1.0046 -0.7652
   23SAPC  H11Y 3086   4.805   1.602   9.126 -1.3257 -0.0779 -4.1404
   23SAPC  C312 3087   4.747   1.785   9.031 -0.8283 -0.2124  0.3380
   23SAPC  H12X 3088   4.710   1.887   9.053  2.9312  1.4411 -0.4913
   23SAPC  H12Y 3089   4.682   1.738   8.955 -0.0432  1.6439 -1.5239
   23SAPC  C313 3090   4.882   1.794   8.956  0.5292 -0.4868 -0.5282
   23SAPC  H13X 3091   4.966   1.839   9.013  1.8470 -3.8340  0.3117
   23SAPC  H13Y 3092   4.858   1.865   8.874  0.9115  0.1448 -0.1030
   23SAPC  C314 3093   4.926   1.655   8.897 -0.1878  1.0856  0.1845
   23SAPC  H14X 3094   4.837   1.594   8.866  0.0497  0.4528  0.7390
   23SAPC  H14Y 3095   4.987   1.600   8.971  0.4694  3.4654  1.4477
   23SAPC  C315 3096   5.022   1.670   8.778 -0.7175 -0.7971 -0.3541
   23SAPC  H15X 3097   5.058   1.572   8.741 -2.1721 -1.4416 -0.1280
   23SAPC  H15Y 3098   5.110   1.727   8.813  0.2580 -1.8790 -1.0258
   23SAPC  C316 3099   4.951   1.747   8.667 -0.8180  0.1711 -0.6828
   23SAPC  H16X 3100   4.935   1.850   8.705  0.1208 -0.1641  0.6743
   23SAPC  H16Y 3101   4.855   1.702   8.636  0.7507 -3.1574 -0.9335
   23SAPC  C317 3102   5.034   1.757   8.535  0.3560  0.3475  0.0133
   23SAPC  H17X 3103   4.967   1.806   8.462  0.4308 -0.1485 -0.3876
   23SAPC  H17Y 3104   5.049   1.658   8.486 -1.9333  1.2019 -2.5480
   23SAPC  C318 3105   5.170   1.827   8.551 -0.3679 -0.1992  0.2935
   23SAPC  H18X 3106   5.222   1.822   8.453  0.5519  0.2408  0.7464
   23SAPC  H18Y 3107   5.239   1.785   8.629  2.0167  1.1398 -1.0298
   23SAPC  H18Z 3108   5.142   1.930   8.581 -1.7475 -0.9656  1.7154
   24SAPC     N 3109   0.936   2.164  11.183 -0.3634  0.1249  0.2272
   24SAPC   C12 3110   0.856   2.118  11.066  0.1186  1.2369  0.3005
   24SAPC  H12A 3111   0.867   2.193  10.990 -0.8019 -0.0594 -1.1504
   24SAPC  H12B 3112   0.752   2.114  11.095 -0.0193 -0.2684 -0.3614
   24SAPC   C13 3113   0.877   2.288  11.237 -0.3840 -0.0502  0.4258
   24SAPC  H13A 3114   0.928   2.318  11.327 -0.1765 -0.6037  0.4932
   24SAPC  H13B 3115   0.896   2.370  11.170  0.5008 -0.8682 -0.3276
   24SAPC  H13C 3116   0.770   2.279  11.252 -0.4111  0.0838  0.3128
   24SAPC   C14 3117   0.944   2.066  11.294 -0.6965 -0.1838 -0.1235
   24SAPC  H14A 3118   0.847   2.026  11.321 -0.4683 -2.4548 -2.4991
   24SAPC  H14B 3119   0.999   1.981  11.257 -0.1792  1.2462 -2.6729
   24SAPC  H14C 3120   0.988   2.113  11.381 -1.3110  1.8681 -0.8994
   24SAPC   C15 3121   1.083   2.195  11.143  0.0626  0.9236  0.2525
   24SAPC  H15A 3122   1.141   2.210  11.233 -0.1791 -0.3722  0.6334
   24SAPC  H15B 3123   1.125   2.104  11.101 -3.1068 -0.3089 -0.3450
   24SAPC  H15C 3124   1.102   2.278  11.077 -0.1430  0.3260 -0.5616
   24SAPC   C11 3125   0.898   1.978  11.008 -0.4056  0.4960  0.3442
   24SAPC  H11A 3126   1.008   1.987  11.017 -0.5627  2.1252  0.6321
   24SAPC  H11B 3127   0.875   1.973  10.899 -0.0592  0.1040  0.2883
   24SAPC     P 3128   0.712   1.793  11.041 -0.1110 -0.1355 -0.1326
   24SAPC   O13 3129   0.698   1.680  11.135 -0.2160 -0.2811  0.1914
   24SAPC   O14 3130   0.601   1.893  11.034 -0.0543 -0.0455 -0.0748
   24SAPC   O12 3131   0.848   1.866  11.081 -0.1517 -0.4040  0.5361
   24SAPC   O11 3132   0.744   1.731  10.893 -0.2253  0.0917  0.5518
   24SAPC    C1 3133   0.722   1.803  10.778 -0.4857  0.0812 -0.0750
   24SAPC    HA 3134   0.681   1.904  10.798  1.7245  0.7797  1.1007
   24SAPC    HB 3135   0.817   1.824  10.724 -1.6798  1.3347 -1.7390
   24SAPC    C2 3136   0.628   1.730  10.675  0.2677  0.4978  0.2168
   24SAPC    HS 3137   0.677   1.636  10.643 -0.4564 -0.0134  0.5788
   24SAPC   O21 3138   0.591   1.813  10.564 -0.2576 -0.3553 -0.1863
   24SAPC   C21 3139   0.675   1.826  10.460  0.0489 -0.0269 -0.3436
   24SAPC   O22 3140   0.785   1.775  10.445 -0.2038  0.1818 -0.0298
   24SAPC   C22 3141   0.605   1.898  10.353 -0.6987  0.2669  0.0553
   24SAPC   H2R 3142   0.502   1.858  10.345  0.3962 -2.9444  1.4101
   24SAPC   H2S 3143   0.608   2.006  10.379  2.0745  0.7102 -1.8337
   24SAPC    C3 3144   0.494   1.692  10.746 -0.5519  0.1632  0.3764
   24SAPC    HX 3145   0.450   1.791  10.767 -1.2384 -0.8257  3.9694
   24SAPC    HY 3146   0.504   1.642  10.845 -0.2632  1.5106  1.0253
   24SAPC   O31 3147   0.426   1.611  10.656  0.0304  0.1661 -0.4224
   24SAPC   C31 3148   0.313   1.652  10.599 -0.9121  0.1999 -0.6059
   24SAPC   O32 3149   0.254   1.756  10.620 -0.2708 -0.4873 -0.2526
   24SAPC   C32 3150   0.279   1.564  10.477 -0.2364 -0.4221  0.2040
   24SAPC   H2X 3151   0.169   1.579  10.465 -0.4862 -1.5793  0.9782
   24SAPC   H2Y 3152   0.306   1.458  10.494  2.0716  0.1698  0.3320
   24SAPC   C23 3153   0.687   1.874  10.223  0.0137  0.5567 -0.7932
   24SAPC   H3R 3154   0.716   1.768  10.205  1.6447  0.5765  1.5216
   24SAPC   H3S 3155   0.773   1.943  10.222  0.8059 -0.2182  3.5891
   24SAPC   C24 3156   0.595   1.914  10.109  0.4022  0.3857  0.1393
   24SAPC   H4R 3157   0.497   1.862  10.125  0.5057 -0.0538 -0.6327
   24SAPC   H4S 3158   0.643   1.877  10.016  0.6278 -2.3011  1.2786
   24SAPC   C25 3159   0.564   2.058  10.085 -0.5164  0.3244  0.3428
   24SAPC   H5R 3160   0.538   2.103  10.182  0.3999  2.3222 -0.3214
   24SAPC   C26 3161   0.560   2.134   9.969 -0.1992  0.7816  0.4779
   24SAPC   H6R 3162   0.541   2.242   9.975 -1.6159  0.6121 -0.7413
   24SAPC   C27 3163   0.586   2.088   9.823 -0.0058  0.5320 -0.2760
   24SAPC   H7R 3164   0.684   2.036   9.823 -0.5122 -0.4371  0.6813
   24SAPC   H7S 3165   0.592   2.180   9.760  1.1259  0.3865 -0.3965
   24SAPC   C28 3166   0.475   2.009   9.761 -0.3796 -0.8456  0.6233
   24SAPC   H8R 3167   0.423   1.946   9.835 -0.0798 -1.0294  0.6779
   24SAPC   C29 3168   0.461   1.989   9.628  0.6734 -0.3838  0.5759
   24SAPC   H9R 3169   0.392   1.915   9.584 -1.0090  2.0296 -0.9447
   24SAPC  C210 3170   0.552   2.049   9.521  0.1091 -0.5447 -0.0368
   24SAPC  H10R 3171   0.655   2.046   9.561  0.2951 -1.1359 -0.5377
   24SAPC  H10S 3172   0.527   2.155   9.499  2.8178  0.0131 -0.5504
   24SAPC  C211 3173   0.555   1.994   9.380 -0.0388 -0.2996  0.6883
   24SAPC  H11R 3174   0.633   1.918   9.376  0.8591  0.5814  1.2625
   24SAPC  C212 3175   0.486   2.025   9.269  0.2300  0.5551 -1.1647
   24SAPC  H12R 3176   0.486   1.966   9.175 -2.3780 -0.1656 -0.7462
   24SAPC  C213 3177   0.378   2.132   9.251 -0.0516  0.0519  0.6602
   24SAPC  H13R 3178   0.357   2.197   9.338 -0.9920  2.4943 -1.3507
   24SAPC  H13S 3179   0.285   2.077   9.225  0.3073 -1.4942  2.5111
   24SAPC  C214 3180   0.422   2.221   9.141  0.2035 -0.1020  0.0767
   24SAPC  H14R 3181   0.495   2.302   9.159 -1.4029  1.5378 -0.6951
   24SAPC  C215 3182   0.394   2.218   9.012 -0.3762  0.5595  0.2839
   24SAPC  H15R 3183   0.415   2.307   8.952 -0.4445  0.2893 -0.1369
   24SAPC  C216 3184   0.300   2.116   8.941 -0.2710 -0.1175 -0.9492
   24SAPC  H16R 3185   0.247   2.053   9.015 -0.2924  0.0609 -0.8124
   24SAPC  H16S 3186   0.360   2.053   8.873 -1.5114  0.3754 -2.5281
   24SAPC  C217 3187   0.177   2.186   8.877  0.1727 -0.6989 -0.3281
   24SAPC  H17R 3188   0.133   2.263   8.944  0.4002 -0.8231 -0.0348
   24SAPC  H17S 3189   0.099   2.112   8.849 -1.9279  0.9370  1.0738
   24SAPC  C218 3190   0.208   2.259   8.746  0.2303  0.4774 -0.0073
   24SAPC  H18R 3191   0.220   2.177   8.672  0.2597  0.7613 -0.3196
   24SAPC  H18S 3192   0.303   2.316   8.743 -0.1512  1.2192  1.7017
   24SAPC  C219 3193   0.103   2.360   8.699 -0.2889  0.0190  0.1916
   24SAPC  H19R 3194   0.094   2.421   8.791 -1.7464 -0.2474  0.2522
   24SAPC  H19S 3195   0.002   2.316   8.680  0.8845 -1.9383 -1.7552
   24SAPC  C220 3196   0.151   2.452   8.587 -0.5483 -0.1653 -0.5062
   24SAPC  H20R 3197   0.156   2.400   8.489 -2.9983 -0.7697 -0.3460
   24SAPC  H20S 3198   0.256   2.487   8.600 -0.9946  1.6651 -1.5478
   24SAPC  H20T 3199   0.085   2.541   8.577 -1.1378 -0.2068  2.4456
   24SAPC   C33 3200   0.350   1.626  10.354  0.4276 -0.2184  0.3817
   24SAPC   H3X 3201   0.460   1.624  10.363  0.4108  1.8544  1.4008
   24SAPC   H3Y 3202   0.310   1.730  10.357  0.7259 -0.1179  0.8802
   24SAPC   C34 3203   0.324   1.549  10.227  0.4803 -0.5140 -0.8346
   24SAPC   H4X 3204   0.217   1.534  10.201  0.5673 -0.9018 -0.9844
   24SAPC   H4Y 3205   0.368   1.447  10.238 -0.3179 -0.5913  1.8684
   24SAPC   C35 3206   0.387   1.612  10.100  0.1196  0.0293 -0.7027
   24SAPC   H5X 3207   0.497   1.625  10.109  0.3822 -1.8859 -0.9983
   24SAPC   H5Y 3208   0.338   1.707  10.071 -0.5821 -0.3767 -0.8610
   24SAPC   C36 3209   0.370   1.516   9.979  0.4142 -0.1064 -0.0401
   24SAPC   H6X 3210   0.261   1.498   9.982  0.2938  0.3919 -1.0971
   24SAPC   H6Y 3211   0.433   1.426   9.993  0.7445  0.1988  0.4692
   24SAPC   C37 3212   0.420   1.593   9.858 -0.3606  0.3285 -0.2794
   24SAPC   H7X 3213   0.514   1.649   9.875 -1.9787  2.3801  2.1325
   24SAPC   H7Y 3214   0.349   1.678   9.846  0.9667  1.5537  0.3999
   24SAPC   C38 3215   0.397   1.516   9.730  0.0345  0.1191  0.6073
   24SAPC   H8X 3216   0.296   1.471   9.716  1.1500 -1.7202 -1.7234
   24SAPC   H8Y 3217   0.474   1.437   9.724 -0.5367 -0.4437  0.6236
   24SAPC   C39 3218   0.410   1.607   9.607 -0.0647  0.0028 -0.2002
   24SAPC   H9X 3219   0.515   1.644   9.607 -0.0184 -0.1277  0.3479
   24SAPC   H9Y 3220   0.335   1.689   9.609  0.2876  0.3160  0.3745
   24SAPC  C310 3221   0.380   1.525   9.477  0.0305  0.1600 -0.2504
   24SAPC  H10X 3222   0.278   1.490   9.449  0.3476 -0.1514 -1.0475
   24SAPC  H10Y 3223   0.448   1.438   9.495  2.1394  1.0286 -3.5371
   24SAPC  C311 3224   0.437   1.608   9.355  0.4233  0.0810 -0.1499
   24SAPC  H11X 3225   0.541   1.631   9.386 -0.7392 -0.3490  4.4656
   24SAPC  H11Y 3226   0.383   1.704   9.341 -0.1956 -0.0168  1.4968
   24SAPC  C312 3227   0.425   1.546   9.214 -0.0611  0.1609 -0.3667
   24SAPC  H12X 3228   0.322   1.505   9.218  0.9859 -2.5453  0.8582
   24SAPC  H12Y 3229   0.491   1.456   9.209  2.1378  1.5338  2.2739
   24SAPC  C313 3230   0.445   1.646   9.100 -0.4424 -0.4507  0.7353
   24SAPC  H13X 3231   0.546   1.637   9.055  0.4043 -0.3594  2.5823
   24SAPC  H13Y 3232   0.423   1.746   9.143 -1.7133 -0.7715  0.8445
   24SAPC  C314 3233   0.344   1.625   8.989  0.4282 -0.1502  0.8231
   24SAPC  H14X 3234   0.347   1.515   8.970  2.7389 -0.3407  2.1547
   24SAPC  H14Y 3235   0.383   1.679   8.901 -0.0611  0.9241  1.2577
   24SAPC  C315 3236   0.197   1.662   9.019 -0.0408 -0.2087 -0.1365
   24SAPC  H15X 3237   0.187   1.766   9.057  2.7421 -0.1840  0.6752
   24SAPC  H15Y 3238   0.170   1.590   9.098 -1.7588 -0.3596 -0.8461
   24SAPC  C316 3239   0.096   1.642   8.905  0.3240 -0.2742 -0.2188
   24SAPC  H16X 3240  -0.004   1.626   8.950  0.1158 -3.3936 -1.6627
   24SAPC  H16Y 3241   0.116   1.554   8.840  2.3471  1.1478 -1.5687
   24SAPC  C317 3242   0.087   1.765   8.817 -0.7709  0.0572 -1.0317
   24SAPC  H17X 3243   0.184   1.779   8.765 -0.8532  0.8730 -0.9680
   24SAPC  H17Y 3244   0.070   1.850   8.886  0.8396  2.0970 -3.0731
   24SAPC  C318 3245  -0.014   1.774   8.708 -0.1424  0.4024  0.0679
   24SAPC  H18X 3246   0.022   1.712   8.623  1.0455 -0.7644  1.4143
   24SAPC  H18Y 3247  -0.031   1.883   8.691 -3.1455 -0.1295 -0.5297
   24SAPC  H18Z 3248  -0.111   1.730   8.737  0.8671 -0.8318  1.6564
   25SAPC     N 3249   2.813   6.321   6.156  0.1306  0.0776 -0.5926
   25SAPC   C12 3250   2.877   6.410   6.254 -0.1529  0.4582 -0.1925
   25SAPC  H12A 3251   2.812   6.396   6.339 -0.5577 -0.9366 -0.7128
   25SAPC  H12B 3252   2.869   6.509   6.213  1.5671  0.1182 -1.4031
   25SAPC   C13 3253   2.665   6.360   6.167 -0.1839  0.2743 -0.2623
   25SAPC  H13A 3254   2.608   6.342   6.077 -0.3925 -0.7545  0.0706
   25SAPC  H13B 3255   2.615   6.305   6.245  0.2468 -0.8227 -0.7419
   25SAPC  H13C 3256   2.663   6.467   6.176 -1.6966  0.2947 -0.7259
   25SAPC   C14 3257   2.863   6.331   6.015 -0.0076  0.6051 -0.3501
   25SAPC  H14A 3258   2.863   6.433   5.982  0.1946  0.3930 -1.0117
   25SAPC  H14B 3259   2.964   6.291   6.011  0.3709  1.4696  0.4418
   25SAPC  H14C 3260   2.795   6.280   5.948  0.3429 -0.5493  0.1565
   25SAPC   C15 3261   2.835   6.184   6.183 -0.4329 -1.0566  0.6869
   25SAPC  H15A 3262   2.932   6.143   6.159 -0.3183 -0.3313 -0.0875
   25SAPC  H15B 3263   2.816   6.131   6.275  0.0628 -1.5084  0.5294
   25SAPC  H15C 3264   2.764   6.130   6.121 -1.9136 -2.1561  3.2469
   25SAPC   C11 3265   3.026   6.381   6.295 -0.0007  0.3219  0.3406
   25SAPC  H11A 3266   3.043   6.280   6.337 -0.9644 -0.5271 -1.2696
   25SAPC  H11B 3267   3.046   6.452   6.378 -4.0926  2.3956 -0.2728
   25SAPC     P 3268   3.161   6.529   6.123 -0.0562  0.0265 -0.2719
   25SAPC   O13 3269   3.259   6.506   6.014 -0.1138  0.2650 -0.8034
   25SAPC   O14 3270   3.038   6.612   6.092 -0.3680  0.3277  0.1142
   25SAPC   O12 3271   3.114   6.397   6.185 -0.0142 -0.8827 -0.2353
   25SAPC   O11 3272   3.244   6.606   6.232  0.5539 -0.1421  0.2871
   25SAPC    C1 3273   3.357   6.546   6.297  0.1514  0.1786 -0.5435
   25SAPC    HA 3274   3.345   6.436   6.306 -1.9229  0.3123 -1.3025
   25SAPC    HB 3275   3.447   6.555   6.233  0.2825 -0.6028 -0.4666
   25SAPC    C2 3276   3.378   6.606   6.438  0.1510 -0.3316 -1.2703
   25SAPC    HS 3277   3.475   6.571   6.477 -0.2221  2.4169  2.3876
   25SAPC   O21 3278   3.268   6.552   6.525 -0.0942 -0.2314 -0.8730
   25SAPC   C21 3279   3.294   6.573   6.652  0.9643 -0.3646 -0.9906
   25SAPC   O22 3280   3.398   6.585   6.707 -1.0796 -0.4399  0.1193
   25SAPC   C22 3281   3.159   6.571   6.730  0.5018  0.0847  0.7776
   25SAPC   H2R 3282   3.115   6.673   6.723  1.9702  0.5916 -1.7716
   25SAPC   H2S 3283   3.093   6.507   6.668 -0.6894  0.3185  1.7957
   25SAPC    C3 3284   3.375   6.756   6.431  0.1424 -0.0251 -0.2120
   25SAPC    HX 3285   3.274   6.797   6.411  0.4826  1.1782  0.4768
   25SAPC    HY 3286   3.416   6.789   6.333  0.2922  2.6595  0.6991
   25SAPC   O31 3287   3.429   6.815   6.555  0.6585 -0.1485 -0.0638
   25SAPC   C31 3288   3.562   6.834   6.559  0.4078 -0.6107 -0.9649
   25SAPC   O32 3289   3.641   6.815   6.471  0.1337 -0.2369  0.3980
   25SAPC   C32 3290   3.585   6.909   6.688  0.9988  0.1957 -0.0515
   25SAPC   H2X 3291   3.607   6.841   6.772 -1.4458 -0.6448 -0.0484
   25SAPC   H2Y 3292   3.484   6.945   6.716  0.4958 -2.2500  1.3853
   25SAPC   C23 3293   3.182   6.514   6.872 -0.0045 -0.0259 -0.1121
   25SAPC   H3R 3294   3.261   6.572   6.924  2.0091 -1.4777 -1.4610
   25SAPC   H3S 3295   3.225   6.412   6.866  1.7157  0.6736  0.0021
   25SAPC   C24 3296   3.053   6.516   6.957  0.4828  0.4083  0.2828
   25SAPC   H4R 3297   2.971   6.468   6.899 -0.5249  0.5129  1.6037
   25SAPC   H4S 3298   3.031   6.625   6.959  1.5356  0.6184  0.8189
   25SAPC   C25 3299   3.081   6.466   7.099  0.3334  0.2408 -0.3408
   25SAPC   H5R 3300   3.165   6.396   7.108  0.7168  0.8854  1.2637
   25SAPC   C26 3301   3.023   6.508   7.214 -1.0539 -0.3633 -0.1211
   25SAPC   H6R 3302   3.065   6.466   7.306  2.6301  0.7696 -1.1830
   25SAPC   C27 3303   2.915   6.618   7.222  0.5082 -0.8657 -0.4280
   25SAPC   H7R 3304   2.857   6.608   7.316 -1.3030 -0.4640 -1.4656
   25SAPC   H7S 3305   2.853   6.593   7.133  0.8862  0.3465 -1.0488
   25SAPC   C28 3306   2.975   6.761   7.212  0.1112  0.6710 -0.2032
   25SAPC   H8R 3307   3.056   6.785   7.141  0.8352  0.9736  0.7053
   25SAPC   C29 3308   2.936   6.856   7.294 -0.5606 -0.9864  0.6176
   25SAPC   H9R 3309   2.993   6.949   7.280  1.6718 -2.5987 -1.2514
   25SAPC  C210 3310   2.835   6.862   7.409  0.1046 -0.0767  0.6231
   25SAPC  H10R 3311   2.891   6.865   7.505 -0.2730  0.9255  0.8154
   25SAPC  H10S 3312   2.778   6.768   7.424 -1.2568  0.8112  1.1269
   25SAPC  C211 3313   2.749   6.980   7.373 -0.3643 -0.2085 -0.2449
   25SAPC  H11R 3314   2.707   6.987   7.271 -1.4700  1.8121  0.3391
   25SAPC  C212 3315   2.707   7.072   7.466  0.0977 -0.1442 -0.7049
   25SAPC  H12R 3316   2.649   7.156   7.427 -2.0118  0.0995  2.7430
   25SAPC  C213 3317   2.735   7.071   7.613  0.1161 -0.3009  0.6374
   25SAPC  H13R 3318   2.722   6.970   7.658 -1.9200 -0.3379  0.0168
   25SAPC  H13S 3319   2.657   7.124   7.673  0.2467  0.0614  0.4876
   25SAPC  C214 3320   2.875   7.130   7.643  1.2027  0.0393 -0.3191
   25SAPC  H14R 3321   2.960   7.086   7.588  1.5274  0.1485  0.0953
   25SAPC  C215 3322   2.910   7.222   7.735  0.7498  0.4182 -0.3945
   25SAPC  H15R 3323   3.011   7.266   7.738  1.0731 -0.3368 -0.2441
   25SAPC  C216 3324   2.811   7.280   7.832  0.3132  0.1005  0.0178
   25SAPC  H16R 3325   2.717   7.292   7.773 -1.0359 -1.6920  1.7644
   25SAPC  H16S 3326   2.854   7.371   7.880  0.6038 -0.1452  0.2273
   25SAPC  C217 3327   2.769   7.200   7.952  0.1240 -0.0753 -0.1408
   25SAPC  H17R 3328   2.723   7.101   7.934  0.0390 -0.0732  0.0586
   25SAPC  H17S 3329   2.698   7.257   8.016 -0.6159 -0.4385 -0.6426
   25SAPC  C218 3330   2.893   7.174   8.043  0.3327  0.2482  0.1362
   25SAPC  H18R 3331   2.930   7.277   8.061 -2.0590  1.1529  0.1092
   25SAPC  H18S 3332   2.961   7.115   7.978 -0.0542  0.3864 -0.3949
   25SAPC  C219 3333   2.874   7.092   8.179 -0.6061 -0.3578 -0.1876
   25SAPC  H19R 3334   2.964   7.042   8.220 -0.8341  1.4770  2.7116
   25SAPC  H19S 3335   2.792   7.019   8.162 -0.6629 -0.0477 -1.2868
   25SAPC  C220 3336   2.828   7.187   8.302  0.2673  0.0884  0.4950
   25SAPC  H20R 3337   2.778   7.117   8.372 -0.1099  0.4310  0.5693
   25SAPC  H20S 3338   2.772   7.276   8.265  1.8324  0.4924 -0.9925
   25SAPC  H20T 3339   2.910   7.238   8.357 -0.4696 -0.0928  1.7824
   25SAPC   C33 3340   3.686   7.024   6.681  0.1855 -0.4598 -0.2928
   25SAPC   H3X 3341   3.647   7.103   6.613  1.1244  1.7902  1.7069
   25SAPC   H3Y 3342   3.783   6.998   6.635  1.0374 -0.4205  1.4326
   25SAPC   C34 3343   3.712   7.097   6.812  0.0757 -0.1032 -0.0758
   25SAPC   H4X 3344   3.617   7.119   6.866 -2.1865 -1.7300 -3.2107
   25SAPC   H4Y 3345   3.765   7.192   6.787  1.4416 -1.3838 -2.2562
   25SAPC   C35 3346   3.807   7.019   6.902  0.1265 -1.1986  1.0277
   25SAPC   H5X 3347   3.905   7.015   6.851  0.9611  0.0008  2.4814
   25SAPC   H5Y 3348   3.771   6.918   6.932  1.9685 -1.3540  2.8123
   25SAPC   C36 3349   3.845   7.109   7.027  0.7597  0.3052 -0.0345
   25SAPC   H6X 3350   3.754   7.105   7.090  1.8305 -2.4061  1.4141
   25SAPC   H6Y 3351   3.855   7.218   7.004  0.2926  0.8904  2.3806
   25SAPC   C37 3352   3.963   7.060   7.114 -0.0885  0.1992  0.1612
   25SAPC   H7X 3353   3.946   7.105   7.214  0.5862 -2.9208  1.7341
   25SAPC   H7Y 3354   4.065   7.084   7.075  0.4057 -2.4640 -0.2250
   25SAPC   C38 3355   3.971   6.907   7.120  0.3220  0.7212 -0.6481
   25SAPC   H8X 3356   4.022   6.870   7.029  2.0989 -0.0915  0.6565
   25SAPC   H8Y 3357   3.867   6.867   7.125  0.6559  0.0337  1.1801
   25SAPC   C39 3358   4.055   6.860   7.242  0.6061  0.6999  0.4750
   25SAPC   H9X 3359   4.165   6.878   7.231  0.5869  1.3289  1.2741
   25SAPC   H9Y 3360   4.052   6.750   7.255  2.1646  0.8145  2.0435
   25SAPC  C310 3361   4.005   6.906   7.380 -0.4195 -0.1336  1.7480
   25SAPC  H10X 3362   3.900   6.883   7.407 -1.0648 -0.7873 -1.1788
   25SAPC  H10Y 3363   4.017   7.017   7.379  0.5673 -0.2278  1.8422
   25SAPC  C311 3364   4.087   6.845   7.495  0.6161 -0.2553  0.1965
   25SAPC  H11X 3365   4.196   6.861   7.478  0.0021  1.7218 -2.1037
   25SAPC  H11Y 3366   4.066   6.736   7.484  0.4894 -0.3543  1.3848
   25SAPC  C312 3367   4.051   6.888   7.630  0.8855 -0.5467  0.3059
   25SAPC  H12X 3368   3.946   6.877   7.663  0.4331 -0.2686 -1.0119
   25SAPC  H12Y 3369   4.074   6.997   7.632 -0.4930 -0.2632  1.3540
   25SAPC  C313 3370   4.139   6.824   7.743  0.4013 -0.7710 -0.1640
   25SAPC  H13X 3371   4.243   6.842   7.710  0.3252  0.2873  0.1664
   25SAPC  H13Y 3372   4.130   6.713   7.745  1.0693 -0.8629 -1.8082
   25SAPC  C314 3373   4.126   6.884   7.882 -0.1265 -0.3707  0.2778
   25SAPC  H14X 3374   4.111   6.993   7.863  1.1004 -0.4501 -1.2966
   25SAPC  H14Y 3375   4.222   6.874   7.938  0.1937  0.1525 -0.1657
   25SAPC  C315 3376   4.002   6.838   7.961  0.2017 -0.8343  0.1057
   25SAPC  H15X 3377   3.973   6.738   7.921 -0.1124 -0.6313 -0.1820
   25SAPC  H15Y 3378   3.915   6.904   7.942  1.2017  0.3146 -0.5278
   25SAPC  C316 3379   4.006   6.813   8.113 -0.0833 -0.1529  0.4948
   25SAPC  H16X 3380   4.038   6.910   8.156  0.2362  0.6025 -1.4180
   25SAPC  H16Y 3381   4.094   6.748   8.136 -0.0872 -0.5183 -0.4984
   25SAPC  C317 3382   3.879   6.761   8.172  0.1636  0.4303 -1.0784
   25SAPC  H17X 3383   3.862   6.666   8.116  1.0670 -0.7968  0.6821
   25SAPC  H17Y 3384   3.786   6.817   8.147 -1.3777 -1.3672  0.4006
   25SAPC  C318 3385   3.884   6.722   8.321 -0.4071  0.5156 -0.9387
   25SAPC  H18X 3386   3.888   6.815   8.381 -0.5117 -0.0607 -0.0392
   25SAPC  H18Y 3387   3.974   6.661   8.345 -1.3530 -0.7399 -0.5591
   25SAPC  H18Z 3388   3.792   6.671   8.354 -0.0726 -0.6227 -1.7270
   26SAPC     N 3389   3.622   2.642   6.074  0.2186 -0.0948 -0.0975
   26SAPC   C12 3390   3.630   2.594   6.220 -0.5271 -0.0676 -0.8955
   26SAPC  H12A 3391   3.569   2.660   6.280 -0.0385 -0.0340 -0.4334
   26SAPC  H12B 3392   3.734   2.605   6.246 -0.4442  2.6654 -2.1936
   26SAPC   C13 3393   3.728   2.574   5.981  0.4894  0.6001  0.4617
   26SAPC  H13A 3394   3.699   2.471   5.963  0.2876  0.2045  2.9017
   26SAPC  H13B 3395   3.721   2.618   5.882 -0.2515  0.5049  0.4726
   26SAPC  H13C 3396   3.824   2.580   6.031  0.5854  0.4506  0.2965
   26SAPC   C14 3397   3.485   2.614   6.011  0.9432  0.5130  0.0611
   26SAPC  H14A 3398   3.406   2.659   6.070  0.7207 -1.1765  1.0950
   26SAPC  H14B 3399   3.468   2.662   5.916  1.6730 -0.9038 -0.7926
   26SAPC  H14C 3400   3.456   2.512   5.991  2.0744  0.7232 -2.9135
   26SAPC   C15 3401   3.648   2.792   6.075  0.0183 -0.2629  0.5569
   26SAPC  H15A 3402   3.578   2.844   6.138  0.9058 -1.7626  2.8335
   26SAPC  H15B 3403   3.747   2.827   6.099 -0.5071  0.5211  1.6244
   26SAPC  H15C 3404   3.624   2.825   5.975  2.1677  1.0806  0.4482
   26SAPC   C11 3405   3.575   2.453   6.255  0.2637  0.6486 -0.0516
   26SAPC  H11A 3406   3.594   2.428   6.362  1.7031  1.6819 -0.0641
   26SAPC  H11B 3407   3.625   2.373   6.196 -0.1810  0.3507 -0.0319
   26SAPC     P 3408   3.322   2.512   6.315 -0.2907 -0.3005 -0.0094
   26SAPC   O13 3409   3.379   2.638   6.362  0.3080  0.4159  0.5713
   26SAPC   O14 3410   3.208   2.525   6.223 -0.3617  0.6223  0.5134
   26SAPC   O12 3411   3.430   2.440   6.231  0.3729  0.5155 -0.0255
   26SAPC   O11 3412   3.288   2.428   6.444 -0.0664  0.6636 -0.1091
   26SAPC    C1 3413   3.381   2.430   6.548 -0.4110 -0.0272  0.0142
   26SAPC    HA 3414   3.470   2.369   6.522  0.0249  0.7423 -0.3086
   26SAPC    HB 3415   3.415   2.533   6.568  0.2636 -0.0621 -0.9185
   26SAPC    C2 3416   3.323   2.384   6.687 -0.1615  0.1696  0.1141
   26SAPC    HS 3417   3.393   2.390   6.773 -1.0473  2.0169  0.7138
   26SAPC   O21 3418   3.274   2.248   6.679  0.3053  0.6508 -0.0571
   26SAPC   C21 3419   3.366   2.152   6.685  0.1569  0.2940 -0.1567
   26SAPC   O22 3420   3.486   2.171   6.688 -0.1708  0.2834  0.3054
   26SAPC   C22 3421   3.288   2.022   6.703  0.1261  0.1462 -0.5987
   26SAPC   H2R 3422   3.220   2.040   6.789  0.1344 -1.0279 -0.3334
   26SAPC   H2S 3423   3.239   2.021   6.604  1.4846 -3.4972 -1.3085
   26SAPC    C3 3424   3.210   2.473   6.734 -0.4931 -0.6732 -0.0336
   26SAPC    HX 3425   3.114   2.437   6.692 -0.4397 -1.2182  0.3116
   26SAPC    HY 3426   3.207   2.574   6.687  0.1394 -0.8001 -0.3550
   26SAPC   O31 3427   3.209   2.485   6.875 -0.3610 -0.6164  0.6919
   26SAPC   C31 3428   3.106   2.430   6.939  0.2233 -0.5376 -0.1024
   26SAPC   O32 3429   3.019   2.368   6.882  0.1291 -0.3952  0.6164
   26SAPC   C32 3430   3.107   2.462   7.086  0.1516  0.7381  0.3061
   26SAPC   H2X 3431   3.063   2.563   7.098 -1.6496  0.1346 -1.0131
   26SAPC   H2Y 3432   3.212   2.460   7.123  0.4995  0.4361 -0.7100
   26SAPC   C23 3433   3.382   1.892   6.716  0.6803 -0.0031 -0.7485
   26SAPC   H3R 3434   3.475   1.908   6.657 -0.3534 -0.8937 -2.6585
   26SAPC   H3S 3435   3.317   1.809   6.681  0.3014  0.2258 -0.5886
   26SAPC   C24 3436   3.412   1.849   6.864  0.1798 -0.0385 -0.8979
   26SAPC   H4R 3437   3.440   1.741   6.858  0.2071  0.0455 -2.3733
   26SAPC   H4S 3438   3.315   1.835   6.916  2.1332 -0.8912  2.7333
   26SAPC   C25 3439   3.518   1.928   6.947 -0.2267 -0.2564 -0.2262
   26SAPC   H5R 3440   3.623   1.927   6.915 -0.4885  0.8886 -1.1657
   26SAPC   C26 3441   3.483   2.012   7.051  0.4908  0.2089  0.1676
   26SAPC   H6R 3442   3.564   2.041   7.120  2.1542 -0.6564 -1.3729
   26SAPC   C27 3443   3.345   2.030   7.106  0.7059  0.8342 -0.2516
   26SAPC   H7R 3444   3.263   2.067   7.041  0.2887  1.0917  0.4228
   26SAPC   H7S 3445   3.351   2.106   7.186 -1.9919  1.0538 -0.2160
   26SAPC   C28 3446   3.294   1.915   7.191 -0.0828  0.7200  0.6170
   26SAPC   H8R 3447   3.229   1.847   7.133  0.4706  2.3921 -2.0261
   26SAPC   C29 3448   3.323   1.893   7.323  0.2956  0.0574  0.3842
   26SAPC   H9R 3449   3.292   1.799   7.372 -0.2381 -0.0532 -0.1632
   26SAPC  C210 3450   3.413   1.970   7.412  0.2418  1.1419  0.6191
   26SAPC  H10R 3451   3.510   1.991   7.363  0.1753  0.4371  0.1740
   26SAPC  H10S 3452   3.440   1.908   7.500 -1.1227  2.9686  2.3743
   26SAPC  C211 3453   3.356   2.100   7.466 -0.0187  0.1326  0.1230
   26SAPC  H11R 3454   3.279   2.157   7.412  0.8946  0.9862 -0.2768
   26SAPC  C212 3455   3.415   2.155   7.574 -0.0665 -0.2179 -1.1888
   26SAPC  H12R 3456   3.369   2.244   7.621  0.5838 -1.7937  2.6766
   26SAPC  C213 3457   3.535   2.107   7.649  0.5882 -0.4885 -0.2132
   26SAPC  H13R 3458   3.602   2.044   7.587  0.4505 -0.3859 -0.4671
   26SAPC  H13S 3459   3.493   2.044   7.731 -1.0400  1.0790  0.1873
   26SAPC  C214 3460   3.609   2.220   7.712  0.1366 -0.0010  0.2750
   26SAPC  H14R 3461   3.688   2.235   7.637 -0.7567 -1.0690 -0.8973
   26SAPC  C215 3462   3.581   2.295   7.821 -0.5123 -0.6463  0.3507
   26SAPC  H15R 3463   3.655   2.372   7.846 -2.5414  1.3262  0.4633
   26SAPC  C216 3464   3.453   2.288   7.910  0.1645  0.0985  0.6187
   26SAPC  H16R 3465   3.403   2.190   7.896  0.7923 -0.7711  4.0989
   26SAPC  H16S 3466   3.382   2.369   7.881 -0.8392 -0.6646  0.9085
   26SAPC  C217 3467   3.500   2.292   8.057 -0.5028  0.6210  0.5914
   26SAPC  H17R 3468   3.553   2.389   8.070 -1.5916  1.3992 -0.6223
   26SAPC  H17S 3469   3.581   2.219   8.078 -0.8155  0.7497  2.3505
   26SAPC  C218 3470   3.382   2.283   8.154 -0.2505  0.7384  0.1728
   26SAPC  H18R 3471   3.413   2.293   8.260 -0.8787  1.8810  0.2531
   26SAPC  H18S 3472   3.321   2.191   8.145 -1.2506  1.4280 -0.1689
   26SAPC  C219 3473   3.273   2.399   8.144  0.1388 -0.0495 -0.0278
   26SAPC  H19R 3474   3.209   2.376   8.056 -1.4000 -1.9996  1.5373
   26SAPC  H19S 3475   3.327   2.493   8.121 -0.3701 -0.0989 -1.5144
   26SAPC  C220 3476   3.180   2.411   8.263  0.1988 -0.3366 -0.3601
   26SAPC  H20R 3477   3.117   2.320   8.274 -0.1757 -0.0463 -0.0907
   26SAPC  H20S 3478   3.120   2.505   8.256 -0.2328 -0.5832  0.0397
   26SAPC  H20T 3479   3.229   2.417   8.362 -0.4825 -1.2342  0.0333
   26SAPC   C33 3480   3.041   2.353   7.172  0.1254 -0.6225  0.4087
   26SAPC   H3X 3481   3.059   2.254   7.125  0.9002  0.3846 -1.5018
   26SAPC   H3Y 3482   2.931   2.370   7.175  0.0574 -1.0428  0.3708
   26SAPC   C34 3483   3.103   2.343   7.314 -0.0884  0.1134  0.0039
   26SAPC   H4X 3484   3.213   2.358   7.316 -0.0874  0.0476  0.5206
   26SAPC   H4Y 3485   3.090   2.238   7.349 -1.4385  0.9378  2.0842
   26SAPC   C35 3486   3.019   2.429   7.408 -0.7084 -0.3786 -0.1508
   26SAPC   H5X 3487   2.913   2.395   7.414 -0.3592 -1.7174 -1.1763
   26SAPC   H5Y 3488   3.004   2.533   7.374  1.1987  0.7080  2.1633
   26SAPC   C36 3489   3.076   2.457   7.550  0.1095  0.3472 -0.6065
   26SAPC   H6X 3490   3.186   2.475   7.544  0.0745  0.3168 -1.3136
   26SAPC   H6Y 3491   3.058   2.358   7.596  1.0010  0.3342 -0.2694
   26SAPC   C37 3492   3.001   2.575   7.614  0.1235  0.2317 -0.6432
   26SAPC   H7X 3493   2.893   2.553   7.605 -0.1397  1.8693 -1.6554
   26SAPC   H7Y 3494   3.014   2.673   7.564  0.4299 -0.0241 -1.0794
   26SAPC   C38 3495   3.046   2.571   7.761  0.0193 -0.1254  0.6728
   26SAPC   H8X 3496   3.145   2.620   7.765  0.2728 -0.4131 -1.5560
   26SAPC   H8Y 3497   3.061   2.472   7.808 -1.5121 -0.1708  1.0907
   26SAPC   C39 3498   2.949   2.654   7.837  1.3542  0.2346 -0.2243
   26SAPC   H9X 3499   2.851   2.602   7.832  1.0567  0.8912 -1.5650
   26SAPC   H9Y 3500   2.927   2.752   7.788  3.3620  1.5370  1.4413
   26SAPC  C310 3501   2.985   2.687   7.983 -0.2998  0.1041 -0.1175
   26SAPC  H10X 3502   2.977   2.591   8.038  0.0023  0.5234  0.6609
   26SAPC  H10Y 3503   2.905   2.755   8.019 -0.1404 -1.1579  2.7781
   26SAPC  C311 3504   3.123   2.740   8.000 -0.0515  0.5691  0.0394
   26SAPC  H11X 3505   3.135   2.815   7.920 -0.9054  0.5953 -0.0691
   26SAPC  H11Y 3506   3.200   2.664   7.975  0.0108 -0.6412  3.5584
   26SAPC  C312 3507   3.164   2.782   8.149  0.4013  0.3285  0.4204
   26SAPC  H12X 3508   3.147   2.696   8.218 -0.5319 -0.5096 -0.8280
   26SAPC  H12Y 3509   3.093   2.863   8.174  0.5145  0.4941  0.2102
   26SAPC  C313 3510   3.304   2.853   8.150 -0.0635 -0.6333 -0.9937
   26SAPC  H13X 3511   3.298   2.941   8.083 -0.5271 -0.2027 -0.3899
   26SAPC  H13Y 3512   3.395   2.795   8.125  0.0949 -0.1822 -1.4808
   26SAPC  C314 3513   3.325   2.909   8.290  0.1067 -0.0182  0.0856
   26SAPC  H14X 3514   3.431   2.940   8.307 -0.1440  2.3711 -2.3677
   26SAPC  H14Y 3515   3.296   2.825   8.357 -0.6649  0.2624  0.1003
   26SAPC  C315 3516   3.229   3.024   8.337  0.3299  0.2166  0.3300
   26SAPC  H15X 3517   3.124   3.005   8.306  0.0447  5.2958 -2.1984
   26SAPC  H15Y 3518   3.254   3.119   8.286  1.4753 -1.3497 -2.1197
   26SAPC  C316 3519   3.234   3.039   8.488  0.1618 -0.3857  0.5962
   26SAPC  H16X 3520   3.224   2.934   8.526 -0.6401  0.2249  2.1178
   26SAPC  H16Y 3521   3.144   3.096   8.516  0.7536  0.9400 -0.1856
   26SAPC  C317 3522   3.365   3.113   8.531 -1.2219 -0.1783 -0.4465
   26SAPC  H17X 3523   3.397   3.189   8.457 -0.7830  0.2700  0.1963
   26SAPC  H17Y 3524   3.443   3.034   8.535 -2.4291 -1.3980 -0.4333
   26SAPC  C318 3525   3.360   3.178   8.670 -0.2686  0.3682  0.1524
   26SAPC  H18X 3526   3.462   3.201   8.710  0.1674 -1.7289  0.3444
   26SAPC  H18Y 3527   3.330   3.100   8.744  0.3631  1.0470  1.1398
   26SAPC  H18Z 3528   3.305   3.274   8.663  0.2497  0.7837  1.4977
   27SAPC     N 3529   1.165   1.637   6.270 -0.1921  0.2601  0.0079
   27SAPC   C12 3530   1.127   1.554   6.393  0.0546  0.4816 -0.1005
   27SAPC  H12A 3531   1.172   1.593   6.483 -1.0445 -1.5050  1.3511
   27SAPC  H12B 3532   1.171   1.455   6.384 -0.0216  0.5970 -2.0734
   27SAPC   C13 3533   1.312   1.635   6.258 -0.2427  0.0606 -0.0058
   27SAPC  H13A 3534   1.367   1.542   6.256 -1.2621 -0.5414 -0.5247
   27SAPC  H13B 3535   1.349   1.687   6.170 -1.8183 -1.2415 -1.4880
   27SAPC  H13C 3536   1.364   1.675   6.343  0.9430  0.0057 -0.6876
   27SAPC   C14 3537   1.104   1.563   6.148  0.8400 -0.2423 -0.0558
   27SAPC  H14A 3538   1.167   1.477   6.131  2.9199  0.9384  1.5247
   27SAPC  H14B 3539   1.004   1.537   6.178 -0.0920  2.2387 -0.9356
   27SAPC  H14C 3540   1.101   1.633   6.066  0.2626  1.6615  1.5714
   27SAPC   C15 3541   1.112   1.773   6.277  0.3061  0.7308 -0.0730
   27SAPC  H15A 3542   1.009   1.769   6.246  0.0044 -1.1221  1.1262
   27SAPC  H15B 3543   1.126   1.816   6.375 -1.7776  1.4234 -0.0500
   27SAPC  H15C 3544   1.167   1.836   6.208 -0.6091  1.2644 -0.3242
   27SAPC   C11 3545   0.974   1.544   6.421 -0.3650  0.5660 -0.5221
   27SAPC  H11A 3546   0.962   1.469   6.502  1.9031  1.4153  0.6311
   27SAPC  H11B 3547   0.920   1.498   6.336  0.4118 -2.1265  0.4134
   27SAPC     P 3548   0.958   1.733   6.603  0.0801 -0.2854  0.1536
   27SAPC   O13 3549   1.104   1.775   6.596 -0.2764  0.3502 -0.4607
   27SAPC   O14 3550   0.861   1.842   6.633 -0.0370 -0.0994  0.4463
   27SAPC   O12 3551   0.916   1.668   6.467  0.0120 -0.1509 -0.3288
   27SAPC   O11 3552   0.948   1.608   6.708  0.0601  0.4525  0.3239
   27SAPC    C1 3553   0.821   1.551   6.732 -0.2873 -0.4142  0.5209
   27SAPC    HA 3554   0.740   1.606   6.680  0.0024 -0.2447  0.2430
   27SAPC    HB 3555   0.825   1.452   6.682  2.4001 -0.0022 -0.1708
   27SAPC    C2 3556   0.787   1.531   6.875 -0.2762 -0.1187 -0.6121
   27SAPC    HS 3557   0.679   1.506   6.879 -0.3938 -0.2386 -3.4920
   27SAPC   O21 3558   0.824   1.643   6.958  0.6559 -0.5722  0.1442
   27SAPC   C21 3559   0.757   1.752   6.931  0.0286 -0.8803 -0.2677
   27SAPC   O22 3560   0.672   1.764   6.846  0.5259  0.3764  0.3979
   27SAPC   C22 3561   0.818   1.863   7.013  0.5535 -0.0833 -0.6981
   27SAPC   H2R 3562   0.861   1.823   7.108  0.2386  0.8204 -0.1723
   27SAPC   H2S 3563   0.889   1.923   6.952  0.2906  0.4409 -0.4941
   27SAPC    C3 3564   0.874   1.404   6.925  0.2457 -0.4186  0.1227
   27SAPC    HX 3565   0.981   1.421   6.901  1.0911 -2.4439  2.2917
   27SAPC    HY 3566   0.829   1.322   6.864 -0.1135 -1.1983  1.4153
   27SAPC   O31 3567   0.848   1.380   7.062  0.7031  0.0349  0.4723
   27SAPC   C31 3568   0.932   1.436   7.147  0.5318 -0.0686 -0.6255
   27SAPC   O32 3569   1.030   1.498   7.113  0.4853 -0.2119 -0.8090
   27SAPC   C32 3570   0.890   1.422   7.293 -0.5246 -0.3958  0.0939
   27SAPC   H2X 3571   0.932   1.327   7.332  1.1235 -0.3680 -1.5527
   27SAPC   H2Y 3572   0.780   1.407   7.297 -0.2822 -2.2027  0.1314
   27SAPC   C23 3573   0.713   1.970   7.058 -0.1364  0.4407  0.3567
   27SAPC   H3R 3574   0.648   1.912   7.127  0.6613  0.0244  0.7583
   27SAPC   H3S 3575   0.648   1.997   6.972 -0.6931  2.1882  1.3054
   27SAPC   C24 3576   0.766   2.101   7.132  0.2014  0.1209  0.2528
   27SAPC   H4R 3577   0.834   2.144   7.055 -0.8306 -0.0463 -0.7689
   27SAPC   H4S 3578   0.826   2.067   7.219  0.4232 -0.1551 -0.0086
   27SAPC   C25 3579   0.650   2.190   7.180 -0.1606  0.0217  0.1250
   27SAPC   H5R 3580   0.620   2.276   7.120  2.1993  1.0722  0.3751
   27SAPC   C26 3581   0.574   2.174   7.286  0.1709 -0.2473  0.1510
   27SAPC   H6R 3582   0.497   2.252   7.298  0.0566 -0.1481 -1.2021
   27SAPC   C27 3583   0.583   2.066   7.396  0.1182 -0.7716  0.6683
   27SAPC   H7R 3584   0.596   2.119   7.493  2.2841 -3.4946  1.9332
   27SAPC   H7S 3585   0.681   2.015   7.384  0.6482  0.0499  1.4426
   27SAPC   C28 3586   0.464   1.977   7.398  0.5911  0.2761 -0.5232
   27SAPC   H8R 3587   0.426   1.953   7.297  1.4922  2.9800 -1.5614
   27SAPC   C29 3588   0.385   1.946   7.502 -0.0952  0.6817 -0.1413
   27SAPC   H9R 3589   0.303   1.878   7.475  0.4014  0.1657 -0.3639
   27SAPC  C210 3590   0.381   1.981   7.644  0.1027  0.5226  0.5066
   27SAPC  H10R 3591   0.437   2.074   7.668  1.2784 -0.0615  0.1013
   27SAPC  H10S 3592   0.426   1.892   7.692 -2.5093  0.1134  2.2975
   27SAPC  C211 3593   0.237   1.984   7.696  0.0362  0.5951  0.3838
   27SAPC  H11R 3594   0.157   2.015   7.628 -0.7112 -0.1997  0.8907
   27SAPC  C212 3595   0.207   1.971   7.821  0.8371  0.3453 -0.0963
   27SAPC  H12R 3596   0.102   1.990   7.851  0.2223 -1.3084 -1.1457
   27SAPC  C213 3597   0.299   1.959   7.937  0.3456 -0.5691  0.0427
   27SAPC  H13R 3598   0.378   2.037   7.937  1.2705 -1.4731  0.5453
   27SAPC  H13S 3599   0.343   1.858   7.921  2.0654  0.2908 -0.8186
   27SAPC  C214 3600   0.224   1.960   8.074  0.3675 -0.2652 -0.3468
   27SAPC  H14R 3601   0.116   1.942   8.063  0.0714 -0.5587  2.5904
   27SAPC  C215 3602   0.267   1.985   8.200 -0.0537  0.1574 -0.4161
   27SAPC  H15R 3603   0.195   1.997   8.282  0.4774  1.5562 -0.1335
   27SAPC  C216 3604   0.406   2.038   8.231 -0.8379  0.1786 -0.0662
   27SAPC  H16R 3605   0.468   2.036   8.140  1.5914 -1.5429  1.5867
   27SAPC  H16S 3606   0.457   1.968   8.299  0.4642  1.6302  0.4876
   27SAPC  C217 3607   0.410   2.176   8.304 -0.4934  0.3271  0.4765
   27SAPC  H17R 3608   0.351   2.150   8.395 -0.9524 -2.8460 -0.6860
   27SAPC  H17S 3609   0.345   2.250   8.253  1.1335  0.8619 -0.8630
   27SAPC  C218 3610   0.546   2.233   8.324  0.5641 -0.1422  0.0225
   27SAPC  H18R 3611   0.603   2.244   8.229  0.5475 -1.8198 -0.2007
   27SAPC  H18S 3612   0.594   2.164   8.397 -1.0561 -2.6173 -1.1751
   27SAPC  C219 3613   0.548   2.376   8.378 -0.1362 -0.1650 -0.2275
   27SAPC  H19R 3614   0.453   2.428   8.356 -0.8115 -1.2141  0.1845
   27SAPC  H19S 3615   0.631   2.420   8.319 -0.6703  1.9397  0.5507
   27SAPC  C220 3616   0.574   2.363   8.530  0.1831 -0.7009  0.5972
   27SAPC  H20R 3617   0.670   2.313   8.555  0.5202  0.0660  0.8251
   27SAPC  H20S 3618   0.497   2.303   8.584 -0.6484  0.8788  1.1725
   27SAPC  H20T 3619   0.558   2.461   8.579 -0.9625 -1.5200  1.9166
   27SAPC   C33 3620   0.919   1.530   7.392 -0.4501 -0.3325  0.4398
   27SAPC   H3X 3621   0.906   1.629   7.342  0.4425 -0.7061 -0.5499
   27SAPC   H3Y 3622   1.029   1.541   7.408  0.0289 -0.5626 -2.4037
   27SAPC   C34 3623   0.859   1.523   7.533  0.2480  0.8108 -1.0997
   27SAPC   H4X 3624   0.906   1.435   7.582 -1.0976 -0.3883 -1.9331
   27SAPC   H4Y 3625   0.751   1.498   7.524  0.5709 -0.6794 -0.9669
   27SAPC   C35 3626   0.881   1.653   7.611  0.1663 -0.2256  0.3874
   27SAPC   H5X 3627   0.823   1.729   7.555 -0.7199 -0.0651  1.4913
   27SAPC   H5Y 3628   0.985   1.691   7.606  0.4458 -0.9846  0.2905
   27SAPC   C36 3629   0.830   1.641   7.759 -0.5737 -0.1660 -0.3344
   27SAPC   H6X 3630   0.887   1.557   7.803 -1.4041 -0.3518  0.3976
   27SAPC   H6Y 3631   0.729   1.597   7.753  0.1077 -1.7439 -0.3172
   27SAPC   C37 3632   0.856   1.777   7.827  0.7382 -0.7692  0.5938
   27SAPC   H7X 3633   0.870   1.860   7.755 -2.1087 -1.0959 -0.4119
   27SAPC   H7Y 3634   0.958   1.763   7.869  1.0231  0.5631  0.3498
   27SAPC   C38 3635   0.765   1.816   7.941  0.2449  0.5614  1.3609
   27SAPC   H8X 3636   0.669   1.803   7.887  0.1786 -0.6850  1.7565
   27SAPC   H8Y 3637   0.783   1.917   7.984 -3.9939  2.1445 -0.3215
   27SAPC   C39 3638   0.770   1.712   8.054  0.3981  0.4887  0.1181
   27SAPC   H9X 3639   0.875   1.690   8.081  0.2132  1.4937  1.7059
   27SAPC   H9Y 3640   0.721   1.621   8.012  0.3311 -0.1920  1.6175
   27SAPC  C310 3641   0.685   1.744   8.178 -0.5029  0.2130 -0.1631
   27SAPC  H10X 3642   0.665   1.649   8.231 -2.8848  0.6105 -0.3032
   27SAPC  H10Y 3643   0.596   1.800   8.140  0.9934  2.5117 -0.4015
   27SAPC  C311 3644   0.753   1.845   8.276  0.7341 -0.3039 -0.3634
   27SAPC  H11X 3645   0.679   1.896   8.341  1.9535 -0.5003  1.2025
   27SAPC  H11Y 3646   0.806   1.915   8.207  0.8530 -0.9119 -0.8923
   27SAPC  C312 3647   0.851   1.766   8.365  0.4976  0.1802  0.0036
   27SAPC  H12X 3648   0.933   1.741   8.295  2.0533  0.1266  1.8033
   27SAPC  H12Y 3649   0.802   1.674   8.403  0.8007  0.1467  0.3122
   27SAPC  C313 3650   0.903   1.853   8.483  0.0328  0.7705  0.0781
   27SAPC  H13X 3651   0.822   1.899   8.544  0.7746  1.1118  0.8070
   27SAPC  H13Y 3652   0.973   1.930   8.446 -0.4005  0.8912 -0.5035
   27SAPC  C314 3653   0.963   1.762   8.585 -0.3517  0.9798 -0.3469
   27SAPC  H14X 3654   0.885   1.691   8.620 -0.2605 -0.5353 -3.0922
   27SAPC  H14Y 3655   1.002   1.827   8.667  0.5923 -1.7754  1.4630
   27SAPC  C315 3656   1.081   1.670   8.542  0.0220 -0.2835 -0.0465
   27SAPC  H15X 3657   1.170   1.732   8.516 -0.9159  1.6945  1.3371
   27SAPC  H15Y 3658   1.059   1.603   8.457 -0.1410  2.1032 -1.9416
   27SAPC  C316 3659   1.132   1.583   8.659 -0.4780  1.0014  0.0972
   27SAPC  H16X 3660   1.212   1.511   8.630 -1.4266  1.2864 -3.5802
   27SAPC  H16Y 3661   1.040   1.525   8.684 -0.7564  2.1104  1.6636
   27SAPC  C317 3662   1.182   1.660   8.787 -0.0365 -0.8723  0.5641
   27SAPC  H17X 3663   1.097   1.716   8.832 -0.6678 -1.3367 -0.0443
   27SAPC  H17Y 3664   1.249   1.741   8.751 -2.0255  0.4694 -0.1862
   27SAPC  C318 3665   1.236   1.575   8.898 -0.1497  0.3089  0.2620
   27SAPC  H18X 3666   1.308   1.506   8.848 -1.4960 -2.6926  2.2958
   27SAPC  H18Y 3667   1.155   1.519   8.949  1.8482 -0.7858  2.3410
   27SAPC  H18Z 3668   1.289   1.634   8.976 -1.7745  2.9944 -0.6118
   28SAPC     N 3669   6.720   6.147   6.203  0.3075 -0.3780 -0.1678
   28SAPC   C12 3670   6.797   6.277   6.169  0.2650  0.0393 -0.2145
   28SAPC  H12A 3671   6.739   6.359   6.209 -0.8793 -0.9292  0.1519
   28SAPC  H12B 3672   6.792   6.293   6.062  0.7828 -1.0566 -0.4096
   28SAPC   C13 3673   6.757   6.038   6.107 -1.3166  0.4810 -0.0464
   28SAPC  H13A 3674   6.860   6.013   6.131 -1.7845  0.4096  1.9764
   28SAPC  H13B 3675   6.696   5.952   6.129  0.3281 -0.6773  0.1098
   28SAPC  H13C 3676   6.756   6.056   6.001 -3.4265 -1.6733 -0.4140
   28SAPC   C14 3677   6.729   6.107   6.339  0.1301  0.6460 -0.6462
   28SAPC  H14A 3678   6.836   6.097   6.355  0.3070 -2.4033 -3.2556
   28SAPC  H14B 3679   6.692   6.179   6.411 -0.7324 -1.1073  0.6843
   28SAPC  H14C 3680   6.678   6.014   6.356  1.6289  0.0248  0.6726
   28SAPC   C15 3681   6.575   6.169   6.172 -0.0801  0.0822 -0.4971
   28SAPC  H15A 3682   6.520   6.078   6.188  1.6705 -1.1735 -1.3786
   28SAPC  H15B 3683   6.527   6.256   6.215  0.2784  0.2369 -0.4091
   28SAPC  H15C 3684   6.582   6.184   6.065 -0.2518  0.4347 -0.4609
   28SAPC   C11 3685   6.943   6.286   6.222  0.1703 -0.6236 -0.0130
   28SAPC  H11A 3686   6.953   6.295   6.332 -3.9858  0.9986  0.3334
   28SAPC  H11B 3687   6.982   6.381   6.179  1.5614 -0.9864  0.4512
   28SAPC     P 3688   7.110   6.081   6.245  0.0294 -0.1556  0.2410
   28SAPC   O13 3689   7.088   5.950   6.184 -0.4022  0.2135  0.5883
   28SAPC   O14 3690   7.247   6.136   6.259 -0.1631  0.0807 -0.1566
   28SAPC   O12 3691   7.025   6.179   6.160 -0.3222 -0.1447 -0.0601
   28SAPC   O11 3692   7.041   6.082   6.385  0.4424  0.5833  0.0555
   28SAPC    C1 3693   7.092   6.033   6.504 -0.2144 -0.3052 -0.2148
   28SAPC    HA 3694   7.203   6.022   6.503 -0.1287  0.4552  0.4232
   28SAPC    HB 3695   7.051   6.097   6.585 -1.6586 -0.0433 -1.1291
   28SAPC    C2 3696   7.058   5.884   6.536 -0.2513  0.3169 -0.0490
   28SAPC    HS 3697   7.102   5.815   6.461  0.1805  0.6767 -0.1216
   28SAPC   O21 3698   6.908   5.867   6.538  0.4091  0.4960 -0.6125
   28SAPC   C21 3699   6.874   5.737   6.528 -1.1907  1.2835 -0.2429
   28SAPC   O22 3700   6.954   5.641   6.527  0.6778  0.4046  0.2249
   28SAPC   C22 3701   6.726   5.720   6.531  0.3635  0.3899 -0.2314
   28SAPC   H2R 3702   6.676   5.813   6.565 -1.6511 -0.6456 -0.2568
   28SAPC   H2S 3703   6.700   5.716   6.423  1.7388  1.5175 -0.6197
   28SAPC    C3 3704   7.120   5.855   6.679  0.4551 -0.7116  0.3672
   28SAPC    HX 3705   7.229   5.877   6.676 -0.1032  2.1936 -1.6487
   28SAPC    HY 3706   7.102   5.748   6.701  0.4673 -0.6769  0.5420
   28SAPC   O31 3707   7.065   5.943   6.778  0.3166 -0.0309 -0.6595
   28SAPC   C31 3708   6.982   5.886   6.870 -0.0330 -0.0480 -0.5083
   28SAPC   O32 3709   6.941   5.774   6.871 -0.3552 -0.4254  0.5497
   28SAPC   C32 3710   6.969   5.978   6.997  0.2971 -0.4497 -0.6085
   28SAPC   H2X 3711   6.943   6.084   6.977 -0.8412 -0.2725  1.6149
   28SAPC   H2Y 3712   7.074   5.989   7.035 -0.2676  0.2296  0.8174
   28SAPC   C23 3713   6.673   5.597   6.598 -0.3713 -0.1251 -0.8650
   28SAPC   H3R 3714   6.735   5.506   6.581  0.7278  0.8939 -2.4099
   28SAPC   H3S 3715   6.574   5.567   6.558  0.6483  0.0854 -3.6434
   28SAPC   C24 3716   6.664   5.621   6.749 -0.2886 -0.3329 -0.2030
   28SAPC   H4R 3717   6.766   5.645   6.787 -0.4754  3.6992 -2.0099
   28SAPC   H4S 3718   6.604   5.713   6.761 -0.3189 -0.4591  0.5980
   28SAPC   C25 3719   6.594   5.513   6.823 -0.8934  0.8828  0.1426
   28SAPC   H5R 3720   6.644   5.415   6.831 -0.2654  1.1706 -0.2469
   28SAPC   C26 3721   6.481   5.522   6.885  0.0066 -0.6892 -0.0973
   28SAPC   H6R 3722   6.447   5.432   6.938  1.9688 -1.4343 -0.0744
   28SAPC   C27 3723   6.380   5.638   6.881 -0.0979 -0.4631 -0.4085
   28SAPC   H7R 3724   6.369   5.680   6.779 -0.6444  0.4238  0.0079
   28SAPC   H7S 3725   6.418   5.730   6.931 -3.0452  0.3770  0.4141
   28SAPC   C28 3726   6.245   5.616   6.933 -0.6905 -0.2811 -0.2634
   28SAPC   H8R 3727   6.166   5.629   6.858 -0.3238 -1.2687 -0.8265
   28SAPC   C29 3728   6.214   5.571   7.059  0.1451  0.5559  0.4059
   28SAPC   H9R 3729   6.105   5.560   7.066  0.0540 -0.7532 -2.4055
   28SAPC  C210 3730   6.299   5.548   7.178 -0.5124 -0.1914  0.1168
   28SAPC  H10R 3731   6.382   5.619   7.156  1.2837 -2.6962 -1.6164
   28SAPC  H10S 3732   6.339   5.444   7.169 -0.2077  0.0602 -1.8313
   28SAPC  C211 3733   6.242   5.574   7.314  0.0898  0.1296 -0.2567
   28SAPC  H11R 3734   6.206   5.676   7.337 -4.0117 -1.0634 -0.9121
   28SAPC  C212 3735   6.224   5.477   7.407 -0.0335 -0.4737  0.1407
   28SAPC  H12R 3736   6.194   5.512   7.507  0.2251 -0.2155  0.1283
   28SAPC  C213 3737   6.241   5.330   7.383  0.2475  0.6437 -0.1951
   28SAPC  H13R 3738   6.343   5.299   7.354  0.7875  1.3513  0.8974
   28SAPC  H13S 3739   6.180   5.285   7.302 -0.9002 -1.0922  1.5950
   28SAPC  C214 3740   6.207   5.251   7.508 -0.1191  0.8495 -0.3749
   28SAPC  H14R 3741   6.100   5.243   7.529 -0.6835  0.3236 -3.2152
   28SAPC  C215 3742   6.299   5.204   7.594  0.1358 -0.3891 -0.7719
   28SAPC  H15R 3743   6.254   5.153   7.681  3.6654 -0.7213  0.9510
   28SAPC  C216 3744   6.446   5.216   7.591  0.6532 -0.0496 -0.3677
   28SAPC  H16R 3745   6.464   5.318   7.550 -1.8620  0.1449 -1.0620
   28SAPC  H16S 3746   6.491   5.140   7.524  0.4116  1.6784 -2.5556
   28SAPC  C217 3747   6.512   5.193   7.727 -0.7685 -0.0572  0.8938
   28SAPC  H17R 3748   6.481   5.278   7.792  0.8996  1.9581 -0.8873
   28SAPC  H17S 3749   6.619   5.211   7.702 -1.1492 -0.0025 -0.7733
   28SAPC  C218 3750   6.476   5.063   7.788 -0.2223 -0.3127  0.3734
   28SAPC  H18R 3751   6.520   4.981   7.727 -0.7547  1.0131 -1.8617
   28SAPC  H18S 3752   6.370   5.032   7.803 -0.2474 -0.0007  0.8189
   28SAPC  C219 3753   6.533   5.045   7.930 -0.3857 -0.3927 -0.8004
   28SAPC  H19R 3754   6.643   5.053   7.918  0.2696 -3.4459  2.2557
   28SAPC  H19S 3755   6.524   4.938   7.960  0.0343 -0.0088  0.7210
   28SAPC  C220 3756   6.484   5.129   8.049 -0.7316  0.1861  0.3048
   28SAPC  H20R 3757   6.499   5.237   8.026 -2.3830  0.5144  0.7121
   28SAPC  H20S 3758   6.546   5.099   8.136  2.3014 -1.3426 -2.2847
   28SAPC  H20T 3759   6.376   5.112   8.070 -0.0474 -4.4923  0.5127
   28SAPC   C33 3760   6.889   5.924   7.114  0.3457  0.2989 -0.1453
   28SAPC   H3X 3761   6.924   5.979   7.203 -0.2431 -0.6894  0.7114
   28SAPC   H3Y 3762   6.903   5.814   7.126  0.3901  0.3996  0.7141
   28SAPC   C34 3763   6.740   5.955   7.093  0.1761 -0.1962  0.9197
   28SAPC   H4X 3764   6.712   5.970   6.986 -0.5642 -0.5718  1.0541
   28SAPC   H4Y 3765   6.721   6.059   7.128 -0.9029 -0.1280  0.1715
   28SAPC   C35 3766   6.645   5.848   7.156 -0.4040 -0.0904 -0.0416
   28SAPC   H5X 3767   6.673   5.751   7.110 -0.0724  0.8893 -1.9396
   28SAPC   H5Y 3768   6.539   5.859   7.123 -0.4710  0.0115  0.2050
   28SAPC   C36 3769   6.648   5.864   7.309  0.4423  0.4676 -0.2904
   28SAPC   H6X 3770   6.635   5.970   7.338 -2.4538 -0.1255  0.7185
   28SAPC   H6Y 3771   6.739   5.814   7.348  2.1790  0.4438 -4.1302
   28SAPC   C37 3772   6.539   5.796   7.381  1.0893  0.1491  1.1254
   28SAPC   H7X 3773   6.525   5.698   7.332  0.1705  2.5312 -3.6469
   28SAPC   H7Y 3774   6.448   5.858   7.373  0.9811 -0.1133  0.2856
   28SAPC   C38 3775   6.552   5.775   7.531  0.7627  0.6244  0.6583
   28SAPC   H8X 3776   6.552   5.877   7.575  0.9254  1.7154 -1.7891
   28SAPC   H8Y 3777   6.648   5.723   7.551  1.1168  2.0568  2.9782
   28SAPC   C39 3778   6.436   5.707   7.595  0.1674  0.6692  0.8414
   28SAPC   H9X 3779   6.439   5.597   7.575  0.0459  0.9677 -0.9115
   28SAPC   H9Y 3780   6.342   5.737   7.543 -0.1971  0.6287  1.4662
   28SAPC  C310 3781   6.415   5.728   7.745  0.3415  0.7127  0.4851
   28SAPC  H10X 3782   6.396   5.834   7.774 -1.0643  0.2875  1.1491
   28SAPC  H10Y 3783   6.506   5.700   7.803 -0.2507 -0.2977  0.9346
   28SAPC  C311 3784   6.301   5.647   7.813 -0.0406 -0.8047 -0.3389
   28SAPC  H11X 3785   6.321   5.543   7.778  0.9723 -0.3101 -1.2513
   28SAPC  H11Y 3786   6.199   5.680   7.787 -0.3436 -0.6857  0.9608
   28SAPC  C312 3787   6.310   5.650   7.968  0.0538  0.0657 -0.6495
   28SAPC  H12X 3788   6.279   5.748   8.010  0.1789 -0.1746  0.0245
   28SAPC  H12Y 3789   6.417   5.636   7.996 -0.2225 -0.3987  0.1855
   28SAPC  C313 3790   6.218   5.544   8.031  0.7348  0.0859 -0.2909
   28SAPC  H13X 3791   6.259   5.444   8.006 -0.9608 -0.9353  0.8783
   28SAPC  H13Y 3792   6.121   5.551   7.978  0.3215  2.4216  0.7102
   28SAPC  C314 3793   6.205   5.560   8.187 -0.0822  0.2580 -0.0487
   28SAPC  H14X 3794   6.135   5.484   8.227 -2.0064  1.1820 -1.5570
   28SAPC  H14Y 3795   6.167   5.659   8.223  0.4402  1.3877 -2.5133
   28SAPC  C315 3796   6.338   5.523   8.252 -0.7422 -0.3156 -0.4096
   28SAPC  H15X 3797   6.416   5.601   8.236 -1.5225  0.8924  1.5762
   28SAPC  H15Y 3798   6.388   5.438   8.201 -0.1813 -1.4937  2.0395
   28SAPC  C316 3799   6.343   5.488   8.398 -0.2725 -0.0335  0.1360
   28SAPC  H16X 3800   6.260   5.418   8.418 -0.8813  0.3869 -0.8573
   28SAPC  H16Y 3801   6.299   5.574   8.453 -0.0919 -0.1237  0.4223
   28SAPC  C317 3802   6.478   5.428   8.442 -0.4828  0.4976 -0.5144
   28SAPC  H17X 3803   6.499   5.433   8.551  2.3710  0.6635 -1.0308
   28SAPC  H17Y 3804   6.560   5.494   8.406  0.1400  2.0500  3.4585
   28SAPC  C318 3805   6.500   5.280   8.404  0.5240 -0.3604  0.1067
   28SAPC  H18X 3806   6.436   5.213   8.464  1.3355  0.0939  1.4906
   28SAPC  H18Y 3807   6.606   5.245   8.411  0.7393 -0.2099 -1.9636
   28SAPC  H18Z 3808   6.469   5.268   8.298  0.2689 -2.7207  0.4105
   29SAPC     N 3809   1.925   2.733   6.186 -0.0749  0.5324 -0.3298
   29SAPC   C12 3810   1.865   2.629   6.285 -0.2107  0.1143  1.0092
   29SAPC  H12A 3811   1.868   2.529   6.244 -0.1780  0.2902  0.5738
   29SAPC  H12B 3812   1.760   2.653   6.296 -0.2586 -0.5439  1.9920
   29SAPC   C13 3813   1.855   2.748   6.056 -0.0785  0.0141  1.0922
   29SAPC  H13A 3814   1.857   2.651   6.009 -0.4150  1.2971 -1.6692
   29SAPC  H13B 3815   1.756   2.788   6.071 -0.9352 -1.2291 -0.9923
   29SAPC  H13C 3816   1.920   2.807   5.993 -2.4094  1.6620  0.1477
   29SAPC   C14 3817   1.927   2.869   6.251  0.3572  0.2211  0.7634
   29SAPC  H14A 3818   2.021   2.884   6.303  1.8076  1.1261 -2.0135
   29SAPC  H14B 3819   1.931   2.945   6.175 -0.7550 -0.5205 -0.0463
   29SAPC  H14C 3820   1.838   2.882   6.311 -0.9176  3.1547 -1.6647
   29SAPC   C15 3821   2.065   2.693   6.161 -0.6481 -0.2435 -0.4943
   29SAPC  H15A 3822   2.081   2.589   6.134 -0.4773 -0.5210  0.6347
   29SAPC  H15B 3823   2.120   2.755   6.092 -1.2093 -0.1369 -0.8442
   29SAPC  H15C 3824   2.116   2.695   6.257 -0.0143  3.0435 -0.8785
   29SAPC   C11 3825   1.928   2.626   6.422  0.6167  0.0659  0.2210
   29SAPC  H11A 3826   1.873   2.547   6.478  1.0434  1.7448  3.1447
   29SAPC  H11B 3827   1.898   2.722   6.469 -0.4700 -0.2272  0.1437
   29SAPC     P 3828   2.127   2.451   6.409  0.1400  0.1374  0.1579
   29SAPC   O13 3829   2.023   2.357   6.371 -0.6504  0.1328 -0.0328
   29SAPC   O14 3830   2.248   2.444   6.322  0.7819 -0.1310  0.4555
   29SAPC   O12 3831   2.071   2.596   6.417 -0.1268  0.5421 -0.0465
   29SAPC   O11 3832   2.173   2.420   6.554 -0.5135  0.2410  0.2031
   29SAPC    C1 3833   2.115   2.489   6.664 -0.3699  0.2009  0.0201
   29SAPC    HA 3834   2.142   2.597   6.662  0.1182  0.1257  1.4433
   29SAPC    HB 3835   2.004   2.487   6.667 -0.3363 -1.5498  0.8401
   29SAPC    C2 3836   2.169   2.416   6.787  0.3982  0.4708 -0.4964
   29SAPC    HS 3837   2.121   2.466   6.874 -0.7895 -1.0692 -0.2577
   29SAPC   O21 3838   2.309   2.407   6.794  0.5365 -0.7204  0.3233
   29SAPC   C21 3839   2.372   2.521   6.816 -0.2682 -0.3216  0.4090
   29SAPC   O22 3840   2.321   2.618   6.862 -0.7347 -0.4325  0.4247
   29SAPC   C22 3841   2.518   2.515   6.772 -0.6047 -0.3233  0.5948
   29SAPC   H2R 3842   2.541   2.407   6.790 -0.5169 -0.1226  1.6999
   29SAPC   H2S 3843   2.527   2.541   6.665  0.8695 -0.1799  0.7481
   29SAPC    C3 3844   2.105   2.267   6.776  0.7079 -0.9524 -0.7164
   29SAPC    HX 3845   2.127   2.219   6.678  0.7581 -1.3361 -0.5160
   29SAPC    HY 3846   1.996   2.270   6.751  0.6837 -1.3372 -0.6650
   29SAPC   O31 3847   2.129   2.184   6.893 -0.3687  0.2243  0.2468
   29SAPC   C31 3848   2.024   2.188   6.975 -0.6662  0.3714  0.0689
   29SAPC   O32 3849   1.922   2.252   6.961 -0.0387 -0.2311 -0.3312
   29SAPC   C32 3850   2.066   2.102   7.090 -0.3817  0.3675  0.5890
   29SAPC   H2X 3851   2.118   2.171   7.161  0.5287 -0.0837  0.3604
   29SAPC   H2Y 3852   2.128   2.015   7.061 -2.7566 -0.8007 -1.0862
   29SAPC   C23 3853   2.604   2.598   6.865 -0.0471 -0.0751 -0.0791
   29SAPC   H3R 3854   2.598   2.546   6.964  0.7828 -0.0408 -0.0057
   29SAPC   H3S 3855   2.568   2.702   6.883  2.0978  0.3400  2.1105
   29SAPC   C24 3856   2.757   2.592   6.838 -0.7901 -0.1945  0.5367
   29SAPC   H4R 3857   2.777   2.635   6.738  0.7297  0.4199  1.0706
   29SAPC   H4S 3858   2.785   2.485   6.827  2.6395  0.7036 -0.2991
   29SAPC   C25 3859   2.837   2.663   6.948  0.2668 -0.5832 -0.1476
   29SAPC   H5R 3860   2.840   2.607   7.043 -0.0175  0.3588  0.4161
   29SAPC   C26 3861   2.910   2.773   6.939  0.0109 -0.7097 -0.1138
   29SAPC   H6R 3862   2.977   2.796   7.023  0.2102  0.4310 -0.5750
   29SAPC   C27 3863   2.930   2.870   6.818 -0.0610 -0.5337  0.8766
   29SAPC   H7R 3864   2.900   2.975   6.840 -0.4333 -0.4589  0.0425
   29SAPC   H7S 3865   2.862   2.838   6.736  0.2014  5.8732 -2.2108
   29SAPC   C28 3866   3.072   2.865   6.758  0.1866 -0.3303  0.6319
   29SAPC   H8R 3867   3.071   2.853   6.649  0.6565 -0.9762  0.6959
   29SAPC   C29 3868   3.187   2.885   6.828  0.5635  0.2810 -0.4257
   29SAPC   H9R 3869   3.278   2.879   6.765  1.3286 -3.4525  0.8952
   29SAPC  C210 3870   3.214   2.915   6.977 -0.5066 -0.3230 -0.2275
   29SAPC  H10R 3871   3.324   2.912   6.989 -0.2768  0.8557 -1.8640
   29SAPC  H10S 3872   3.193   2.833   7.049  3.3293 -1.1373  0.0751
   29SAPC  C211 3873   3.159   3.049   7.025  0.3399  1.2699 -0.0248
   29SAPC  H11R 3874   3.118   3.125   6.955 -1.5323 -0.0017 -0.3367
   29SAPC  C212 3875   3.143   3.089   7.145 -0.0545 -1.1012 -0.4797
   29SAPC  H12R 3876   3.105   3.190   7.167  2.5437  0.3691 -2.3863
   29SAPC  C213 3877   3.182   3.002   7.261 -0.6204  0.3133  0.6360
   29SAPC  H13R 3878   3.201   3.075   7.343  0.0470 -0.1573  0.9121
   29SAPC  H13S 3879   3.274   2.940   7.248 -0.9222  0.1597 -0.8441
   29SAPC  C214 3880   3.072   2.912   7.295  0.4151 -0.0976  0.1998
   29SAPC  H14R 3881   3.061   2.832   7.221  0.8875 -0.9792  1.0767
   29SAPC  C215 3882   2.995   2.923   7.405  0.2341 -0.5771  0.2463
   29SAPC  H15R 3883   2.899   2.871   7.405  0.4177 -0.9137  0.1010
   29SAPC  C216 3884   3.009   3.029   7.508 -0.2526 -0.1664  0.1013
   29SAPC  H16R 3885   2.997   3.129   7.462  0.1473 -0.8622 -1.5669
   29SAPC  H16S 3886   3.109   3.010   7.553 -1.0935  0.5399  2.3406
   29SAPC  C217 3887   2.911   3.015   7.622 -0.1668 -0.4447 -0.7503
   29SAPC  H17R 3888   2.901   2.906   7.640 -2.5570 -0.2902 -0.9608
   29SAPC  H17S 3889   2.817   3.062   7.587 -0.9715 -1.5841 -0.1437
   29SAPC  C218 3890   2.958   3.071   7.757  0.0991 -0.5135  1.0370
   29SAPC  H18R 3891   2.955   3.181   7.748  1.8114 -0.4079  1.5180
   29SAPC  H18S 3892   3.064   3.051   7.786  0.9279 -1.0175 -2.2102
   29SAPC  C219 3893   2.866   3.022   7.873  0.0199  0.0621 -0.4500
   29SAPC  H19R 3894   2.880   2.914   7.894  1.2111  0.3672  0.4160
   29SAPC  H19S 3895   2.759   3.042   7.852  0.0297 -0.4843 -1.0267
   29SAPC  C220 3896   2.893   3.091   8.008 -0.3999  0.1973  0.3088
   29SAPC  H20R 3897   2.954   3.023   8.072 -3.0002 -3.3849 -0.8472
   29SAPC  H20S 3898   2.798   3.102   8.064 -1.3261  1.8108 -1.5581
   29SAPC  H20T 3899   2.937   3.193   7.998 -0.1564  0.1019  0.3849
   29SAPC   C33 3900   1.941   2.032   7.162  0.3379 -0.4164 -1.2616
   29SAPC   H3X 3901   1.887   1.968   7.089 -1.7956 -1.4137  1.1118
   29SAPC   H3Y 3902   1.884   2.121   7.196  1.2187 -0.3913  0.2046
   29SAPC   C34 3903   1.970   1.943   7.278  0.1798  0.7788  0.4020
   29SAPC   H4X 3904   2.016   1.851   7.237  1.9071  0.5004  2.8653
   29SAPC   H4Y 3905   1.871   1.933   7.328 -0.1344  0.7591 -0.2222
   29SAPC   C35 3906   2.059   2.015   7.378 -0.4905  0.5001 -0.3351
   29SAPC   H5X 3907   2.013   2.115   7.398 -1.3857  1.0128 -4.3261
   29SAPC   H5Y 3908   2.160   2.020   7.333  0.0409 -0.3369  0.7871
   29SAPC   C36 3909   2.080   1.946   7.515 -0.5059  0.1274  0.2757
   29SAPC   H6X 3910   2.137   1.850   7.515  0.7627  0.8503 -1.4279
   29SAPC   H6Y 3911   1.979   1.908   7.541  0.8419 -2.7732  1.5484
   29SAPC   C37 3912   2.123   2.033   7.623 -0.1910 -0.9854 -0.0760
   29SAPC   H7X 3913   2.034   2.094   7.652  1.7764  1.4323  1.1325
   29SAPC   H7Y 3914   2.203   2.103   7.588 -0.6913  1.5785  3.5203
   29SAPC   C38 3915   2.163   1.951   7.749  0.0812 -0.4002 -0.5921
   29SAPC   H8X 3916   2.246   1.882   7.723 -0.6904 -0.9048 -1.8079
   29SAPC   H8Y 3917   2.079   1.884   7.777  0.5882  0.2188  2.4856
   29SAPC   C39 3918   2.206   2.042   7.868 -0.2088 -0.0836  0.4813
   29SAPC   H9X 3919   2.133   2.123   7.883  1.5095  1.2218  2.0545
   29SAPC   H9Y 3920   2.293   2.101   7.831 -2.0438  1.5552 -1.2983
   29SAPC  C310 3921   2.267   1.980   7.993 -0.3117 -0.0286 -0.1785
   29SAPC  H10X 3922   2.322   1.889   7.960 -0.6802 -0.8091  1.3257
   29SAPC  H10Y 3923   2.184   1.943   8.057  1.8536 -0.6912  2.3365
   29SAPC  C311 3924   2.344   2.082   8.076  0.8192 -0.0218 -0.3699
   29SAPC  H11X 3925   2.281   2.157   8.127  2.5114  0.7379  0.6527
   29SAPC  H11Y 3926   2.415   2.142   8.015  0.2422  1.6355  0.5882
   29SAPC  C312 3927   2.415   1.999   8.193  0.4509  0.7086  0.3294
   29SAPC  H12X 3928   2.479   2.080   8.236  0.7016  0.0760  1.1539
   29SAPC  H12Y 3929   2.485   1.925   8.149 -0.4225 -0.0581  0.2444
   29SAPC  C313 3930   2.329   1.927   8.308  0.0080 -0.9493  1.7518
   29SAPC  H13X 3931   2.394   1.865   8.374  1.2422 -1.4819  0.0611
   29SAPC  H13Y 3932   2.265   1.852   8.256  0.3068  0.4463 -0.6634
   29SAPC  C314 3933   2.246   2.023   8.389  0.3942  0.3656  0.8745
   29SAPC  H14X 3934   2.174   1.972   8.457  0.1583  0.8752  1.0178
   29SAPC  H14Y 3935   2.181   2.084   8.322 -0.1590 -0.6506  0.4877
   29SAPC  C315 3936   2.332   2.104   8.479 -0.7181 -0.4376  0.6577
   29SAPC  H15X 3937   2.401   2.170   8.423 -0.2821  0.2183  1.9460
   29SAPC  H15Y 3938   2.394   2.038   8.543  1.9164  1.3902  0.0952
   29SAPC  C316 3939   2.241   2.190   8.564  0.1197 -0.4743 -0.1003
   29SAPC  H16X 3940   2.212   2.125   8.650 -0.0324  0.0094  0.2143
   29SAPC  H16Y 3941   2.149   2.213   8.505 -0.5108 -1.2641  0.5484
   29SAPC  C317 3942   2.315   2.314   8.621 -0.1597  0.3816  0.2008
   29SAPC  H17X 3943   2.363   2.360   8.532  1.2063  1.7047  1.5743
   29SAPC  H17Y 3944   2.388   2.280   8.698 -0.9170  1.5110  1.4309
   29SAPC  C318 3945   2.224   2.418   8.673 -0.4196  0.5087 -0.0022
   29SAPC  H18X 3946   2.146   2.446   8.599  1.0260  3.3010 -0.5296
   29SAPC  H18Y 3947   2.284   2.507   8.701  0.7313 -0.0687 -0.6114
   29SAPC  H18Z 3948   2.171   2.376   8.761 -1.4719 -0.6322 -1.1561
   30SAPC     N 3949   4.279   2.498   5.910  0.1672  0.3414 -0.4726
   30SAPC   C12 3950   4.249   2.513   6.066 -0.0775  0.1964  0.2353
   30SAPC  H12A 3951   4.299   2.605   6.093  1.0567  0.7664 -3.5832
   30SAPC  H12B 3952   4.289   2.425   6.114  3.0191  2.4194  1.9629
   30SAPC   C13 3953   4.419   2.455   5.896 -0.7636 -0.0844 -0.1515
   30SAPC  H13A 3954   4.428   2.348   5.906 -0.6186 -0.0993 -0.4483
   30SAPC  H13B 3955   4.455   2.470   5.796  0.6412 -0.8402  0.2295
   30SAPC  H13C 3956   4.491   2.504   5.961 -0.4934 -2.3132  1.2705
   30SAPC   C14 3957   4.180   2.395   5.863 -0.5865  0.3198  0.5492
   30SAPC  H14A 3958   4.181   2.362   5.760 -0.1210  0.1510  0.6034
   30SAPC  H14B 3959   4.182   2.307   5.926  0.9554 -0.3090 -0.3454
   30SAPC  H14C 3960   4.082   2.433   5.885  0.2359  3.3669 -0.7928
   30SAPC   C15 3961   4.249   2.624   5.833  0.4492 -0.9229  0.3876
   30SAPC  H15A 3962   4.265   2.615   5.726  0.1298 -0.1027  0.2717
   30SAPC  H15B 3963   4.143   2.639   5.845  0.3288  0.3700 -1.9163
   30SAPC  H15C 3964   4.302   2.710   5.869 -1.6739 -0.1124  1.6515
   30SAPC   C11 3965   4.099   2.538   6.107  0.2715  0.7473 -0.0258
   30SAPC  H11A 3966   4.092   2.535   6.217  0.1526 -1.5996 -0.0671
   30SAPC  H11B 3967   4.038   2.454   6.068  0.1828  0.4031  0.8416
   30SAPC     P 3968   4.073   2.792   6.136  0.1491  0.2237  0.4988
   30SAPC   O13 3969   4.211   2.831   6.133  0.1841 -0.0549  0.3795
   30SAPC   O14 3970   3.982   2.896   6.083 -0.3097  0.1364  0.2667
   30SAPC   O12 3971   4.056   2.659   6.052  0.0607  0.4451 -0.2955
   30SAPC   O11 3972   4.028   2.762   6.287 -0.1801 -0.4915  0.3085
   30SAPC    C1 3973   3.955   2.860   6.360  0.7731  0.0312  0.4945
   30SAPC    HA 3974   3.903   2.928   6.289  0.2439  1.1755  1.9766
   30SAPC    HB 3975   3.877   2.804   6.415  0.8269  0.3003  0.8421
   30SAPC    C2 3976   4.033   2.938   6.468 -0.1027  0.2537 -0.0687
   30SAPC    HS 3977   4.127   2.973   6.419 -0.2239 -2.2364 -2.1442
   30SAPC   O21 3978   4.051   2.842   6.577  0.0737 -0.1000  1.0525
   30SAPC   C21 3979   4.161   2.863   6.652 -0.0954 -0.5484 -0.9491
   30SAPC   O22 3980   4.259   2.931   6.630 -0.3486  0.1011  0.1295
   30SAPC   C22 3981   4.143   2.779   6.781 -0.2500  1.0003  0.2077
   30SAPC   H2R 3982   4.044   2.799   6.826 -1.0185  0.5007 -1.2431
   30SAPC   H2S 3983   4.145   2.672   6.751  1.8650  1.7018 -2.3965
   30SAPC    C3 3984   3.946   3.060   6.523  0.4810 -0.5767  0.3370
   30SAPC    HX 3985   3.849   3.013   6.550 -0.0336 -0.4948 -1.2726
   30SAPC    HY 3986   3.924   3.129   6.439 -3.1075 -1.9378  0.0470
   30SAPC   O31 3987   3.996   3.137   6.638  0.0195 -0.0445 -0.0928
   30SAPC   C31 3988   4.096   3.218   6.601 -0.5831 -0.3099  0.0012
   30SAPC   O32 3989   4.110   3.270   6.488  0.9932  0.8099  0.0080
   30SAPC   C32 3990   4.181   3.250   6.721 -0.2605 -0.0780 -0.5860
   30SAPC   H2X 3991   4.240   3.158   6.742  1.8446  0.6252 -3.2028
   30SAPC   H2Y 3992   4.107   3.242   6.804 -0.7170 -1.9503 -1.1432
   30SAPC   C23 3993   4.243   2.802   6.899 -0.1184 -0.1357  0.4504
   30SAPC   H3R 3994   4.347   2.823   6.864  0.7163 -4.5481  0.0087
   30SAPC   H3S 3995   4.260   2.709   6.957 -2.1894 -0.5318  0.4324
   30SAPC   C24 3996   4.198   2.915   6.994 -0.0292  0.4512  0.5056
   30SAPC   H4R 3997   4.219   3.018   6.957  0.0418  0.3599  0.2925
   30SAPC   H4S 3998   4.264   2.896   7.081 -0.6451 -2.5439  0.3648
   30SAPC   C25 3999   4.055   2.932   7.030  1.9613  0.0399 -0.4682
   30SAPC   H5R 4000   4.000   3.000   6.964  2.9849  1.1134 -0.2264
   30SAPC   C26 4001   3.984   2.875   7.131  0.1834  0.3856  0.6096
   30SAPC   H6R 4002   3.879   2.905   7.138  0.0031  0.8300 -2.8569
   30SAPC   C27 4003   4.038   2.772   7.231 -0.3907  0.4265 -1.2400
   30SAPC   H7R 4004   4.143   2.749   7.203  0.2823  1.1485  0.6603
   30SAPC   H7S 4005   3.971   2.684   7.223 -1.5493  1.3071 -1.4817
   30SAPC   C28 4006   4.040   2.823   7.370  0.1646  0.1521 -0.0442
   30SAPC   H8R 4007   4.050   2.932   7.373  0.4188  0.1116  0.5571
   30SAPC   C29 4008   4.038   2.750   7.483 -0.2036 -0.0398  0.4441
   30SAPC   H9R 4009   4.049   2.802   7.579 -2.2290 -0.7833  1.1038
   30SAPC  C210 4010   4.028   2.594   7.489  0.4473  0.5577 -0.0540
   30SAPC  H10R 4011   4.056   2.564   7.386 -0.7885 -2.2725  0.3927
   30SAPC  H10S 4012   3.919   2.576   7.504  0.8685  0.2777  2.9410
   30SAPC  C211 4013   4.120   2.521   7.588 -0.1883  0.2435 -0.3985
   30SAPC  H11R 4014   4.227   2.513   7.564  0.3062  1.6382  1.2238
   30SAPC  C212 4015   4.082   2.476   7.707  0.4397  0.3290 -0.8193
   30SAPC  H12R 4016   4.157   2.429   7.772 -1.7811 -0.7333  1.0328
   30SAPC  C213 4017   3.942   2.489   7.762 -0.3450 -0.5006 -0.0585
   30SAPC  H13R 4018   3.879   2.401   7.736  1.2997 -1.4441 -0.9214
   30SAPC  H13S 4019   3.886   2.575   7.720 -1.3379 -1.2099 -0.1944
   30SAPC  C214 4020   3.947   2.496   7.913 -1.1428 -0.8181  0.3559
   30SAPC  H14R 4021   3.975   2.595   7.951 -0.4602 -1.3950  1.4081
   30SAPC  C215 4022   3.936   2.401   8.004 -0.8499 -0.1551 -0.4813
   30SAPC  H15R 4023   3.949   2.420   8.112 -2.3197  0.2971 -0.3659
   30SAPC  C216 4024   3.911   2.258   7.984  0.6005  0.2319  0.1690
   30SAPC  H16R 4025   3.972   2.230   7.895  0.3000  0.2435 -0.0432
   30SAPC  H16S 4026   3.807   2.231   7.956  0.3177 -0.4006  1.7869
   30SAPC  C217 4027   3.957   2.185   8.105 -0.1000  0.7271  0.0924
   30SAPC  H17R 4028   4.061   2.212   8.128 -0.3548  2.5731 -0.8701
   30SAPC  H17S 4029   3.959   2.077   8.078 -1.9661  0.7937 -0.4147
   30SAPC  C218 4030   3.866   2.201   8.230  0.0597 -0.2583 -0.0039
   30SAPC  H18R 4031   3.768   2.159   8.200 -0.0379  0.3352 -0.5334
   30SAPC  H18S 4032   3.844   2.309   8.242 -1.6773 -0.3165 -2.3598
   30SAPC  C219 4033   3.915   2.135   8.358 -0.0141 -0.3680 -0.7695
   30SAPC  H19R 4034   4.014   2.162   8.399 -1.0112 -0.5637  1.8634
   30SAPC  H19S 4035   3.913   2.025   8.344 -1.0309 -0.5632  0.7672
   30SAPC  C220 4036   3.813   2.169   8.475 -0.0736  0.8980  0.1143
   30SAPC  H20R 4037   3.706   2.176   8.446 -0.5937  0.8237  1.9651
   30SAPC  H20S 4038   3.833   2.272   8.509  2.2225  0.4383  0.2486
   30SAPC  H20T 4039   3.821   2.099   8.561  0.4571  0.3673 -0.3662
   30SAPC   C33 4040   4.272   3.372   6.702  0.0652 -0.0590  0.0531
   30SAPC   H3X 4041   4.212   3.465   6.696 -1.3241 -1.0253 -1.2201
   30SAPC   H3Y 4042   4.318   3.375   6.601 -0.9414  1.6634 -0.3728
   30SAPC   C34 4043   4.357   3.404   6.820 -0.2938 -0.1809  0.2420
   30SAPC   H4X 4044   4.392   3.509   6.806 -0.6627 -0.1350 -0.3419
   30SAPC   H4Y 4045   4.448   3.340   6.821 -0.9824 -1.1591  0.2510
   30SAPC   C35 4046   4.302   3.397   6.962  0.4406  0.0448 -0.0493
   30SAPC   H5X 4047   4.391   3.407   7.028 -1.0974 -0.5448  2.1837
   30SAPC   H5Y 4048   4.272   3.290   6.964  2.6047 -0.6107 -1.0117
   30SAPC   C36 4049   4.197   3.496   7.010 -0.1636  0.1922 -0.2801
   30SAPC   H6X 4050   4.107   3.476   6.949 -0.1199 -0.8547 -0.0060
   30SAPC   H6Y 4051   4.222   3.600   6.981 -2.6656  0.4500 -1.6606
   30SAPC   C37 4052   4.167   3.486   7.163 -0.0381  0.1544 -0.2624
   30SAPC   H7X 4053   4.166   3.382   7.201  1.9983 -0.7079 -2.4801
   30SAPC   H7Y 4054   4.077   3.540   7.200  2.4429  1.9614  3.4616
   30SAPC   C38 4055   4.268   3.554   7.259  0.6010  0.2490  0.4752
   30SAPC   H8X 4056   4.264   3.664   7.244  0.6291  0.2185  0.2558
   30SAPC   H8Y 4057   4.372   3.524   7.232 -0.0919 -0.3435 -1.5491
   30SAPC   C39 4058   4.251   3.521   7.400  0.1280  0.5611  0.3181
   30SAPC   H9X 4059   4.243   3.410   7.396 -1.2101  0.7162 -2.5027
   30SAPC   H9Y 4060   4.152   3.558   7.437  0.2292 -0.5939  1.7843
   30SAPC  C310 4061   4.364   3.572   7.497  0.0918  0.5756  0.6443
   30SAPC  H10X 4062   4.360   3.683   7.505 -1.3547  0.5977 -0.1124
   30SAPC  H10Y 4063   4.453   3.549   7.435 -2.0229  1.2722 -2.8054
   30SAPC  C311 4064   4.368   3.500   7.634  0.0975 -0.8584 -0.0138
   30SAPC  H11X 4065   4.363   3.390   7.628 -0.1683 -0.9679  1.7604
   30SAPC  H11Y 4066   4.274   3.530   7.684  1.1255 -0.7308  1.9052
   30SAPC  C312 4067   4.491   3.536   7.716  0.0207 -0.6395  0.3788
   30SAPC  H12X 4068   4.495   3.645   7.731  0.7883 -0.5547 -0.3911
   30SAPC  H12Y 4069   4.583   3.518   7.657  0.6254 -1.0989  1.4497
   30SAPC  C313 4070   4.487   3.465   7.852  0.1120  0.1083  0.3842
   30SAPC  H13X 4071   4.503   3.356   7.840 -0.7335  0.2585 -2.5709
   30SAPC  H13Y 4072   4.388   3.473   7.902  0.7780  0.1811  1.7308
   30SAPC  C314 4073   4.595   3.525   7.943 -0.2452 -0.7306 -0.2095
   30SAPC  H14X 4074   4.569   3.633   7.949 -2.0937 -1.1204 -0.6636
   30SAPC  H14Y 4075   4.692   3.518   7.891  0.5868  1.6192  0.9330
   30SAPC  C315 4076   4.571   3.464   8.080  0.1558  0.1646  0.1398
   30SAPC  H15X 4077   4.598   3.357   8.076 -2.0628 -0.4423  0.3262
   30SAPC  H15Y 4078   4.462   3.470   8.103  0.0893 -0.3226 -0.0417
   30SAPC  C316 4079   4.657   3.529   8.196 -0.3653 -0.0714 -0.0971
   30SAPC  H16X 4080   4.634   3.638   8.193  2.8358  0.6187 -1.3446
   30SAPC  H16Y 4081   4.768   3.518   8.195 -0.1797  1.0477  3.1768
   30SAPC  C317 4082   4.624   3.473   8.339  0.3343  0.3298 -0.2051
   30SAPC  H17X 4083   4.649   3.365   8.342  2.5539  0.8030 -0.6398
   30SAPC  H17Y 4084   4.514   3.480   8.350  0.2812 -1.1437  0.3713
   30SAPC  C318 4085   4.698   3.548   8.461 -0.3600  0.1397 -0.0799
   30SAPC  H18X 4086   4.686   3.659   8.464 -1.4679  0.0014  1.0347
   30SAPC  H18Y 4087   4.799   3.503   8.462 -0.6609 -0.5741 -1.0988
   30SAPC  H18Z 4088   4.639   3.513   8.548  0.1339 -2.3459 -0.7096
   31SAPC     N 4089   5.105   4.308   6.172  0.0165  0.7001 -0.4190
   31SAPC   C12 4090   5.177   4.350   6.293  0.2933  0.1688  0.2060
   31SAPC  H12A 4091   5.197   4.455   6.281 -1.2933  0.5018  0.2538
   31SAPC  H12B 4092   5.272   4.300   6.300  0.4083 -0.0659 -2.7701
   31SAPC   C13 4093   5.088   4.157   6.176 -0.3499  0.8870 -0.2762
   31SAPC  H13A 4094   5.186   4.111   6.180 -1.8661 -2.3334  1.6568
   31SAPC  H13B 4095   5.040   4.125   6.266  0.0988 -1.6707 -0.9123
   31SAPC  H13C 4096   5.032   4.129   6.088  0.6622  1.9473 -1.3004
   31SAPC   C14 4097   4.963   4.361   6.156 -0.0958 -0.3315 -0.5601
   31SAPC  H14A 4098   4.968   4.466   6.132 -0.0368  0.3461  2.2446
   31SAPC  H14B 4099   4.911   4.308   6.078 -1.5681  2.4906 -1.5503
   31SAPC  H14C 4100   4.906   4.337   6.245 -0.6230 -0.8669 -1.0424
   31SAPC   C15 4101   5.174   4.349   6.048 -0.1513  1.0312 -0.1854
   31SAPC  H15A 4102   5.133   4.446   6.027  2.9262  1.8542 -2.8658
   31SAPC  H15B 4103   5.280   4.351   6.071  0.3215  1.1276 -2.2713
   31SAPC  H15C 4104   5.155   4.279   5.968  1.5420  0.6762 -0.3027
   31SAPC   C11 4105   5.098   4.328   6.427  0.1638  0.1304 -0.4771
   31SAPC  H11A 4106   5.013   4.399   6.426 -1.6550 -1.9784  0.3193
   31SAPC  H11B 4107   5.167   4.354   6.510  0.9325 -2.1407 -0.3705
   31SAPC     P 4108   4.899   4.156   6.468  0.2839  0.3251 -0.6332
   31SAPC   O13 4109   4.809   4.270   6.448 -0.5514 -0.2657 -0.4290
   31SAPC   O14 4110   4.870   4.034   6.386  0.2206  0.1131  0.0049
   31SAPC   O12 4111   5.055   4.198   6.447  0.3655 -0.1277 -0.7523
   31SAPC   O11 4112   4.894   4.098   6.618 -0.0817 -0.4649  0.0414
   31SAPC    C1 4113   4.999   4.125   6.715 -0.2767  0.0010 -0.4374
   31SAPC    HA 4114   5.046   4.222   6.689  0.9848 -0.5561 -0.2946
   31SAPC    HB 4115   4.959   4.141   6.817  0.5099  0.4676 -0.2014
   31SAPC    C2 4116   5.107   4.013   6.702  0.4576 -1.4221  0.2646
   31SAPC    HS 4117   5.145   4.007   6.597 -0.7343 -1.5640 -0.1650
   31SAPC   O21 4118   5.057   3.889   6.759 -0.0094  0.3979 -0.2536
   31SAPC   C21 4119   5.128   3.779   6.730 -0.3168  0.1596  0.3819
   31SAPC   O22 4120   5.230   3.783   6.665 -0.0647 -0.0567  0.4035
   31SAPC   C22 4121   5.060   3.660   6.793 -0.2797 -0.1973 -0.0597
   31SAPC   H2R 4122   4.965   3.634   6.743  0.1152 -0.5508 -0.6315
   31SAPC   H2S 4123   5.132   3.575   6.784  1.1029  0.8603  0.7751
   31SAPC    C3 4124   5.229   4.047   6.791 -0.0832  0.3590  0.2289
   31SAPC    HX 4125   5.266   4.145   6.752  2.7656 -0.7264  0.1294
   31SAPC    HY 4126   5.314   3.977   6.778 -0.7731 -1.2232  3.8597
   31SAPC   O31 4127   5.188   4.054   6.928 -0.1468 -0.0604 -0.5416
   31SAPC   C31 4128   5.295   4.079   7.006 -0.7381  0.7266 -0.1089
   31SAPC   O32 4129   5.410   4.104   6.969 -0.2377 -0.1455 -0.4523
   31SAPC   C32 4130   5.259   4.059   7.155 -0.4070  0.3200 -0.3290
   31SAPC   H2X 4131   5.159   4.012   7.151  0.1141 -0.7718 -0.7029
   31SAPC   H2Y 4132   5.258   4.162   7.195 -0.6043  0.4992 -0.7994
   31SAPC   C23 4133   5.031   3.685   6.939  0.3547  0.0005  0.0388
   31SAPC   H3R 4134   4.980   3.594   6.978  1.9530 -0.7169  0.5159
   31SAPC   H3S 4135   4.964   3.773   6.947 -0.1765 -0.5168  1.4092
   31SAPC   C24 4136   5.157   3.700   7.018 -0.0199 -0.1700  0.5187
   31SAPC   H4R 4137   5.131   3.730   7.122  0.9534 -1.6292  1.2056
   31SAPC   H4S 4138   5.204   3.796   6.989 -0.2701  0.2747  1.5266
   31SAPC   C25 4139   5.253   3.583   7.017 -0.6170  0.4877  0.0417
   31SAPC   H5R 4140   5.322   3.578   6.933 -0.7330 -2.0648  0.0563
   31SAPC   C26 4141   5.269   3.499   7.121 -0.0908  0.2745  0.1505
   31SAPC   H6R 4142   5.319   3.403   7.098 -0.2595 -0.0806  1.2243
   31SAPC   C27 4143   5.198   3.487   7.255 -0.0204  1.4319  0.0958
   31SAPC   H7R 4144   5.133   3.397   7.247  2.5346 -0.4938  0.4631
   31SAPC   H7S 4145   5.118   3.564   7.257 -1.8952 -0.4557  0.4419
   31SAPC   C28 4146   5.281   3.489   7.382 -0.4518  0.7650  0.0710
   31SAPC   H8R 4147   5.383   3.526   7.363 -0.6797  1.5075  0.2888
   31SAPC   C29 4148   5.242   3.444   7.505 -0.2970  0.1505 -0.5725
   31SAPC   H9R 4149   5.305   3.453   7.595  0.1646  3.3645 -1.1514
   31SAPC  C210 4150   5.103   3.397   7.544 -0.7027 -0.0386  0.4199
   31SAPC  H10R 4151   5.122   3.303   7.601 -1.6606  0.6694  1.9446
   31SAPC  H10S 4152   5.050   3.365   7.453 -2.2237  2.2412  0.4827
   31SAPC  C211 4153   5.037   3.500   7.623  0.6097 -0.2449 -0.9568
   31SAPC  H11R 4154   5.023   3.600   7.579 -0.5738 -0.6551 -1.5372
   31SAPC  C212 4155   5.002   3.488   7.753  0.9260  0.9197 -0.0430
   31SAPC  H12R 4156   4.967   3.581   7.801 -1.2138  0.2979 -0.3334
   31SAPC  C213 4157   5.017   3.365   7.846  0.0972 -0.0961  0.1527
   31SAPC  H13R 4158   5.014   3.277   7.779  0.6354 -0.6230  0.8096
   31SAPC  H13S 4159   4.936   3.367   7.922 -0.7779  1.4410 -0.7785
   31SAPC  C214 4160   5.161   3.356   7.910  0.7724 -0.2868  0.5307
   31SAPC  H14R 4161   5.249   3.360   7.844  0.6251  0.7751  0.3791
   31SAPC  C215 4162   5.198   3.344   8.043  0.7151 -0.0924 -0.7605
   31SAPC  H15R 4163   5.304   3.329   8.068  1.0303  1.6166 -0.9667
   31SAPC  C216 4164   5.102   3.334   8.157  1.7226  0.3386 -0.7410
   31SAPC  H16R 4165   5.036   3.423   8.154  0.2290 -0.7430 -0.9957
   31SAPC  H16S 4166   5.165   3.336   8.248  1.0009  2.3014 -0.2744
   31SAPC  C217 4167   5.024   3.200   8.157 -0.9530  0.1991 -0.0306
   31SAPC  H17R 4168   5.088   3.110   8.153 -0.7558 -0.0051  4.7685
   31SAPC  H17S 4169   4.954   3.193   8.070 -0.1780 -2.4370 -0.4786
   31SAPC  C218 4170   4.953   3.186   8.293 -0.6377  0.0757  0.0998
   31SAPC  H18R 4171   4.889   3.098   8.274 -0.1251 -0.0576 -1.0120
   31SAPC  H18S 4172   4.883   3.266   8.325 -0.3988  0.5974 -0.6864
   31SAPC  C219 4173   5.044   3.158   8.418 -0.3133  0.0093  0.4027
   31SAPC  H19R 4174   5.097   3.253   8.440 -0.0570  0.6354 -2.7817
   31SAPC  H19S 4175   5.111   3.074   8.387 -1.2532 -1.6486  2.7002
   31SAPC  C220 4176   4.958   3.107   8.539 -0.2904  0.2365  0.0778
   31SAPC  H20R 4177   4.872   3.175   8.558 -0.3322  0.8772 -2.2575
   31SAPC  H20S 4178   5.033   3.088   8.619  1.2271  0.3075 -1.2880
   31SAPC  H20T 4179   4.916   3.007   8.518 -0.1260  0.1864 -0.0171
   31SAPC   C33 4180   5.359   3.970   7.231  0.0402  0.0485  0.9070
   31SAPC   H3X 4181   5.452   4.024   7.202 -0.3171  0.8877  1.2920
   31SAPC   H3Y 4182   5.357   3.864   7.201  0.3527  0.1399  0.5602
   31SAPC   C34 4183   5.356   3.994   7.384  0.3722 -0.1621  0.2234
   31SAPC   H4X 4184   5.248   3.993   7.409 -0.1745  1.9167 -1.8563
   31SAPC   H4Y 4185   5.410   4.091   7.394  0.1197 -0.0482  0.5093
   31SAPC   C35 4186   5.419   3.876   7.457  0.8090 -0.2775 -0.0842
   31SAPC   H5X 4187   5.524   3.858   7.425  0.0324 -3.1235 -1.2258
   31SAPC   H5Y 4188   5.359   3.786   7.430 -3.2084  2.9231 -2.2432
   31SAPC   C36 4189   5.435   3.888   7.605 -0.0954  0.0198  0.1256
   31SAPC   H6X 4190   5.483   3.984   7.637  0.7645 -0.2077 -0.4530
   31SAPC   H6Y 4191   5.492   3.800   7.642 -0.1802 -0.1192 -0.0743
   31SAPC   C37 4192   5.298   3.874   7.669 -0.3351  1.0561  0.0770
   31SAPC   H7X 4193   5.250   3.784   7.626 -0.0643  1.7773 -1.8068
   31SAPC   H7Y 4194   5.239   3.961   7.631  1.5026  2.0874 -0.5142
   31SAPC   C38 4195   5.286   3.871   7.824 -0.9041 -0.2568  0.8149
   31SAPC   H8X 4196   5.332   3.956   7.878  0.5971 -0.7794  0.3873
   31SAPC   H8Y 4197   5.356   3.791   7.858 -1.8159 -1.3824  0.0557
   31SAPC   C39 4198   5.146   3.847   7.876 -0.1753 -0.1313 -0.4054
   31SAPC   H9X 4199   5.121   3.747   7.836 -0.9381 -1.2352  2.6589
   31SAPC   H9Y 4200   5.081   3.925   7.830 -1.8738  0.0301  2.1220
   31SAPC  C310 4201   5.132   3.848   8.027 -0.3959  0.2230 -0.3055
   31SAPC  H10X 4202   5.027   3.882   8.041 -0.6406 -1.1852  1.2838
   31SAPC  H10Y 4203   5.192   3.932   8.069  2.3430 -1.3472 -0.9746
   31SAPC  C311 4204   5.161   3.723   8.102 -0.0446 -0.1763 -0.4301
   31SAPC  H11X 4205   5.265   3.691   8.080  0.1654 -0.5962  1.1197
   31SAPC  H11Y 4206   5.094   3.639   8.070  0.8383 -0.5667 -1.2505
   31SAPC  C312 4207   5.153   3.732   8.256 -0.3730 -0.1545 -0.0046
   31SAPC  H12X 4208   5.143   3.628   8.293 -0.4433 -0.2960 -0.4185
   31SAPC  H12Y 4209   5.062   3.788   8.287 -0.2168 -0.6149  1.2929
   31SAPC  C313 4210   5.277   3.786   8.319 -1.0022  0.2613 -0.0464
   31SAPC  H13X 4211   5.278   3.894   8.293  0.3269  0.0957 -0.7014
   31SAPC  H13Y 4212   5.357   3.741   8.257 -0.3766  0.2589  0.7604
   31SAPC  C314 4213   5.296   3.753   8.463 -0.6390 -0.0300 -0.4818
   31SAPC  H14X 4214   5.404   3.747   8.485 -0.6328 -2.6962 -0.9872
   31SAPC  H14Y 4215   5.237   3.660   8.481  0.3959 -0.9129 -1.6107
   31SAPC  C315 4216   5.246   3.856   8.567 -0.1352 -0.0990  0.2914
   31SAPC  H15X 4217   5.138   3.876   8.557  0.4570  2.9258 -0.6353
   31SAPC  H15Y 4218   5.282   3.960   8.551 -0.9240  0.0107 -0.7782
   31SAPC  C316 4219   5.269   3.816   8.721 -0.8836 -0.5691 -0.2760
   31SAPC  H16X 4220   5.238   3.710   8.730 -1.2860 -0.3733  0.6790
   31SAPC  H16Y 4221   5.197   3.886   8.769 -2.1860 -0.5642 -2.1581
   31SAPC  C317 4222   5.400   3.843   8.790 -0.4606  0.4421 -0.1263
   31SAPC  H17X 4223   5.482   3.803   8.726 -1.5970  1.2051 -2.1191
   31SAPC  H17Y 4224   5.403   3.790   8.888  0.9684  1.3440  0.3350
   31SAPC  C318 4225   5.436   3.993   8.818 -0.3033  0.2591 -0.2450
   31SAPC  H18X 4226   5.366   4.033   8.894  0.6067  2.3275 -0.4809
   31SAPC  H18Y 4227   5.417   4.059   8.730 -2.0217  0.1295  0.0075
   31SAPC  H18Z 4228   5.538   4.016   8.853 -0.0510 -1.3786  0.1330
   32SAPC     N 4229   6.267   4.766   5.639 -0.8798  0.2345  0.1266
   32SAPC   C12 4230   6.399   4.765   5.717  0.3029 -0.0426 -0.5854
   32SAPC  H12A 4231   6.477   4.829   5.676  0.8486  0.0724  0.6167
   32SAPC  H12B 4232   6.437   4.665   5.710 -4.6584 -2.1012  0.0426
   32SAPC   C13 4233   6.178   4.658   5.689 -0.2543  0.3046  0.0170
   32SAPC  H13A 4234   6.088   4.661   5.629  0.1343 -2.9129 -0.8064
   32SAPC  H13B 4235   6.217   4.558   5.675 -0.8720  0.0526  0.0527
   32SAPC  H13C 4236   6.149   4.674   5.791  1.6421  0.0374  0.6148
   32SAPC   C14 4237   6.205   4.903   5.646 -0.2623 -0.0054 -0.7117
   32SAPC  H14A 4238   6.108   4.897   5.599 -0.1036  0.2463 -1.0733
   32SAPC  H14B 4239   6.181   4.917   5.750 -1.5936 -4.8279 -0.2628
   32SAPC  H14C 4240   6.267   4.984   5.610  1.0084 -0.9940 -0.7749
   32SAPC   C15 4241   6.284   4.743   5.492  0.6117  1.2228 -0.1073
   32SAPC  H15A 4242   6.332   4.648   5.475 -0.4513  0.9049 -1.4394
   32SAPC  H15B 4243   6.190   4.750   5.438  0.5491  1.4470  0.0309
   32SAPC  H15C 4244   6.343   4.823   5.450 -1.3164  0.6861 -4.0402
   32SAPC   C11 4245   6.389   4.807   5.866  0.2813  0.3210 -0.4916
   32SAPC  H11A 4246   6.311   4.755   5.926  0.9018  1.2930  1.1896
   32SAPC  H11B 4247   6.366   4.915   5.853 -2.4743 -0.2574 -0.7600
   32SAPC     P 4248   6.576   4.656   5.991 -0.1386  0.0298  0.0744
   32SAPC   O13 4249   6.561   4.542   5.899 -0.7915  0.0732  1.2698
   32SAPC   O14 4250   6.708   4.695   6.040 -0.0388 -0.0374 -0.0252
   32SAPC   O12 4251   6.516   4.787   5.926 -0.4364 -0.2813 -0.1828
   32SAPC   O11 4252   6.497   4.628   6.119  0.1548  0.5996  0.1864
   32SAPC    C1 4253   6.445   4.728   6.211 -0.5975  0.1807  0.3656
   32SAPC    HA 4254   6.402   4.816   6.158  1.0769  0.7264 -0.1226
   32SAPC    HB 4255   6.370   4.690   6.283  0.1975 -2.1901  0.0170
   32SAPC    C2 4256   6.559   4.787   6.305  0.7930  0.0430 -0.9958
   32SAPC    HS 4257   6.636   4.846   6.251  0.6825  0.4130 -0.7578
   32SAPC   O21 4258   6.614   4.674   6.380 -0.2843  0.4581 -0.1504
   32SAPC   C21 4259   6.719   4.713   6.454  0.9343 -0.9596  0.7053
   32SAPC   O22 4260   6.775   4.820   6.440  0.2840 -0.0921  1.1000
   32SAPC   C22 4261   6.769   4.599   6.542  0.5124 -0.3353 -1.2023
   32SAPC   H2R 4262   6.681   4.531   6.535 -1.0386  1.3546  1.1476
   32SAPC   H2S 4263   6.870   4.568   6.507  1.4397  0.7782  0.4448
   32SAPC    C3 4264   6.501   4.906   6.391  0.4937  0.8106 -0.1556
   32SAPC    HX 4265   6.481   4.993   6.325  0.3651  1.1265  0.2955
   32SAPC    HY 4266   6.583   4.938   6.458 -0.2675  1.5666  0.4203
   32SAPC   O31 4267   6.381   4.865   6.458 -0.3089 -0.4067 -0.2070
   32SAPC   C31 4268   6.397   4.829   6.590 -0.2728  0.3062  0.3423
   32SAPC   O32 4269   6.500   4.810   6.642 -0.2879  0.2699 -0.1368
   32SAPC   C32 4270   6.254   4.815   6.653 -0.8189  0.0169  0.0990
   32SAPC   H2X 4271   6.194   4.753   6.583  1.2947 -2.8358  0.7164
   32SAPC   H2Y 4272   6.208   4.914   6.670  0.9663  0.4425  2.6293
   32SAPC   C23 4273   6.779   4.657   6.682 -0.2572  0.1999  0.0009
   32SAPC   H3R 4274   6.693   4.718   6.715 -1.4653 -0.9983 -0.8341
   32SAPC   H3S 4275   6.870   4.719   6.674  0.3573 -0.6550  0.3036
   32SAPC   C24 4276   6.792   4.543   6.786  0.2070 -0.0447  0.2983
   32SAPC   H4R 4277   6.701   4.479   6.786  1.8239 -2.3901 -1.0637
   32SAPC   H4S 4278   6.798   4.594   6.885  0.7962 -0.3406  0.4125
   32SAPC   C25 4279   6.907   4.451   6.766  0.4819  0.1071 -0.5683
   32SAPC   H5R 4280   6.875   4.351   6.734 -0.2141 -0.7329  2.6475
   32SAPC   C26 4281   7.035   4.486   6.778  0.5031  0.7419 -0.3221
   32SAPC   H6R 4282   7.114   4.411   6.760 -1.1653 -0.9796 -0.6258
   32SAPC   C27 4283   7.080   4.627   6.812 -0.8498  0.0598  0.4935
   32SAPC   H7R 4284   7.006   4.676   6.878 -1.1847  1.9462 -1.2239
   32SAPC   H7S 4285   7.081   4.697   6.726 -0.5122  1.3295  1.5182
   32SAPC   C28 4286   7.213   4.633   6.889  0.2857  0.1194 -0.6218
   32SAPC   H8R 4287   7.295   4.668   6.824  2.4752 -0.8676  1.5265
   32SAPC   C29 4288   7.231   4.593   7.019  0.7777 -0.1478  0.0017
   32SAPC   H9R 4289   7.331   4.597   7.064  0.0360 -0.2471  1.6992
   32SAPC  C210 4290   7.127   4.534   7.113  0.5124  0.2424 -0.3863
   32SAPC  H10R 4291   7.163   4.433   7.142  0.8518 -0.0039 -1.6158
   32SAPC  H10S 4292   7.033   4.525   7.054  0.7387 -0.4572 -0.6453
   32SAPC  C211 4293   7.106   4.629   7.229  0.4053  0.4461 -0.6897
   32SAPC  H11R 4294   7.060   4.724   7.197  2.6284  2.4124  1.6521
   32SAPC  C212 4295   7.137   4.609   7.356 -0.0007 -0.4195 -0.4211
   32SAPC  H12R 4296   7.119   4.688   7.431 -0.2403 -1.2022  0.3487
   32SAPC  C213 4297   7.195   4.476   7.397  0.0927 -0.3013 -0.0929
   32SAPC  H13R 4298   7.301   4.473   7.365  0.2930  0.6646  0.4611
   32SAPC  H13S 4299   7.134   4.397   7.347 -0.8903  1.5729 -1.9213
   32SAPC  C214 4300   7.194   4.452   7.544  0.2901  0.5217  0.1597
   32SAPC  H14R 4301   7.284   4.491   7.593  1.1100 -3.1667  1.7476
   32SAPC  C215 4302   7.109   4.372   7.617  0.4615  0.1813 -0.1582
   32SAPC  H15R 4303   7.119   4.356   7.725 -1.0696 -0.6421 -0.1264
   32SAPC  C216 4304   6.991   4.291   7.570 -0.5995 -0.0589 -0.1797
   32SAPC  H16R 4305   6.971   4.317   7.464  0.4792  0.4554 -0.2612
   32SAPC  H16S 4306   6.900   4.322   7.625 -0.7511 -1.3801  0.3335
   32SAPC  C217 4307   7.016   4.138   7.572 -0.4942 -0.1367  0.5292
   32SAPC  H17R 4308   7.034   4.117   7.680  2.1403  0.7829  0.3143
   32SAPC  H17S 4309   7.105   4.124   7.507 -0.1563  0.3280  0.8857
   32SAPC  C218 4310   6.888   4.060   7.536  0.5061  0.3683 -0.9113
   32SAPC  H18R 4311   6.831   4.111   7.455  1.7267  1.3629 -1.1551
   32SAPC  H18S 4312   6.817   4.058   7.622  0.1110  0.7687 -1.2270
   32SAPC  C219 4313   6.920   3.920   7.475 -0.1377  0.0831 -0.2612
   32SAPC  H19R 4314   6.967   3.860   7.556 -3.1662  1.3451  2.5521
   32SAPC  H19S 4315   6.997   3.933   7.396  0.2573  2.1736  0.4368
   32SAPC  C220 4316   6.807   3.841   7.410 -0.7168 -0.2490 -0.1131
   32SAPC  H20R 4317   6.750   3.915   7.348  0.9508  0.8549 -0.3558
   32SAPC  H20S 4318   6.748   3.796   7.492 -0.6030 -0.7499 -0.3014
   32SAPC  H20T 4319   6.853   3.765   7.343  1.3435  0.8200  0.0459
   32SAPC   C33 4320   6.245   4.736   6.788  0.4088  0.9916  0.0629
   32SAPC   H3X 4321   6.304   4.642   6.779 -1.1924  0.0160 -0.3883
   32SAPC   H3Y 4322   6.142   4.695   6.796  1.3968 -1.3336  1.3723
   32SAPC   C34 4323   6.274   4.812   6.917 -0.9105  0.5204  0.3456
   32SAPC   H4X 4324   6.188   4.878   6.941  0.0368  2.0783 -0.4463
   32SAPC   H4Y 4325   6.367   4.868   6.893  1.1627 -2.5135  1.0895
   32SAPC   C35 4326   6.301   4.732   7.041  0.5579  0.0598 -0.0507
   32SAPC   H5X 4327   6.400   4.681   7.048 -0.0950 -1.6745 -2.8253
   32SAPC   H5Y 4328   6.217   4.661   7.053  0.3450  0.4473  0.7834
   32SAPC   C36 4329   6.301   4.816   7.166  0.5772 -1.0430 -0.3781
   32SAPC   H6X 4330   6.209   4.877   7.159  1.9144  1.3738  2.1389
   32SAPC   H6Y 4331   6.394   4.876   7.155 -0.1209  0.6404  2.3589
   32SAPC   C37 4332   6.315   4.740   7.302  0.2964  0.3913  0.1339
   32SAPC   H7X 4333   6.409   4.681   7.301  0.7769  1.1052  1.4201
   32SAPC   H7Y 4334   6.233   4.666   7.311 -1.2998  2.0619 -0.5154
   32SAPC   C38 4335   6.324   4.822   7.431  0.3510  0.1924  0.9448
   32SAPC   H8X 4336   6.226   4.874   7.427  0.5051  0.3096 -2.5205
   32SAPC   H8Y 4337   6.400   4.903   7.429  0.4728  0.0938  1.3510
   32SAPC   C39 4338   6.328   4.737   7.559 -0.4826  0.0010 -0.6607
   32SAPC   H9X 4339   6.245   4.664   7.554 -0.8034  0.3003  0.2101
   32SAPC   H9Y 4340   6.317   4.806   7.645 -0.1498  0.8872 -1.3104
   32SAPC  C310 4341   6.459   4.655   7.584  0.1532 -0.1824  0.6747
   32SAPC  H10X 4342   6.547   4.719   7.601 -0.5423  1.0165 -0.1713
   32SAPC  H10Y 4343   6.493   4.602   7.493 -0.4153 -0.3511  0.5542
   32SAPC  C311 4344   6.433   4.566   7.705  0.1914  0.2365 -0.1578
   32SAPC  H11X 4345   6.361   4.485   7.680 -1.3878  1.0099  1.8152
   32SAPC  H11Y 4346   6.386   4.630   7.782  2.0473 -2.0750  2.9819
   32SAPC  C312 4347   6.556   4.499   7.773 -0.0608  0.1886  0.0668
   32SAPC  H12X 4348   6.620   4.581   7.812  0.2965 -0.2268  0.3453
   32SAPC  H12Y 4349   6.609   4.440   7.696 -2.5386  2.7885 -3.8324
   32SAPC  C313 4350   6.522   4.395   7.890 -0.3744 -0.0210 -0.1638
   32SAPC  H13X 4351   6.478   4.306   7.840  3.9462 -2.5234  0.1931
   32SAPC  H13Y 4352   6.446   4.441   7.957 -2.4319 -0.0563 -2.3843
   32SAPC  C314 4353   6.640   4.351   7.974  0.0406 -0.2805 -0.0198
   32SAPC  H14X 4354   6.593   4.304   8.064 -1.8484  3.0339  0.7976
   32SAPC  H14Y 4355   6.685   4.440   8.022 -0.1562 -0.6615  0.9028
   32SAPC  C315 4356   6.739   4.254   7.913  0.4199 -0.1675 -0.6787
   32SAPC  H15X 4357   6.826   4.317   7.885  0.7175  0.8902  2.4848
   32SAPC  H15Y 4358   6.676   4.218   7.829 -2.3192 -0.7537  1.5495
   32SAPC  C316 4359   6.770   4.131   7.995 -0.4781  0.2944  0.4448
   32SAPC  H16X 4360   6.679   4.069   8.011 -0.4119  0.2022  0.4605
   32SAPC  H16Y 4361   6.816   4.166   8.090  1.5857 -2.1913  0.4288
   32SAPC  C317 4362   6.872   4.034   7.935 -0.0391 -0.1773 -0.1888
   32SAPC  H17X 4363   6.958   4.090   7.891 -0.0831 -1.4845 -1.9667
   32SAPC  H17Y 4364   6.815   3.998   7.847 -0.4450  1.3250 -0.5668
   32SAPC  C318 4365   6.908   3.917   8.021  0.0521  0.2472 -0.2194
   32SAPC  H18X 4366   6.827   3.843   8.035 -0.9281  1.2304 -0.6275
   32SAPC  H18Y 4367   6.936   3.951   8.123  0.9011  1.1715 -0.7470
   32SAPC  H18Z 4368   6.994   3.864   7.976  0.8699  0.2536  1.3004
   33POPC     N 4369   3.770   5.275  10.900 -0.3751  0.0261 -0.7887
   33POPC   C12 4370   3.714   5.268  10.763 -0.4489  0.3306  0.3635
   33POPC  H12A 4371   3.632   5.339  10.755 -0.1983  0.4079 -1.6468
   33POPC  H12B 4372   3.673   5.172  10.737 -2.5229  1.2751  0.0468
   33POPC   C13 4373   3.854   5.397  10.920 -0.3730  0.5316 -0.0245
   33POPC  H13A 4374   3.790   5.484  10.920  1.9925  2.3255  0.9711
   33POPC  H13B 4375   3.907   5.389  11.013 -2.0680 -1.5898  0.7914
   33POPC  H13C 4376   3.916   5.419  10.834 -2.3919  0.3615 -1.5506
   33POPC   C14 4377   3.661   5.286  11.003  0.5613  0.2781  0.0599
   33POPC  H14A 4378   3.597   5.372  10.990 -2.0854 -1.4747  0.9832
   33POPC  H14B 4379   3.589   5.205  11.000  1.7330 -0.7848  0.2401
   33POPC  H14C 4380   3.698   5.293  11.104 -1.9967  0.4389  1.0374
   33POPC   C15 4381   3.854   5.154  10.932 -0.1830 -0.4415  0.4142
   33POPC  H15A 4382   3.893   5.169  11.032 -1.3259  1.1639  0.6493
   33POPC  H15B 4383   3.924   5.141  10.851  1.8027  0.6448  1.8934
   33POPC  H15C 4384   3.785   5.071  10.933 -0.0157 -0.6114 -1.4139
   33POPC   C11 4385   3.813   5.281  10.637  0.6058  0.1797 -0.5039
   33POPC  H11A 4386   3.884   5.363  10.660 -0.4639  1.6011 -2.1028
   33POPC  H11B 4387   3.763   5.329  10.550 -1.5293 -1.4354 -0.2136
   33POPC     P 4388   4.013   5.133  10.545 -0.1318 -0.2983  0.2500
   33POPC   O13 4389   4.080   5.061  10.653  1.2281 -0.5371  1.0346
   33POPC   O14 4390   4.081   5.259  10.500 -0.7786 -0.5470 -0.7161
   33POPC   O12 4391   3.868   5.157  10.600 -0.4436  0.2823 -0.3634
   33POPC   O11 4392   3.966   5.041  10.433 -0.2722 -0.5270 -0.0396
   33POPC    C1 4393   3.849   5.052  10.356  0.4507 -0.1662 -0.0138
   33POPC    HA 4394   3.761   5.011  10.409 -0.5930  1.3244 -0.5301
   33POPC    HB 4395   3.832   5.149  10.304  0.6185 -0.2841 -0.2851
   33POPC    C2 4396   3.855   4.949  10.238 -0.0221  0.4246 -0.2285
   33POPC    HS 4397   3.880   4.851  10.283  0.6047  1.2199  1.1775
   33POPC   O21 4398   3.958   4.992  10.143 -0.2212  0.0515 -0.4439
   33POPC   C21 4399   3.987   4.897  10.057 -0.5937  0.4025 -0.1069
   33POPC   O22 4400   3.951   4.780  10.048 -0.3695 -0.5207 -0.0218
   33POPC   C22 4401   4.095   4.964   9.965 -0.4845  0.3289 -0.6577
   33POPC   H2R 4402   4.137   4.899   9.886  0.9520  1.2263 -0.6645
   33POPC   H2S 4403   4.182   4.996  10.026 -0.5115  0.1187 -0.5110
   33POPC    C3 4404   3.709   4.923  10.173  0.5973  0.0445 -0.1023
   33POPC    HX 4405   3.636   4.913  10.256 -0.8271  0.2953 -1.3050
   33POPC    HY 4406   3.704   4.830  10.114  2.1261  1.9116 -3.3151
   33POPC   O31 4407   3.665   5.029  10.092  0.1211  0.4748 -0.2508
   33POPC   C31 4408   3.545   5.000  10.024  0.4994  0.2589 -0.3967
   33POPC   O32 4409   3.488   4.897  10.039  0.3912  0.0015  0.0258
   33POPC   C32 4410   3.497   5.126   9.952 -0.5837 -0.0882 -0.3516
   33POPC   H2X 4411   3.582   5.181   9.906 -1.2972  1.9529  0.6872
   33POPC   H2Y 4412   3.453   5.191  10.032  1.4716  0.8541  0.0309
   33POPC   C23 4413   4.040   5.086   9.902  0.6229  0.5343 -0.3063
   33POPC   H3R 4414   4.028   5.164   9.981 -0.8597  1.4283 -1.3794
   33POPC   H3S 4415   3.943   5.065   9.851  0.7421 -0.5665 -0.0881
   33POPC   C24 4416   4.148   5.149   9.805 -0.2019  0.0189 -0.0133
   33POPC   H4R 4417   4.239   5.085   9.803 -0.0658  0.1819  0.6319
   33POPC   H4S 4418   4.183   5.244   9.852 -0.3088  1.3822 -2.6407
   33POPC   C25 4419   4.101   5.177   9.665 -0.7855 -0.4878  0.8306
   33POPC   H5R 4420   4.168   5.240   9.603 -1.3519 -0.6580  0.0467
   33POPC   H5S 4421   4.009   5.239   9.669 -1.1100 -0.9072  0.0094
   33POPC   C26 4422   4.071   5.046   9.591 -0.7300 -0.7386 -0.8390
   33POPC   H6R 4423   3.989   4.997   9.647 -0.8733  0.4154 -0.0404
   33POPC   H6S 4424   4.157   4.976   9.588 -0.2273 -0.1525 -0.1266
   33POPC   C27 4425   4.011   5.074   9.454  0.4181  0.2095 -0.0275
   33POPC   H7R 4426   3.917   5.132   9.453 -0.2383 -0.8655 -1.3624
   33POPC   H7S 4427   3.968   4.985   9.405  0.6713  1.0892 -1.9095
   33POPC   C28 4428   4.104   5.148   9.354  0.4328 -0.0069  0.3205
   33POPC   H8R 4429   4.100   5.255   9.384  1.2042 -0.3042  1.5271
   33POPC   H8S 4430   4.046   5.124   9.262 -0.5658 -0.8731  1.1687
   33POPC   C29 4431   4.248   5.104   9.336 -0.7018  0.3837 -0.3353
   33POPC   H91 4432   4.305   5.116   9.430 -0.7082  0.9526 -0.4021
   33POPC  C210 4433   4.314   5.054   9.226  0.5021 -0.5578  0.0249
   33POPC  H101 4434   4.413   5.008   9.226  0.2508 -1.0981  0.2580
   33POPC  C211 4435   4.245   5.042   9.085 -0.0830  0.4359  0.7213
   33POPC  H11R 4436   4.300   5.097   9.006 -0.2776  1.4670  1.2915
   33POPC  H11S 4437   4.147   5.094   9.087  0.0726  0.8693 -1.6530
   33POPC  C212 4438   4.223   4.896   9.049  0.8701  0.1497 -0.3633
   33POPC  H12R 4439   4.160   4.879   8.959  0.2717 -0.7479  0.2153
   33POPC  H12S 4440   4.168   4.842   9.129  2.7526  0.6805  1.3211
   33POPC  C213 4441   4.353   4.827   9.003 -0.8564  0.2027  1.1161
   33POPC  H13R 4442   4.417   4.824   9.094 -0.9787 -1.3715  1.1607
   33POPC  H13S 4443   4.410   4.886   8.928 -2.0312  1.5008  1.2329
   33POPC  C214 4444   4.328   4.688   8.955 -0.8878  0.5269  0.0025
   33POPC  H14R 4445   4.223   4.660   8.981  0.0080 -1.8094  1.2700
   33POPC  H14S 4446   4.404   4.618   8.996  0.9013  1.8531 -1.0361
   33POPC  C215 4447   4.368   4.676   8.808  0.0598  0.1182 -0.0288
   33POPC  H15R 4448   4.376   4.568   8.783  0.0334 -0.5318  2.6032
   33POPC  H15S 4449   4.461   4.730   8.779  0.2528 -1.3009 -2.1529
   33POPC  C216 4450   4.253   4.722   8.727 -0.5197  0.2000 -0.1090
   33POPC  H16R 4451   4.256   4.833   8.726  3.2253  0.2539  2.7998
   33POPC  H16S 4452   4.159   4.690   8.776  0.4935 -2.0758  0.3909
   33POPC  C217 4453   4.269   4.667   8.582  0.2069 -0.0028  0.6596
   33POPC  H17R 4454   4.175   4.693   8.530 -0.5039 -1.2687  1.2823
   33POPC  H17S 4455   4.287   4.557   8.572  0.1177 -0.0218  0.7136
   33POPC  C218 4456   4.390   4.729   8.509 -0.2117 -0.2363  0.8718
   33POPC  H18R 4457   4.381   4.713   8.399 -1.0908 -1.4937  1.1161
   33POPC  H18S 4458   4.482   4.676   8.540 -0.4785 -2.4618 -1.8980
   33POPC  H18T 4459   4.404   4.838   8.523 -0.4268 -0.3487  1.9944
   33POPC   C33 4460   3.392   5.093   9.849 -0.2030  0.5939  0.1585
   33POPC   H3X 4461   3.286   5.077   9.878 -0.4115 -1.2006 -1.4532
   33POPC   H3Y 4462   3.415   4.995   9.803 -0.9956  1.0265 -1.2046
   33POPC   C34 4463   3.396   5.200   9.733  0.4899  0.6636  0.0412
   33POPC   H4X 4464   3.486   5.202   9.668 -0.3256 -0.6957 -1.1754
   33POPC   H4Y 4465   3.363   5.301   9.767  0.1895  0.6133 -0.0937
   33POPC   C35 4466   3.293   5.153   9.624  0.3192 -1.1304 -0.5709
   33POPC   H5X 4467   3.201   5.112   9.670  0.5163  0.4484  1.3094
   33POPC   H5Y 4468   3.339   5.065   9.575 -0.4738 -0.8198 -1.8872
   33POPC   C36 4469   3.260   5.271   9.524  0.3952 -0.0922 -0.1369
   33POPC   H6X 4470   3.359   5.311   9.494  0.4240 -0.9376 -1.2004
   33POPC   H6Y 4471   3.193   5.348   9.569  1.6372  0.1211  1.3580
   33POPC   C37 4472   3.200   5.220   9.394 -0.2001  0.0431  0.0002
   33POPC   H7X 4473   3.101   5.175   9.420  0.5031 -1.5034  0.0085
   33POPC   H7Y 4474   3.267   5.136   9.367 -0.8206 -0.1347 -1.0209
   33POPC   C38 4475   3.186   5.330   9.281 -0.3292 -0.3450 -0.6477
   33POPC   H8X 4476   3.284   5.382   9.272  0.8757 -2.3567  0.4328
   33POPC   H8Y 4477   3.109   5.401   9.320 -0.9849 -0.7795 -1.1377
   33POPC   C39 4478   3.141   5.268   9.143  0.3552  0.6194  1.2489
   33POPC   H9X 4479   3.040   5.229   9.166 -0.7915  0.9561 -2.8657
   33POPC   H9Y 4480   3.211   5.183   9.128  1.5409  1.2043  3.2765
   33POPC  C310 4481   3.131   5.366   9.031 -0.1343  0.1573 -0.3913
   33POPC  H10X 4482   3.229   5.400   8.990 -0.2388  0.3176 -0.5074
   33POPC  H10Y 4483   3.071   5.453   9.065  0.8469  0.9539 -0.6675
   33POPC  C311 4484   3.051   5.311   8.914 -0.4885 -0.5926 -0.1125
   33POPC  H11X 4485   3.036   5.394   8.843 -2.6973 -2.0925 -1.4477
   33POPC  H11Y 4486   2.950   5.283   8.949  0.3891 -1.2385  1.9991
   33POPC  C312 4487   3.128   5.205   8.843 -0.3139 -0.4413 -0.1858
   33POPC  H12X 4488   3.104   5.113   8.900 -1.2488  1.6929  2.9391
   33POPC  H12Y 4489   3.238   5.220   8.836 -0.4872  0.8417 -0.2781
   33POPC  C313 4490   3.076   5.174   8.700  0.6675  0.4447 -0.1645
   33POPC  H13X 4491   2.966   5.156   8.696  0.9890 -1.6081 -0.1946
   33POPC  H13Y 4492   3.129   5.085   8.661 -1.5190 -0.6086 -0.8544
   33POPC  C314 4493   3.105   5.289   8.605 -0.1119 -0.9426  0.0200
   33POPC  H14X 4494   3.190   5.354   8.636 -1.0484  0.5836 -0.5436
   33POPC  H14Y 4495   3.018   5.358   8.603  1.3815  0.9832 -0.6557
   33POPC  C315 4496   3.124   5.244   8.457  0.2053 -0.0985 -0.4243
   33POPC  H15X 4497   3.019   5.209   8.439  0.7621 -2.2551  0.3315
   33POPC  H15Y 4498   3.195   5.159   8.448  0.2046 -0.3570  1.7607
   33POPC  C316 4499   3.168   5.347   8.361  0.3504  0.4266 -0.3152
   33POPC  H16X 4500   3.271   5.380   8.383 -0.6035  2.4651  1.3094
   33POPC  H16Y 4501   3.097   5.431   8.378 -0.2223  0.2196 -1.6621
   33POPC  H16Z 4502   3.159   5.308   8.257  0.5807  0.4391 -0.3407
   34POPC     N 4503   2.660   5.206  10.894  0.1358 -0.0077 -0.0658
   34POPC   C12 4504   2.642   5.354  10.906 -0.1319  0.7685  0.5576
   34POPC  H12A 4505   2.587   5.383  10.994 -5.3707 -0.8527 -1.9890
   34POPC  H12B 4506   2.585   5.392  10.823  0.9649 -0.1450 -0.6319
   34POPC   C13 4507   2.720   5.175  10.759  0.2680 -0.6607  0.0722
   34POPC  H13A 4508   2.650   5.209  10.685  2.1302 -1.6545 -2.1916
   34POPC  H13B 4509   2.809   5.236  10.760 -0.7703  0.9146  3.0495
   34POPC  H13C 4510   2.745   5.070  10.750  1.6611 -0.4029  0.7563
   34POPC   C14 4511   2.755   5.147  10.992 -0.5122 -0.4469 -0.1491
   34POPC  H14A 4512   2.853   5.190  10.986 -1.3442  1.7503  1.3334
   34POPC  H14B 4513   2.731   5.163  11.096  0.9576 -0.2862  0.1753
   34POPC  H14C 4514   2.767   5.042  10.970  1.3023  0.0593 -1.6531
   34POPC   C15 4515   2.531   5.131  10.903 -0.7118  0.4411 -0.1459
   34POPC  H15A 4516   2.457   5.179  10.840  0.4384  0.0668 -1.8151
   34POPC  H15B 4517   2.490   5.139  11.003 -2.0960  1.1340 -0.7655
   34POPC  H15C 4518   2.544   5.024  10.892  0.7413  0.5254  0.6417
   34POPC   C11 4519   2.777   5.435  10.923 -0.2603 -0.0617  0.1617
   34POPC  H11A 4520   2.839   5.412  11.013 -0.4805  2.2825  0.9536
   34POPC  H11B 4521   2.731   5.534  10.942 -0.4167 -0.3768  1.4688
   34POPC     P 4522   2.983   5.525  10.815 -0.7132  0.2508  0.1577
   34POPC   O13 4523   3.069   5.483  10.701  0.2317 -0.0371 -0.2121
   34POPC   O14 4524   3.039   5.529  10.953  0.3534 -0.1657 -0.7189
   34POPC   O12 4525   2.865   5.429  10.810 -0.1772 -0.1969 -0.5289
   34POPC   O11 4526   2.920   5.660  10.776 -0.1967  0.2257 -0.2878
   34POPC    C1 4527   2.804   5.688  10.689  0.3545  0.3937 -0.1625
   34POPC    HA 4528   2.738   5.767  10.730  2.0564  1.7260  0.0416
   34POPC    HB 4529   2.735   5.601  10.688  1.3420 -0.3970 -2.2105
   34POPC    C2 4530   2.846   5.729  10.540  0.4141  0.3335 -0.2463
   34POPC    HS 4531   2.749   5.749  10.490  0.0868  0.1826  0.3250
   34POPC   O21 4532   2.919   5.626  10.474 -0.1894  0.1317  0.1868
   34POPC   C21 4533   2.866   5.506  10.459  0.2107  0.0044 -0.4913
   34POPC   O22 4534   2.748   5.478  10.478  0.0889 -0.3500  0.5475
   34POPC   C22 4535   2.974   5.412  10.396  0.3886  0.3649 -0.2494
   34POPC   H2R 4536   2.946   5.305  10.400  1.1019  0.1813  0.0122
   34POPC   H2S 4537   3.070   5.431  10.449  0.3713  0.2949 -0.1950
   34POPC    C3 4538   2.925   5.867  10.545 -0.2002  0.0213 -0.3358
   34POPC    HX 4539   3.020   5.861  10.602  0.8951 -1.9274 -2.2724
   34POPC    HY 4540   2.862   5.938  10.602 -2.0154 -1.5214 -0.3640
   34POPC   O31 4541   2.953   5.917  10.416  0.6951 -0.1660 -0.4173
   34POPC   C31 4542   3.063   5.875  10.360  0.4065 -0.0178  0.0684
   34POPC   O32 4543   3.160   5.819  10.411 -0.2126  0.4189  0.2194
   34POPC   C32 4544   3.068   5.936  10.211 -0.0410 -0.3895 -0.3833
   34POPC   H2X 4545   3.171   5.975  10.195 -1.1675  1.9366 -2.3133
   34POPC   H2Y 4546   2.997   6.021  10.205 -1.2085 -1.2549  0.7094
   34POPC   C23 4547   3.003   5.427  10.248 -0.4174 -0.2376 -0.3192
   34POPC   H3R 4548   3.082   5.505  10.240 -2.7278  2.1445 -0.5413
   34POPC   H3S 4549   2.913   5.478  10.206  0.8672  2.0935 -0.3567
   34POPC   C24 4550   3.038   5.297  10.167  0.2039 -0.0367  0.4261
   34POPC   H4R 4551   2.942   5.254  10.131  0.9602 -0.9088 -0.5949
   34POPC   H4S 4552   3.085   5.229  10.241  0.0473 -0.2704  0.3079
   34POPC   C25 4553   3.141   5.317  10.052  0.3942  0.0064 -0.1939
   34POPC   H5R 4554   3.178   5.221  10.010 -0.8190  0.4072 -2.2741
   34POPC   H5S 4555   3.223   5.368  10.107  0.8087  0.7085 -1.4455
   34POPC   C26 4556   3.102   5.421   9.942  0.2097  0.1601  0.2548
   34POPC   H6R 4557   3.188   5.450   9.877 -0.0861  0.5056  0.0138
   34POPC   H6S 4558   3.059   5.507   9.997  2.5301  0.4731  1.6606
   34POPC   C27 4559   2.994   5.361   9.847  0.0197 -0.5883 -0.2892
   34POPC   H7R 4560   2.922   5.311   9.915  0.3485 -1.6360 -0.7111
   34POPC   H7S 4561   3.042   5.278   9.791 -0.3875 -0.5500 -0.7008
   34POPC   C28 4562   2.930   5.468   9.763  0.2374 -0.4949  0.2220
   34POPC   H8R 4563   3.005   5.493   9.685  0.3766  1.6055  1.0077
   34POPC   H8S 4564   2.907   5.555   9.828 -0.5327 -1.7426  1.6460
   34POPC   C29 4565   2.792   5.420   9.712 -0.2344 -0.2873  0.0631
   34POPC   H91 4566   2.712   5.394   9.783 -1.5999  2.8190 -0.2636
   34POPC  C210 4567   2.761   5.394   9.584 -0.0709 -0.2741  0.3803
   34POPC  H101 4568   2.670   5.337   9.557  0.6949 -0.6778 -1.4035
   34POPC  C211 4569   2.840   5.412   9.463 -0.4285  0.0757  0.0342
   34POPC  H11R 4570   2.948   5.396   9.483  0.0390 -0.2950 -2.5834
   34POPC  H11S 4571   2.835   5.519   9.434  1.1685 -0.5329 -2.6588
   34POPC  C212 4572   2.787   5.325   9.355  0.2046  0.0545 -0.2983
   34POPC  H12R 4573   2.832   5.341   9.254  1.3674 -0.8079  0.0727
   34POPC  H12S 4574   2.678   5.323   9.338  0.2264  1.2994 -0.6526
   34POPC  C213 4575   2.808   5.174   9.380  0.4221  0.1343  0.3494
   34POPC  H13R 4576   2.761   5.159   9.480 -0.4298  0.9822  0.0822
   34POPC  H13S 4577   2.918   5.156   9.386  0.1013 -1.7272  0.9195
   34POPC  C214 4578   2.761   5.089   9.265 -0.6887  0.6823  0.7377
   34POPC  H14R 4579   2.796   4.984   9.269 -1.3217  0.5288  2.4307
   34POPC  H14S 4580   2.806   5.134   9.173 -2.1209 -0.1930 -0.4141
   34POPC  C215 4581   2.604   5.074   9.246  0.3054  0.5417 -0.2932
   34POPC  H15R 4582   2.562   5.176   9.236  0.3979  0.6537  0.3792
   34POPC  H15S 4583   2.555   5.026   9.334  1.2722  0.1878  0.0595
   34POPC  C216 4584   2.582   4.999   9.117  0.1843 -0.4389 -0.3876
   34POPC  H16R 4585   2.627   4.899   9.138 -0.1636 -0.0357  2.4509
   34POPC  H16S 4586   2.631   5.045   9.029  0.3403  0.0174 -0.0622
   34POPC  C217 4587   2.433   4.972   9.079 -0.2411 -0.0182  0.2938
   34POPC  H17R 4588   2.388   4.904   9.154 -0.1711 -3.3684 -2.5595
   34POPC  H17S 4589   2.448   4.918   8.983 -1.2145  0.8383 -0.3375
   34POPC  C218 4590   2.351   5.104   9.064 -0.8351 -0.4317  0.0749
   34POPC  H18R 4591   2.342   5.165   9.157  0.5824 -1.7641  1.0975
   34POPC  H18S 4592   2.249   5.068   9.038 -1.6070  1.6887  0.0236
   34POPC  H18T 4593   2.408   5.165   8.991 -0.7523  0.7240  1.0917
   34POPC   C33 4594   3.040   5.852  10.085  0.4477 -0.2006 -0.7664
   34POPC   H3X 4595   2.938   5.812  10.102 -0.4563  2.2155 -0.2247
   34POPC   H3Y 4596   3.106   5.763  10.082  0.4189 -0.2121 -1.1114
   34POPC   C34 4597   3.033   5.928   9.957 -0.2826 -1.0636  0.2076
   34POPC   H4X 4598   3.136   5.961   9.930 -0.1429  0.1618  2.1662
   34POPC   H4Y 4599   2.965   6.015   9.965 -1.0563 -1.6777  0.2912
   34POPC   C35 4600   2.974   5.840   9.845 -0.2744 -0.2746  0.7285
   34POPC   H5X 4601   2.874   5.802   9.874  0.1183 -2.1962 -0.3510
   34POPC   H5Y 4602   3.024   5.745   9.815 -0.3573 -0.9532  2.7148
   34POPC   C36 4603   2.965   5.919   9.710  0.3833  0.2271  0.5294
   34POPC   H6X 4604   3.067   5.942   9.673  0.4050  0.0169  0.4613
   34POPC   H6Y 4605   2.899   6.008   9.724  0.3567  0.5795 -1.7293
   34POPC   C37 4606   2.903   5.843   9.592  0.2028  0.5086  0.5742
   34POPC   H7X 4607   2.800   5.807   9.614  0.0125  1.9715  2.2050
   34POPC   H7Y 4608   2.947   5.741   9.591  1.7869  1.1887 -0.2123
   34POPC   C38 4609   2.881   5.917   9.464 -0.4465  0.4655  0.3252
   34POPC   H8X 4610   2.974   5.960   9.421  0.6163 -1.6326  0.4569
   34POPC   H8Y 4611   2.804   5.995   9.480 -1.9758 -0.6215 -1.6122
   34POPC   C39 4612   2.817   5.818   9.364 -0.2584 -0.1936  0.8728
   34POPC   H9X 4613   2.719   5.788   9.409  0.6180 -0.8881  2.3518
   34POPC   H9Y 4614   2.878   5.727   9.350  1.7730  1.0968  1.1574
   34POPC  C310 4615   2.784   5.886   9.230 -0.4072  0.0548 -0.1036
   34POPC  H10X 4616   2.719   5.973   9.253  0.7872  1.0921 -0.5386
   34POPC  H10Y 4617   2.730   5.823   9.156  0.2950 -0.3059 -0.3131
   34POPC  C311 4618   2.909   5.945   9.153 -0.6183 -0.4918 -0.2413
   34POPC  H11X 4619   2.948   6.027   9.217 -2.4016  1.0926 -1.1063
   34POPC  H11Y 4620   2.872   5.981   9.054  1.8673  1.6893 -0.4410
   34POPC  C312 4621   3.012   5.848   9.120  0.0371 -0.3602  0.1269
   34POPC  H12X 4622   3.050   5.800   9.213  2.1017  0.0957 -0.4452
   34POPC  H12Y 4623   3.094   5.908   9.074  0.1554 -1.6373 -1.3733
   34POPC  C313 4624   2.977   5.735   9.021 -0.9065  0.3295  0.8631
   34POPC  H13X 4625   2.902   5.669   9.069  0.1780  0.3259  2.6156
   34POPC  H13Y 4626   3.069   5.674   9.008 -1.0299  0.2487  0.3669
   34POPC  C314 4627   2.945   5.779   8.873 -0.3487 -0.5043 -0.5136
   34POPC  H14X 4628   2.868   5.860   8.880 -0.5175 -0.8623  2.6928
   34POPC  H14Y 4629   2.903   5.685   8.833 -1.7539  0.0685 -0.4068
   34POPC  C315 4630   3.075   5.825   8.798 -0.2200  0.6073 -0.3607
   34POPC  H15X 4631   3.138   5.738   8.827 -1.5291 -0.2836 -0.1326
   34POPC  H15Y 4632   3.105   5.920   8.847  0.2703 -0.3666  1.2982
   34POPC  C316 4633   3.052   5.837   8.648  0.7013 -0.0433 -0.2375
   34POPC  H16X 4634   3.153   5.852   8.604 -0.4691  0.6921 -2.8175
   34POPC  H16Y 4635   2.986   5.922   8.619  2.2805  1.1255 -0.4862
   34POPC  H16Z 4636   2.998   5.747   8.612 -0.1053 -0.3535  1.6995
   35POPC     N 4637   2.537   3.406  11.002  0.4974  0.1207 -0.6851
   35POPC   C12 4638   2.419   3.353  11.082  0.0302 -0.3934  0.2239
   35POPC  H12A 4639   2.344   3.430  11.093 -0.2079 -0.6867  0.6934
   35POPC  H12B 4640   2.464   3.320  11.175  1.5414  0.4721 -0.1846
   35POPC   C13 4641   2.595   3.524  11.074  0.0415  0.3811  0.4080
   35POPC  H13A 4642   2.687   3.559  11.030 -0.0663  1.0027  0.6705
   35POPC  H13B 4643   2.532   3.612  11.071 -0.8523 -0.3251 -2.3949
   35POPC  H13C 4644   2.612   3.488  11.175  0.1787 -1.1389 -0.1475
   35POPC   C14 4645   2.653   3.310  10.968  0.3669 -0.0216 -0.0248
   35POPC  H14A 4646   2.688   3.256  11.055  0.6058  0.6785  0.3157
   35POPC  H14B 4647   2.623   3.243  10.890 -0.8024 -0.3495  0.6900
   35POPC  H14C 4648   2.733   3.374  10.933 -0.2986 -0.7341 -2.9723
   35POPC   C15 4649   2.480   3.450  10.866  0.7338  0.3325  0.5670
   35POPC  H15A 4650   2.385   3.499  10.879 -0.9518 -3.2499  2.5714
   35POPC  H15B 4651   2.458   3.363  10.805  0.2639  2.0852 -1.8112
   35POPC  H15C 4652   2.546   3.518  10.816  0.6098 -1.5019 -2.2097
   35POPC   C11 4653   2.342   3.247  11.011  0.2693  0.0596 -0.0682
   35POPC  H11A 4654   2.416   3.166  10.990  0.6075  0.0436  1.1602
   35POPC  H11B 4655   2.293   3.288  10.920 -2.9972  1.0924  2.0859
   35POPC     P 4656   2.180   3.049  11.079  0.3706  0.2176  0.0955
   35POPC   O13 4657   2.054   3.041  11.161  0.3980 -0.4996 -0.0750
   35POPC   O14 4658   2.285   2.951  11.107 -0.4827 -0.0767 -0.4924
   35POPC   O12 4659   2.238   3.200  11.097 -0.3713  0.1406  0.3874
   35POPC   O11 4660   2.134   3.043  10.926  0.1248 -0.2539 -0.1079
   35POPC    C1 4661   2.019   3.124  10.879  0.3853 -0.0013  0.8131
   35POPC    HA 4662   2.033   3.229  10.911 -2.2091  0.8207 -0.6605
   35POPC    HB 4663   1.928   3.089  10.932 -1.1465 -1.0634 -2.3601
   35POPC    C2 4664   2.013   3.122  10.721  0.1191 -0.5568  1.0211
   35POPC    HS 4665   2.010   3.015  10.694 -0.6599 -0.3443  0.2497
   35POPC   O21 4666   2.125   3.202  10.667 -0.2129 -0.0365  0.6804
   35POPC   C21 4667   2.210   3.128  10.602  0.2068 -0.4359 -0.0595
   35POPC   O22 4668   2.211   3.008  10.589  1.1621 -0.2063 -1.0318
   35POPC   C22 4669   2.318   3.219  10.542 -0.8647 -0.1953 -0.0421
   35POPC   H2R 4670   2.395   3.230  10.622 -0.6545  3.2994 -0.6334
   35POPC   H2S 4671   2.282   3.319  10.512 -0.0281  0.9114  2.4771
   35POPC    C3 4672   1.871   3.176  10.677 -0.0720 -0.0256 -0.3708
   35POPC    HX 4673   1.869   3.275  10.728  3.4533 -0.5621  0.9453
   35POPC    HY 4674   1.801   3.108  10.730 -0.2431  0.4569  0.0281
   35POPC   O31 4675   1.853   3.169  10.537  0.8007 -0.5431 -0.0037
   35POPC   C31 4676   1.858   3.280  10.470 -0.3627 -0.1411  0.2977
   35POPC   O32 4677   1.880   3.388  10.520 -1.0332  0.0503  0.3559
   35POPC   C32 4678   1.814   3.248  10.329 -0.2591 -0.1455  0.0693
   35POPC   H2X 4679   1.715   3.298  10.327 -0.8056 -1.2272 -0.8428
   35POPC   H2Y 4680   1.793   3.140  10.309  2.0554 -0.0128 -3.4993
   35POPC   C23 4681   2.388   3.147  10.421  0.3269 -0.4740  0.9863
   35POPC   H3R 4682   2.414   3.041  10.442  2.6737 -0.1998 -0.3277
   35POPC   H3S 4683   2.482   3.204  10.402  0.4230 -0.1983  2.2689
   35POPC   C24 4684   2.299   3.151  10.297 -0.0687  0.1085  0.3023
   35POPC   H4R 4685   2.261   3.255  10.285  1.3896  0.7058  0.8234
   35POPC   H4S 4686   2.205   3.095  10.320  0.0568  0.0350  0.6351
   35POPC   C25 4687   2.367   3.103  10.168 -0.5115  0.6710 -0.0994
   35POPC   H5R 4688   2.402   2.998  10.174 -0.6776  0.6239  0.0480
   35POPC   H5S 4689   2.452   3.168  10.139  0.7963 -0.6910  0.6509
   35POPC   C26 4690   2.278   3.090  10.043  0.8863 -0.0810 -0.0976
   35POPC   H6R 4691   2.236   3.193  10.033 -1.1964 -1.0409 -1.5499
   35POPC   H6S 4692   2.197   3.015  10.052  1.4474 -0.6828 -0.0498
   35POPC   C27 4693   2.362   3.059   9.915 -0.7726  0.2284 -0.3655
   35POPC   H7R 4694   2.357   2.949   9.899  1.8794  0.3678 -2.6269
   35POPC   H7S 4695   2.464   3.100   9.929  0.0327 -2.3922  1.8841
   35POPC   C28 4696   2.313   3.133   9.790 -0.5308  0.4449 -0.8237
   35POPC   H8R 4697   2.333   3.242   9.796  0.7761  0.1984 -0.4937
   35POPC   H8S 4698   2.203   3.126   9.784 -0.7743  2.2360  1.1898
   35POPC   C29 4699   2.367   3.087   9.656  0.3128  0.5191  0.0132
   35POPC   H91 4700   2.477   3.091   9.651  0.4588 -2.2146  0.4062
   35POPC  C210 4701   2.302   3.042   9.550 -0.3862 -0.2880  0.1317
   35POPC  H101 4702   2.349   3.010   9.456  0.0425 -0.7677  0.5035
   35POPC  C211 4703   2.148   3.036   9.548  0.2729  0.0868 -0.1440
   35POPC  H11R 4704   2.112   3.133   9.510  2.5723  0.6559 -0.9767
   35POPC  H11S 4705   2.100   3.025   9.648 -1.4338 -2.0090 -1.1418
   35POPC  C212 4706   2.092   2.921   9.455  0.1644 -0.8286 -0.0403
   35POPC  H12R 4707   1.994   2.902   9.503 -1.1658  0.6988 -2.0307
   35POPC  H12S 4708   2.158   2.833   9.467 -1.6265 -1.8015  3.0842
   35POPC  C213 4709   2.092   2.967   9.301  0.5822 -0.3165 -0.7157
   35POPC  H13R 4710   2.072   2.885   9.229 -1.7650 -1.2514  0.9612
   35POPC  H13S 4711   2.196   2.996   9.274  0.2013  2.4201  0.5077
   35POPC  C214 4712   2.000   3.086   9.271  0.1517  0.4892 -0.1385
   35POPC  H14R 4713   2.042   3.182   9.308 -2.2209  1.0518  1.1851
   35POPC  H14S 4714   1.900   3.078   9.317  0.7726 -1.0013  1.0206
   35POPC  C215 4715   1.964   3.082   9.121  0.2492  0.3511  0.2481
   35POPC  H15R 4716   1.854   3.102   9.118  0.3697  0.8939 -0.6637
   35POPC  H15S 4717   1.977   2.979   9.082  0.3981  0.3972  0.1786
   35POPC  C216 4718   2.040   3.177   9.027 -0.0179  0.8514  0.9218
   35POPC  H16R 4719   2.149   3.162   9.043  0.5725  1.2013 -2.5297
   35POPC  H16S 4720   2.015   3.281   9.056  2.8504  1.7154  0.4436
   35POPC  C217 4721   2.007   3.163   8.882 -0.2398  0.2617  0.3766
   35POPC  H17R 4722   1.908   3.211   8.869  0.7139  1.8958 -0.9403
   35POPC  H17S 4723   2.017   3.056   8.854 -0.9549  0.1016  0.7085
   35POPC  C218 4724   2.104   3.248   8.792 -0.3044 -0.2114 -0.2140
   35POPC  H18R 4725   2.208   3.212   8.796  0.8185  2.9770  1.7447
   35POPC  H18S 4726   2.119   3.350   8.835 -0.4427 -1.2853  2.4738
   35POPC  H18T 4727   2.068   3.260   8.688  0.0668  0.6226 -0.2495
   35POPC   C33 4728   1.902   3.312  10.224  0.5389 -0.2074  0.3121
   35POPC   H3X 4729   2.003   3.267  10.226 -0.4324 -2.3994  1.1733
   35POPC   H3Y 4730   1.916   3.417  10.259  2.3184 -0.9180  1.8004
   35POPC   C34 4731   1.834   3.316  10.081 -0.8042  0.0551  0.3210
   35POPC   H4X 4732   1.729   3.351  10.088 -1.4430 -1.6365 -0.5543
   35POPC   H4Y 4733   1.829   3.212  10.041 -1.9220  0.2707 -0.1256
   35POPC   C35 4734   1.898   3.397   9.974  0.4418  0.5107 -0.4179
   35POPC   H5X 4735   2.007   3.389   9.993  0.2031 -1.9787  0.1492
   35POPC   H5Y 4736   1.860   3.501   9.980 -3.2864 -0.7799 -0.1761
   35POPC   C36 4737   1.858   3.340   9.834  0.1912  0.3675  0.5640
   35POPC   H6X 4738   1.752   3.365   9.811  0.6734  0.8656 -1.1790
   35POPC   H6Y 4739   1.871   3.229   9.833 -2.4486 -0.0049 -3.3593
   35POPC   C37 4740   1.934   3.411   9.717 -0.6641 -0.3528  0.3611
   35POPC   H7X 4741   2.045   3.414   9.727 -0.6527  5.0462  0.0250
   35POPC   H7Y 4742   1.902   3.517   9.718 -3.2613 -1.1235  0.5834
   35POPC   C38 4743   1.898   3.344   9.581 -0.1913  0.1019 -0.6392
   35POPC   H8X 4744   1.891   3.233   9.581 -1.6807  0.1877 -0.9483
   35POPC   H8Y 4745   1.975   3.387   9.514 -0.6416  0.4059 -0.9612
   35POPC   C39 4746   1.759   3.397   9.525 -0.0382  0.6425  0.6765
   35POPC   H9X 4747   1.768   3.507   9.512  2.5547  0.2907 -0.7884
   35POPC   H9Y 4748   1.676   3.387   9.598  1.0866 -0.8439  1.7715
   35POPC  C310 4749   1.713   3.316   9.401 -0.5706  0.1512 -0.6209
   35POPC  H10X 4750   1.603   3.324   9.391 -0.5436 -0.4457 -1.4879
   35POPC  H10Y 4751   1.731   3.208   9.421 -0.7093 -0.0178 -1.3767
   35POPC  C311 4752   1.780   3.345   9.269  0.1312  0.1538 -0.7738
   35POPC  H11X 4753   1.758   3.263   9.198  1.4909  0.0241 -1.0526
   35POPC  H11Y 4754   1.891   3.344   9.274  0.0749  0.0570  0.5892
   35POPC  C312 4755   1.735   3.479   9.202 -0.0763 -0.4511  0.2448
   35POPC  H12X 4756   1.766   3.562   9.270 -0.1979 -0.5527  0.4255
   35POPC  H12Y 4757   1.626   3.476   9.181  0.0483 -0.5978 -0.3899
   35POPC  C313 4758   1.808   3.484   9.068 -0.3286 -0.6797 -0.3492
   35POPC  H13X 4759   1.791   3.389   9.014 -3.4181 -0.9987  1.0561
   35POPC  H13Y 4760   1.915   3.493   9.096 -0.0911  1.6061 -1.8218
   35POPC  C314 4761   1.777   3.604   8.982 -0.2224  0.4044 -0.3268
   35POPC  H14X 4762   1.780   3.700   9.039 -0.9726  0.3243 -0.1414
   35POPC  H14Y 4763   1.671   3.597   8.949  0.0085  0.4347 -1.0691
   35POPC  C315 4764   1.875   3.621   8.865  0.8239 -0.5035  0.1790
   35POPC  H15X 4765   1.906   3.524   8.819  1.2132 -0.1306 -0.3504
   35POPC  H15Y 4766   1.964   3.670   8.908  2.4873 -0.6211 -2.9855
   35POPC  C316 4767   1.819   3.705   8.753  0.3549  0.8595 -0.1661
   35POPC  H16X 4768   1.877   3.701   8.658  0.4356  1.1973 -0.1305
   35POPC  H16Y 4769   1.816   3.814   8.776  0.3587  0.3227  2.5607
   35POPC  H16Z 4770   1.718   3.665   8.732 -0.4880  1.2608  2.8666
   36POPC     N 4771   2.179   1.397  11.300 -0.1505  0.4903 -0.0468
   36POPC   C12 4772   2.288   1.443  11.204  0.1039 -0.5957 -0.0882
   36POPC  H12A 4773   2.385   1.438  11.251 -0.6010 -0.9981  1.3250
   36POPC  H12B 4774   2.274   1.551  11.204 -0.6087 -0.6660  2.2649
   36POPC   C13 4775   2.185   1.481  11.427  0.3767 -1.3643 -0.1165
   36POPC  H13A 4776   2.098   1.461  11.488  1.5061 -1.7632  1.4221
   36POPC  H13B 4777   2.272   1.459  11.488 -1.4042 -2.7660  2.0112
   36POPC  H13C 4778   2.201   1.581  11.390 -0.9829 -1.7904 -1.9539
   36POPC   C14 4779   2.042   1.397  11.242  0.3138 -0.1434 -0.9705
   36POPC  H14A 4780   2.051   1.376  11.136 -0.4645 -0.8389 -0.9003
   36POPC  H14B 4781   1.975   1.336  11.299 -0.2213 -0.3454 -1.8002
   36POPC  H14C 4782   2.007   1.499  11.242  1.8246  0.4002  0.1791
   36POPC   C15 4783   2.208   1.251  11.329 -0.2569  0.6701 -0.8352
   36POPC  H15A 4784   2.177   1.199  11.239 -0.6974 -0.6825  0.0889
   36POPC  H15B 4785   2.138   1.210  11.400  0.1639  0.0256 -0.7946
   36POPC  H15C 4786   2.313   1.237  11.353 -0.3956 -0.4532 -0.8521
   36POPC   C11 4787   2.283   1.391  11.058  0.1067  0.7228 -0.0746
   36POPC  H11A 4788   2.284   1.280  11.069 -2.1854  0.5335 -1.5434
   36POPC  H11B 4789   2.380   1.420  11.012 -0.5558  0.5327 -1.5819
   36POPC     P 4790   2.171   1.602  10.948 -0.3352  0.0347  0.0245
   36POPC   O13 4791   2.255   1.684  11.038  0.2368 -0.1248 -0.0100
   36POPC   O14 4792   2.029   1.641  10.929  0.0929  0.2729 -0.0482
   36POPC   O12 4793   2.177   1.453  10.987  0.9941  0.0262  0.2244
   36POPC   O11 4794   2.239   1.604  10.807 -0.0620  0.7838  0.1153
   36POPC    C1 4795   2.221   1.497  10.707 -0.6642  0.2683  0.9223
   36POPC    HA 4796   2.157   1.413  10.740  0.1933 -0.3353  1.0708
   36POPC    HB 4797   2.318   1.450  10.680 -0.8050 -0.0923  1.0375
   36POPC    C2 4798   2.156   1.547  10.578 -0.1531  0.2214  0.0773
   36POPC    HS 4799   2.110   1.463  10.521 -3.1047  0.8561  1.4186
   36POPC   O21 4800   2.249   1.619  10.497  0.0839 -0.3739  0.5693
   36POPC   C21 4801   2.337   1.537  10.435  0.2590  0.4894  0.5209
   36POPC   O22 4802   2.319   1.419  10.421 -0.6970 -0.3964 -0.4127
   36POPC   C22 4803   2.444   1.623  10.370 -0.2882 -0.5978 -0.1703
   36POPC   H2R 4804   2.490   1.686  10.449  2.9548 -0.1345 -2.3362
   36POPC   H2S 4805   2.394   1.676  10.286 -0.4874 -1.1803 -0.4241
   36POPC    C3 4806   2.032   1.633  10.597 -0.1189 -0.0124  0.5143
   36POPC    HX 4807   2.039   1.696  10.688  0.2703 -0.0878  0.5367
   36POPC    HY 4808   1.950   1.560  10.617  0.5012 -0.4350  1.5541
   36POPC   O31 4809   1.994   1.711  10.476  0.8929  0.2742  0.1334
   36POPC   C31 4810   2.023   1.847  10.484  0.3325  0.1058  0.1215
   36POPC   O32 4811   2.071   1.905  10.580  0.3174 -0.0329  0.0017
   36POPC   C32 4812   1.976   1.912  10.349  0.2923  0.0498 -0.1945
   36POPC   H2X 4813   1.959   2.019  10.373 -0.2159  0.1562 -1.0532
   36POPC   H2Y 4814   1.896   1.851  10.303 -0.5790  0.8840  0.1895
   36POPC   C23 4815   2.567   1.553  10.305  0.5351 -0.6631  0.7303
   36POPC   H3R 4816   2.525   1.487  10.226 -0.5677  1.7148 -0.7456
   36POPC   H3S 4817   2.611   1.479  10.374 -0.8561 -1.9338  0.2796
   36POPC   C24 4818   2.671   1.647  10.237 -0.1882  0.5139  0.1456
   36POPC   H4R 4819   2.723   1.714  10.309  0.0669  0.1247  0.3203
   36POPC   H4S 4820   2.612   1.713  10.170 -0.4647  0.5798  0.4494
   36POPC   C25 4821   2.770   1.566  10.150  0.4516  0.7287  0.6059
   36POPC   H5R 4822   2.816   1.489  10.215 -1.8400  0.2475  1.6891
   36POPC   H5S 4823   2.852   1.628  10.107 -1.0551  2.2192 -0.1739
   36POPC   C26 4824   2.698   1.496  10.027  0.4738 -0.2870  0.4161
   36POPC   H6R 4825   2.604   1.438  10.042  0.1876  0.2371  0.6915
   36POPC   H6S 4826   2.773   1.428   9.982 -0.7525 -0.9915 -0.5903
   36POPC   C27 4827   2.665   1.601   9.914  0.2131  0.1798 -0.7443
   36POPC   H7R 4828   2.756   1.659   9.888  2.2189 -1.4899  2.3718
   36POPC   H7S 4829   2.579   1.659   9.954 -0.2616 -0.0573 -1.4120
   36POPC   C28 4830   2.623   1.530   9.786  0.1151 -0.0782  0.2116
   36POPC   H8R 4831   2.602   1.617   9.721  0.7748  0.3305  0.5468
   36POPC   H8S 4832   2.525   1.478   9.798 -0.1469  0.5347  0.7460
   36POPC   C29 4833   2.725   1.438   9.720 -0.3106 -0.5482  0.3418
   36POPC   H91 4834   2.786   1.379   9.790  0.2279  1.4194  1.5557
   36POPC  C210 4835   2.749   1.437   9.587  0.2095  0.8605  0.4142
   36POPC  H101 4836   2.818   1.363   9.545 -1.4415 -1.1944  1.1830
   36POPC  C211 4837   2.661   1.510   9.483 -0.2682  0.0112 -0.1678
   36POPC  H11R 4838   2.699   1.613   9.467 -1.6744  0.0409 -3.7710
   36POPC  H11S 4839   2.563   1.551   9.517  0.1503  1.2934 -0.4849
   36POPC  C212 4840   2.651   1.440   9.344 -0.4271 -0.4714  0.2067
   36POPC  H12R 4841   2.618   1.334   9.348 -0.1580 -0.5856 -0.4687
   36POPC  H12S 4842   2.755   1.436   9.304 -0.6541  0.8610 -0.5446
   36POPC  C213 4843   2.550   1.524   9.255 -0.1016 -0.0688 -0.3369
   36POPC  H13R 4844   2.556   1.631   9.285 -4.2265  1.3990 -4.2173
   36POPC  H13S 4845   2.456   1.478   9.292 -0.3603 -0.1137 -1.0420
   36POPC  C214 4846   2.569   1.498   9.106  0.3534 -0.3778 -0.1345
   36POPC  H14R 4847   2.550   1.390   9.092 -0.5037 -0.3396  0.7404
   36POPC  H14S 4848   2.674   1.512   9.071  0.3188  0.7973  0.2073
   36POPC  C215 4849   2.472   1.580   9.014  0.4495  0.0893  0.0724
   36POPC  H15R 4850   2.473   1.689   9.033  0.1414  0.4765 -2.0226
   36POPC  H15S 4851   2.372   1.532   9.027  1.2716 -0.6393  4.4911
   36POPC  C216 4852   2.504   1.545   8.873 -0.0614  0.0201 -0.1154
   36POPC  H16R 4853   2.476   1.438   8.865  0.6160 -0.1540 -0.2238
   36POPC  H16S 4854   2.612   1.554   8.849 -0.0310  2.5701  0.8880
   36POPC  C217 4855   2.424   1.622   8.766  0.4150  0.7396  0.0169
   36POPC  H17R 4856   2.455   1.728   8.755  1.5158  0.3302 -0.8984
   36POPC  H17S 4857   2.317   1.616   8.797  0.3718  0.5845 -0.1539
   36POPC  C218 4858   2.434   1.572   8.620 -0.4434 -0.5395  0.3690
   36POPC  H18R 4859   2.374   1.635   8.552  1.5144 -1.8872 -2.7195
   36POPC  H18S 4860   2.398   1.469   8.603 -0.5682 -0.4131 -0.1236
   36POPC  H18T 4861   2.539   1.567   8.582  0.1437  0.4147  1.7971
   36POPC   C33 4862   2.100   1.908  10.258  0.8027  0.6927  0.3632
   36POPC   H3X 4863   2.186   1.936  10.323  1.7118  0.4834 -0.7426
   36POPC   H3Y 4864   2.092   1.995  10.189  1.5316  0.6688  0.2429
   36POPC   C34 4865   2.106   1.782  10.178  0.4125  0.4058  0.3080
   36POPC   H4X 4866   2.002   1.772  10.141  0.5226 -1.6944  0.4774
   36POPC   H4Y 4867   2.129   1.693  10.240  0.6457  1.0180  1.1152
   36POPC   C35 4868   2.198   1.788  10.061 -0.0180  0.2677  0.1185
   36POPC   H5X 4869   2.302   1.795  10.098  0.4111  0.8102 -1.1386
   36POPC   H5Y 4870   2.179   1.877   9.996 -0.9099  0.2668  0.3678
   36POPC   C36 4871   2.187   1.671   9.966 -0.1200 -0.7167  1.0535
   36POPC   H6X 4872   2.089   1.671   9.913 -0.2052  1.5645  1.1636
   36POPC   H6Y 4873   2.189   1.577  10.026 -2.6241 -0.6403  1.3212
   36POPC   C37 4874   2.299   1.679   9.869  0.7574  0.2779  0.0089
   36POPC   H7X 4875   2.387   1.624   9.908 -0.9163 -2.8018 -0.3728
   36POPC   H7Y 4876   2.321   1.785   9.842  0.7290  0.3032  0.0857
   36POPC   C38 4877   2.277   1.608   9.726  0.1627  0.2617  0.2995
   36POPC   H8X 4878   2.247   1.501   9.733  1.0537 -0.0278 -0.2463
   36POPC   H8Y 4879   2.374   1.606   9.673  1.3763 -1.1481  2.5166
   36POPC   C39 4880   2.172   1.669   9.626  0.3809  0.1025 -0.2824
   36POPC   H9X 4881   2.069   1.666   9.668 -0.0644  0.0937 -1.3604
   36POPC   H9Y 4882   2.174   1.608   9.534  2.6635 -0.5517  0.1538
   36POPC  C310 4883   2.211   1.819   9.600  0.0648 -1.0904  1.2132
   36POPC  H10X 4884   2.322   1.831   9.596 -0.0921 -0.3630 -1.0582
   36POPC  H10Y 4885   2.179   1.880   9.687 -1.8688 -2.7231  1.6956
   36POPC  C311 4886   2.149   1.897   9.475 -0.0265  0.6806 -0.1992
   36POPC  H11X 4887   2.195   1.998   9.482  1.2815 -0.0488  2.8211
   36POPC  H11Y 4888   2.039   1.901   9.489 -0.2789 -2.8949 -0.4689
   36POPC  C312 4889   2.179   1.831   9.349  0.7228  0.2545 -0.2804
   36POPC  H12X 4890   2.113   1.743   9.335 -1.9826  2.2165 -0.1661
   36POPC  H12Y 4891   2.287   1.806   9.345  0.7236  0.2606 -0.2893
   36POPC  C313 4892   2.127   1.918   9.236  0.2051  0.1514  0.3988
   36POPC  H13X 4893   2.162   2.023   9.245 -2.6718  1.1559  0.5920
   36POPC  H13Y 4894   2.016   1.920   9.231  0.1949  0.5726  0.7268
   36POPC  C314 4895   2.169   1.871   9.096  0.1753  0.3752 -0.0254
   36POPC  H14X 4896   2.136   1.765   9.083 -1.2933  0.6981  0.9183
   36POPC  H14Y 4897   2.277   1.887   9.078 -0.1556  2.2014 -0.4088
   36POPC  C315 4898   2.086   1.944   8.986  0.1592 -0.3689 -0.2373
   36POPC  H15X 4899   2.101   2.054   8.990  0.0862 -0.3690  0.0157
   36POPC  H15Y 4900   1.977   1.921   8.985  0.3247 -1.2663  1.6130
   36POPC  C316 4901   2.145   1.904   8.846  0.9871 -0.2518  0.0878
   36POPC  H16X 4902   2.250   1.938   8.832  0.1839  1.8153 -1.2764
   36POPC  H16Y 4903   2.082   1.957   8.771  0.3443  0.2951  1.0133
   36POPC  H16Z 4904   2.126   1.797   8.822 -0.3338  0.5850 -2.8710
   37POPC     N 4905   0.949   3.847   6.382  0.0474 -0.2731 -0.3249
   37POPC   C12 4906   1.028   3.897   6.510  0.2482  0.1530  0.1704
   37POPC  H12A 4907   1.112   3.958   6.478  0.0636  0.4588  0.2744
   37POPC  H12B 4908   1.074   3.808   6.551  0.8409  0.5886  0.4662
   37POPC   C13 4909   0.905   3.965   6.303 -0.2580 -0.6620  0.8567
   37POPC  H13A 4910   0.865   4.045   6.362 -1.8302 -2.4467  2.2592
   37POPC  H13B 4911   0.982   3.999   6.234  0.4097 -2.2851  0.7807
   37POPC  H13C 4912   0.822   3.945   6.237  0.4892 -0.7140 -0.0878
   37POPC   C14 4913   1.048   3.770   6.296 -0.1884 -0.0820 -0.4540
   37POPC  H14A 4914   1.008   3.759   6.196  0.4112  2.7234 -1.0424
   37POPC  H14B 4915   1.143   3.819   6.284 -0.4260  0.6294  0.5046
   37POPC  H14C 4916   1.063   3.670   6.335 -0.9752 -1.2039 -2.9507
   37POPC   C15 4917   0.832   3.764   6.423  0.2628 -0.1748  0.1055
   37POPC  H15A 4918   0.766   3.830   6.477  1.7225  2.7868 -1.5973
   37POPC  H15B 4919   0.867   3.675   6.472 -0.6575 -0.3651  0.4280
   37POPC  H15C 4920   0.785   3.729   6.332  0.8322  1.3388 -0.7970
   37POPC   C11 4921   0.951   3.992   6.606  0.3037 -0.2385 -1.0215
   37POPC  H11A 4922   1.013   4.006   6.697 -0.6481  2.0554 -0.6704
   37POPC  H11B 4923   0.853   3.949   6.637  0.2868  0.8610  0.5289
   37POPC     P 4924   1.004   4.249   6.597 -0.2772  0.2793  0.0285
   37POPC   O13 4925   0.964   4.369   6.513 -0.4474 -0.1607 -0.0385
   37POPC   O14 4926   1.146   4.212   6.604 -0.5039 -0.2013 -0.6574
   37POPC   O12 4927   0.928   4.125   6.548 -0.3855  0.6130 -0.5092
   37POPC   O11 4928   0.941   4.265   6.745 -0.3688 -0.0460  0.4433
   37POPC    C1 4929   0.818   4.332   6.765 -0.3883 -0.2961  0.2560
   37POPC    HA 4930   0.740   4.260   6.796  2.2710 -2.5871  1.7957
   37POPC    HB 4931   0.786   4.385   6.673  0.8791  2.3545  1.2626
   37POPC    C2 4932   0.844   4.445   6.875  0.3155  0.0893 -0.0775
   37POPC    HS 4933   0.924   4.509   6.831  0.2027  1.1205  1.2063
   37POPC   O21 4934   0.879   4.387   7.001  1.1231 -0.1900 -0.1244
   37POPC   C21 4935   0.959   4.467   7.077 -0.0634 -0.1388  0.1007
   37POPC   O22 4936   0.999   4.575   7.041  0.0492 -0.2127 -0.7977
   37POPC   C22 4937   0.969   4.416   7.218 -0.3084 -0.1955 -0.0973
   37POPC   H2R 4938   0.882   4.351   7.243 -1.3095  2.4741  3.7749
   37POPC   H2S 4939   0.954   4.503   7.285  0.6270  0.1831 -0.3736
   37POPC    C3 4940   0.719   4.538   6.865  0.6428  0.8689 -0.3206
   37POPC    HX 4941   0.628   4.480   6.893  1.5716 -1.0643 -1.1796
   37POPC    HY 4942   0.701   4.572   6.761  1.0526  0.8452 -0.4010
   37POPC   O31 4943   0.717   4.645   6.960 -0.9117  0.2383  0.3942
   37POPC   C31 4944   0.796   4.744   6.926  0.2107  0.4704 -0.5618
   37POPC   O32 4945   0.872   4.745   6.829  0.5844  0.0627 -0.4053
   37POPC   C32 4946   0.771   4.858   7.013 -0.5482 -0.0270 -0.1192
   37POPC   H2X 4947   0.828   4.830   7.104  0.4614 -0.8222 -0.9849
   37POPC   H2Y 4948   0.667   4.858   7.052  0.6564  0.0760  3.3027
   37POPC   C23 4949   1.097   4.319   7.238 -0.3771 -0.3181 -0.0343
   37POPC   H3R 4950   1.179   4.360   7.175 -0.2638  0.3846  0.5666
   37POPC   H3S 4951   1.065   4.220   7.198  1.3804 -1.0568  0.3668
   37POPC   C24 4952   1.135   4.305   7.385  0.1821  0.2147  0.1799
   37POPC   H4R 4953   1.135   4.410   7.420 -0.1463  0.4530 -0.5310
   37POPC   H4S 4954   1.231   4.255   7.411  0.8683  1.4595  0.0748
   37POPC   C25 4955   1.027   4.231   7.460 -0.2814 -0.2082  0.2195
   37POPC   H5R 4956   0.998   4.139   7.406  0.9166  0.0602 -0.8993
   37POPC   H5S 4957   0.938   4.298   7.454  0.3923  0.6637 -0.1883
   37POPC   C26 4958   1.056   4.216   7.606  0.8323  0.8722 -0.0656
   37POPC   H6R 4959   1.121   4.127   7.618 -0.7242  0.2009  4.1993
   37POPC   H6S 4960   0.963   4.201   7.665  0.8427 -0.2206 -0.2991
   37POPC   C27 4961   1.136   4.332   7.669  0.3401 -0.3045 -0.8665
   37POPC   H7R 4962   1.095   4.427   7.628  1.6534  0.8033  0.3164
   37POPC   H7S 4963   1.240   4.316   7.633 -0.1286 -0.0315 -2.3617
   37POPC   C28 4964   1.131   4.334   7.825  0.2279  0.4111 -0.2297
   37POPC   H8R 4965   1.023   4.352   7.844  0.6709  2.4526  0.4561
   37POPC   H8S 4966   1.186   4.421   7.866 -0.6569  0.3019  1.2156
   37POPC   C29 4967   1.183   4.209   7.893  0.6212 -0.1879 -0.1571
   37POPC   H91 4968   1.248   4.148   7.829  1.1926  0.4958 -0.2336
   37POPC  C210 4969   1.138   4.162   8.016 -0.0902 -0.4233  0.1744
   37POPC  H101 4970   1.179   4.069   8.057 -2.3380 -0.7110  1.9148
   37POPC  C211 4971   1.033   4.228   8.109  0.1369 -0.5588 -0.0360
   37POPC  H11R 4972   0.940   4.168   8.106  0.0047 -0.3719  0.2570
   37POPC  H11S 4973   1.008   4.326   8.062 -3.1137 -0.8835  0.8937
   37POPC  C212 4974   1.059   4.250   8.261  0.2135  0.6800 -0.0294
   37POPC  H12R 4975   0.979   4.324   8.282  0.5125  1.5139 -1.7414
   37POPC  H12S 4976   1.154   4.305   8.279  0.1329  1.3830 -1.6363
   37POPC  C213 4977   1.047   4.129   8.354 -1.0928  0.9365 -1.1644
   37POPC  H13R 4978   1.105   4.045   8.311 -0.1599  1.7459 -1.5231
   37POPC  H13S 4979   0.937   4.117   8.350 -0.9267 -1.6395  0.9135
   37POPC  C214 4980   1.089   4.153   8.496 -0.1017 -0.9566  0.1107
   37POPC  H14R 4981   1.042   4.075   8.560 -0.9442  1.1656  2.1643
   37POPC  H14S 4982   1.044   4.251   8.523  0.6070  0.2469 -2.9437
   37POPC  C215 4983   1.241   4.158   8.512  0.2387  0.1327 -0.3699
   37POPC  H15R 4984   1.270   4.228   8.594 -0.0060 -1.2128  0.8753
   37POPC  H15S 4985   1.279   4.194   8.414 -0.3582 -3.2639 -1.8771
   37POPC  C216 4986   1.307   4.022   8.550 -0.7165 -0.4169  0.1925
   37POPC  H16R 4987   1.301   3.956   8.461 -1.3061 -1.2633  0.8590
   37POPC  H16S 4988   1.237   3.988   8.629 -0.0494  1.7497  1.7475
   37POPC  C217 4989   1.456   4.037   8.592  0.8503  0.0071  0.2063
   37POPC  H17R 4990   1.468   4.102   8.681 -0.3664  0.6826 -0.1156
   37POPC  H17S 4991   1.514   4.090   8.514  2.5101 -0.1421  1.3283
   37POPC  C218 4992   1.497   3.902   8.639 -0.0754 -0.2205  0.3104
   37POPC  H18R 4993   1.471   3.826   8.563 -1.3830  0.9455 -0.4438
   37POPC  H18S 4994   1.441   3.875   8.730 -0.4621 -0.5425 -0.0219
   37POPC  H18T 4995   1.605   3.902   8.663  0.1649  3.9146 -0.3663
   37POPC   C33 4996   0.826   4.997   6.962  0.6342  0.6329  0.0512
   37POPC   H3X 4997   0.771   5.017   6.867 -0.4694 -0.8181  0.3631
   37POPC   H3Y 4998   0.933   5.002   6.930  0.5426  2.1640 -0.0288
   37POPC   C34 4999   0.802   5.117   7.059 -0.8409 -0.3403  0.0743
   37POPC   H4X 5000   0.844   5.094   7.159 -0.0584 -1.4492 -0.4909
   37POPC   H4Y 5001   0.693   5.134   7.072 -0.9103 -1.5165  1.1063
   37POPC   C35 5002   0.866   5.243   6.998  0.4728 -0.1766  0.3273
   37POPC   H5X 5003   0.809   5.256   6.903 -1.2268  1.2688  1.5078
   37POPC   H5Y 5004   0.976   5.231   6.991  0.6793  2.6625 -3.1006
   37POPC   C36 5005   0.839   5.369   7.082  0.0571 -0.9868 -0.5881
   37POPC   H6X 5006   0.730   5.381   7.095  0.5095  1.1974  1.6687
   37POPC   H6Y 5007   0.876   5.452   7.017  1.7479 -2.4448 -1.5588
   37POPC   C37 5008   0.912   5.379   7.216  0.0252 -1.5250 -0.3580
   37POPC   H7X 5009   1.017   5.348   7.199  1.0000  1.2631  0.3527
   37POPC   H7Y 5010   0.885   5.302   7.292 -0.1822  0.6503  1.8148
   37POPC   C38 5011   0.896   5.514   7.276 -0.1780  0.4262 -0.4237
   37POPC   H8X 5012   0.796   5.520   7.324  0.0893 -0.5215  0.2571
   37POPC   H8Y 5013   0.897   5.593   7.198 -2.1009  0.2247 -0.6695
   37POPC   C39 5014   1.011   5.550   7.377 -0.0900  0.2806 -0.0141
   37POPC   H9X 5015   1.101   5.565   7.315  0.8003 -1.9805  0.6821
   37POPC   H9Y 5016   1.040   5.462   7.438  1.4496  0.5745 -0.3131
   37POPC  C310 5017   0.975   5.657   7.476 -0.3048 -0.7843  0.1362
   37POPC  H10X 5018   0.937   5.747   7.424  2.1184  0.4812  0.4542
   37POPC  H10Y 5019   1.064   5.679   7.538 -0.2102  0.3518 -0.3942
   37POPC  C311 5020   0.868   5.607   7.576  0.5609 -0.9398 -0.4835
   37POPC  H11X 5021   0.796   5.540   7.525 -1.1578  1.8111 -1.8136
   37POPC  H11Y 5022   0.808   5.696   7.604  1.4507  0.0336 -1.6220
   37POPC  C312 5023   0.918   5.534   7.703 -0.8570  0.0887 -0.1220
   37POPC  H12X 5024   0.986   5.595   7.765 -0.0147 -1.8255  0.8640
   37POPC  H12Y 5025   0.991   5.457   7.670  2.1467  3.5942 -1.9332
   37POPC  C313 5026   0.812   5.484   7.796 -0.8100 -0.0498 -0.0519
   37POPC  H13X 5027   0.740   5.410   7.754 -1.8712  2.2523 -2.4358
   37POPC  H13Y 5028   0.751   5.574   7.819 -0.7715 -0.4972  1.8903
   37POPC  C314 5029   0.868   5.429   7.925  0.5052  0.0024  0.3207
   37POPC  H14X 5030   0.945   5.503   7.959 -0.2498  0.3488  1.3054
   37POPC  H14Y 5031   0.920   5.334   7.899  1.3152  0.3470  0.6335
   37POPC  C315 5032   0.761   5.420   8.031 -0.4208  0.1417 -0.5823
   37POPC  H15X 5033   0.696   5.332   8.010  1.4577 -0.9059 -2.1809
   37POPC  H15Y 5034   0.701   5.513   8.029  0.4713  0.7533  0.3545
   37POPC  C316 5035   0.795   5.425   8.182  0.0433  0.7262  0.7408
   37POPC  H16X 5036   0.855   5.335   8.208 -1.6757 -1.1610 -1.6040
   37POPC  H16Y 5037   0.707   5.437   8.249  1.4167  0.2031  2.6824
   37POPC  H16Z 5038   0.863   5.512   8.197  2.4176 -1.5014  3.2671
   38POPC     N 5039   2.390   2.080   6.387  0.3859  0.8204  0.0043
   38POPC   C12 5040   2.470   1.957   6.429 -0.6692  0.3087 -0.2357
   38POPC  H12A 5041   2.451   1.935   6.533  2.1321 -0.7029  0.1142
   38POPC  H12B 5042   2.574   1.983   6.413 -0.3639 -1.3606 -1.0208
   38POPC   C13 5043   2.435   2.199   6.471  0.0632 -0.6160 -1.0354
   38POPC  H13A 5044   2.374   2.284   6.442 -0.2851 -0.6850 -0.5059
   38POPC  H13B 5045   2.430   2.176   6.576 -1.9192  0.7719 -0.7924
   38POPC  H13C 5046   2.537   2.221   6.445  0.5834 -1.1275  0.5789
   38POPC   C14 5047   2.413   2.112   6.240 -0.4262 -1.0179 -0.7072
   38POPC  H14A 5048   2.368   2.206   6.212 -0.2015 -1.2938 -2.0407
   38POPC  H14B 5049   2.515   2.122   6.206  0.1917 -0.6653  1.1977
   38POPC  H14C 5050   2.378   2.028   6.182 -0.9521 -1.2954  0.0098
   38POPC   C15 5051   2.240   2.061   6.413 -0.0318  0.2037 -0.4057
   38POPC  H15A 5052   2.175   2.126   6.356 -1.1855  0.1486  0.8322
   38POPC  H15B 5053   2.220   2.074   6.518 -1.6520  2.3604 -0.9413
   38POPC  H15C 5054   2.215   1.958   6.395  0.2279 -0.0947  0.9114
   38POPC   C11 5055   2.445   1.826   6.356 -0.0235  0.0431  0.4843
   38POPC  H11A 5056   2.524   1.756   6.391  0.7663  0.9604  0.5751
   38POPC  H11B 5057   2.468   1.832   6.248 -0.6656  0.7852  0.3811
   38POPC     P 5058   2.271   1.679   6.481 -0.2281  0.2362 -0.2573
   38POPC   O13 5059   2.331   1.548   6.447  0.5540 -0.0905  0.0075
   38POPC   O14 5060   2.120   1.681   6.498  0.0214 -0.2018  0.6047
   38POPC   O12 5061   2.305   1.777   6.366 -0.1415 -0.0938 -0.0455
   38POPC   O11 5062   2.343   1.739   6.607 -0.9902 -0.4896 -0.3681
   38POPC    C1 5063   2.461   1.676   6.662  0.7561 -0.2813  0.2686
   38POPC    HA 5064   2.518   1.756   6.712 -2.2812  1.4409  1.0978
   38POPC    HB 5065   2.526   1.629   6.585  0.4714 -0.1436 -0.0589
   38POPC    C2 5066   2.412   1.558   6.759  0.0906  0.2739  0.6443
   38POPC    HS 5067   2.349   1.485   6.705 -2.0331  0.4348  2.7809
   38POPC   O21 5068   2.343   1.636   6.859 -0.8466 -0.2139 -0.5685
   38POPC   C21 5069   2.266   1.568   6.935  0.5059 -0.5990  0.5947
   38POPC   O22 5070   2.230   1.452   6.916  0.5113 -0.4335 -0.2028
   38POPC   C22 5071   2.218   1.657   7.046 -0.1919 -0.2943 -0.0848
   38POPC   H2R 5072   2.147   1.599   7.109 -0.8370 -0.0474 -0.5696
   38POPC   H2S 5073   2.157   1.737   6.998  0.2014 -0.0139 -0.1184
   38POPC    C3 5074   2.534   1.472   6.813 -0.4434 -0.1120  1.0161
   38POPC    HX 5075   2.583   1.424   6.726  0.1956  0.5393  1.0103
   38POPC    HY 5076   2.497   1.398   6.886  0.2526  0.5116  2.0137
   38POPC   O31 5077   2.622   1.566   6.881 -0.8929 -0.0475  0.4871
   38POPC   C31 5078   2.724   1.502   6.947 -0.1479 -0.2219 -0.0304
   38POPC   O32 5079   2.756   1.383   6.939  1.0021 -0.0294  0.0031
   38POPC   C32 5080   2.795   1.609   7.020 -0.2460 -0.4067 -0.1006
   38POPC   H2X 5081   2.726   1.689   7.055  1.7848  0.2648  2.5190
   38POPC   H2Y 5082   2.861   1.653   6.943  0.2661  2.8889  2.1417
   38POPC   C23 5083   2.325   1.732   7.133  0.4229  0.0769 -0.3732
   38POPC   H3R 5084   2.278   1.793   7.213 -1.3715 -1.7921  0.0175
   38POPC   H3S 5085   2.383   1.803   7.069  0.9018 -0.3838 -0.4497
   38POPC   C24 5086   2.421   1.628   7.199 -0.4331  0.0624  0.4547
   38POPC   H4R 5087   2.475   1.578   7.116 -0.8487  0.8579 -0.2994
   38POPC   H4S 5088   2.372   1.544   7.251 -2.5443  1.9065  1.5179
   38POPC   C25 5089   2.513   1.696   7.304 -0.1975 -0.9184  1.0759
   38POPC   H5R 5090   2.527   1.798   7.264 -1.6053 -1.5750 -1.1906
   38POPC   H5S 5091   2.612   1.648   7.286  1.4318  2.7823 -0.3150
   38POPC   C26 5092   2.458   1.685   7.444  0.4151 -0.0226  0.9818
   38POPC   H6R 5093   2.435   1.576   7.447  0.3615 -0.0772 -0.7696
   38POPC   H6S 5094   2.361   1.739   7.454  0.4292 -0.1363  1.7452
   38POPC   C27 5095   2.556   1.737   7.548  0.0202  0.0707  0.0450
   38POPC   H7R 5096   2.496   1.777   7.632 -0.1158  1.2962 -0.6242
   38POPC   H7S 5097   2.611   1.822   7.501  1.8695 -1.7793 -1.2110
   38POPC   C28 5098   2.653   1.630   7.604 -0.2732  0.2450 -0.2024
   38POPC   H8R 5099   2.745   1.683   7.638  0.3944 -1.0736  0.1011
   38POPC   H8S 5100   2.679   1.565   7.517 -0.2917  0.4015 -0.3249
   38POPC   C29 5101   2.580   1.556   7.713  0.1248  0.1752 -0.5442
   38POPC   H91 5102   2.486   1.501   7.696  0.6928 -2.0417  2.9164
   38POPC  C210 5103   2.602   1.594   7.843 -0.1262  0.3850 -0.1458
   38POPC  H101 5104   2.549   1.545   7.926  2.7957 -1.2229  0.8676
   38POPC  C211 5105   2.697   1.697   7.890 -0.3881 -0.2471 -0.0020
   38POPC  H11R 5106   2.682   1.785   7.823 -1.8910  1.4864  2.5298
   38POPC  H11S 5107   2.793   1.654   7.852 -0.3506  1.4843 -1.9583
   38POPC  C212 5108   2.704   1.759   8.029 -0.5053  0.0619  0.0489
   38POPC  H12R 5109   2.601   1.761   8.070 -0.1510 -1.8362  1.0858
   38POPC  H12S 5110   2.750   1.860   8.030  1.6877 -0.9122  0.8744
   38POPC  C213 5111   2.792   1.667   8.115  0.0045  0.4074  0.4946
   38POPC  H13R 5112   2.885   1.643   8.059  0.8198 -0.1257  2.0558
   38POPC  H13S 5113   2.729   1.579   8.136  0.9550  0.0932  2.1121
   38POPC  C214 5114   2.826   1.731   8.251 -0.2633 -0.8810  0.2341
   38POPC  H14R 5115   2.738   1.769   8.308 -1.5996 -1.7208 -1.2447
   38POPC  H14S 5116   2.890   1.820   8.232 -1.2731 -0.2094 -0.0281
   38POPC  C215 5117   2.903   1.642   8.348  0.5868 -0.0491  0.4364
   38POPC  H15R 5118   2.985   1.585   8.300  0.3830  0.8886 -1.0673
   38POPC  H15S 5119   2.841   1.566   8.401 -1.3770 -0.2392 -1.9981
   38POPC  C216 5120   2.976   1.724   8.459 -0.3403 -0.0458  0.4423
   38POPC  H16R 5121   2.912   1.807   8.497 -0.7051 -0.5665  0.9659
   38POPC  H16S 5122   3.063   1.767   8.405 -0.8348  0.2069 -0.1602
   38POPC  C217 5123   3.020   1.628   8.580 -0.3384  0.5539 -0.1193
   38POPC  H17R 5124   3.084   1.553   8.529 -1.3032  0.5112 -1.2708
   38POPC  H17S 5125   2.929   1.579   8.620  1.0880 -1.9339  0.1665
   38POPC  C218 5126   3.101   1.692   8.692 -0.5084 -0.0013  0.1394
   38POPC  H18R 5127   3.040   1.766   8.749 -0.3483 -0.2722  0.6677
   38POPC  H18S 5128   3.196   1.734   8.654  1.2893 -2.2170  2.0854
   38POPC  H18T 5129   3.144   1.612   8.755  0.3273 -0.6632 -1.2442
   38POPC   C33 5130   2.879   1.566   7.133 -0.8812  0.7875  0.1952
   38POPC   H3X 5131   2.957   1.498   7.092 -0.3876  0.8007  1.1050
   38POPC   H3Y 5132   2.823   1.507   7.209 -0.1412  0.0479  0.1696
   38POPC   C34 5133   2.950   1.682   7.199 -0.4031  0.3507 -0.0613
   38POPC   H4X 5134   2.881   1.767   7.217 -0.2133  0.7564 -1.2265
   38POPC   H4Y 5135   3.036   1.722   7.141  1.5113  0.8280  2.9591
   38POPC   C35 5136   3.029   1.640   7.326 -0.2110  0.0304 -0.1341
   38POPC   H5X 5137   3.139   1.638   7.310 -0.4202 -2.6940 -1.4147
   38POPC   H5Y 5138   2.992   1.538   7.349  0.6868 -0.1286  0.6361
   38POPC   C36 5139   3.000   1.725   7.451  0.5383  0.5681  0.1314
   38POPC   H6X 5140   2.889   1.723   7.456  0.5781 -1.4178  0.7259
   38POPC   H6Y 5141   3.036   1.828   7.430  0.2886  0.2954 -1.6803
   38POPC   C37 5142   3.063   1.669   7.585  0.9001  0.4204  0.2641
   38POPC   H7X 5143   3.167   1.646   7.552  0.0898 -2.0843 -0.6712
   38POPC   H7Y 5144   2.997   1.583   7.607  1.2936 -0.0585 -0.3993
   38POPC   C38 5145   3.054   1.763   7.703  0.1026 -0.0157  0.3383
   38POPC   H8X 5146   2.948   1.783   7.729  0.6046  1.9805  1.0116
   38POPC   H8Y 5147   3.111   1.858   7.692 -1.8640  1.0357 -1.1513
   38POPC   C39 5148   3.113   1.709   7.835  0.2566  0.4338  0.5328
   38POPC   H9X 5149   3.222   1.691   7.818 -0.2316 -1.0829 -1.1795
   38POPC   H9Y 5150   3.070   1.612   7.867 -1.3670  0.5100 -1.3007
   38POPC  C310 5151   3.113   1.812   7.952 -0.0979  1.1620  0.4023
   38POPC  H10X 5152   3.010   1.846   7.976  0.2360  1.7403  1.0270
   38POPC  H10Y 5153   3.150   1.903   7.900  1.5654  0.4836  0.3728
   38POPC  C311 5154   3.193   1.785   8.074 -0.0836 -0.5451  0.1881
   38POPC  H11X 5155   3.296   1.768   8.037  0.3155  1.6938  0.1744
   38POPC  H11Y 5156   3.162   1.691   8.125  1.7236 -2.2990 -1.8596
   38POPC  C312 5157   3.199   1.907   8.164 -0.8612 -0.7847  0.4402
   38POPC  H12X 5158   3.095   1.923   8.199 -0.4472  1.9846  0.4808
   38POPC  H12Y 5159   3.236   1.991   8.102 -2.0641  0.5713  1.5359
   38POPC  C313 5160   3.295   1.884   8.277  0.0415  0.5234  0.5874
   38POPC  H13X 5161   3.397   1.878   8.234 -0.2983 -0.3429 -0.1105
   38POPC  H13Y 5162   3.253   1.786   8.309 -0.4652  0.5225 -0.0588
   38POPC  C314 5163   3.288   1.974   8.400  0.3016 -0.0486  0.3248
   38POPC  H14X 5164   3.194   1.957   8.457  0.5177 -0.3188  0.6009
   38POPC  H14Y 5165   3.276   2.074   8.354  0.8162  0.0432  0.3929
   38POPC  C315 5166   3.405   1.960   8.498 -0.2069  0.9032 -0.3079
   38POPC  H15X 5167   3.504   1.963   8.446  0.2161 -1.6314  0.2432
   38POPC  H15Y 5168   3.394   1.859   8.544 -0.9170  1.2397  0.2637
   38POPC  C316 5169   3.399   2.078   8.598 -0.6175 -0.1951 -1.1037
   38POPC  H16X 5170   3.430   2.172   8.548  0.0334  0.4836  0.5289
   38POPC  H16Y 5171   3.462   2.066   8.689  0.1945  0.2828 -1.5992
   38POPC  H16Z 5172   3.292   2.095   8.625 -0.6518 -2.2375  0.2067
   39POPC     N 5173   6.756   5.371   5.972 -0.1991 -0.1507  0.0444
   39POPC   C12 5174   6.632   5.465   5.959 -0.0888 -0.3806 -0.2597
   39POPC  H12A 5175   6.633   5.512   5.862  0.1201 -2.0902 -1.1154
   39POPC  H12B 5176   6.653   5.546   6.028 -0.5777  0.4663 -1.0988
   39POPC   C13 5177   6.724   5.250   5.891  0.2123 -0.4189  0.0460
   39POPC  H13A 5178   6.811   5.186   5.895  1.2511  0.8824 -1.0519
   39POPC  H13B 5179   6.638   5.194   5.923  0.8152 -0.9647  0.7251
   39POPC  H13C 5180   6.697   5.283   5.791 -0.4904 -1.2499 -0.0410
   39POPC   C14 5181   6.872   5.445   5.917  0.2901  0.3728 -0.1477
   39POPC  H14A 5182   6.901   5.519   5.989  2.7196 -1.5979  0.9893
   39POPC  H14B 5183   6.952   5.377   5.890 -0.7269 -1.6950  1.7757
   39POPC  H14C 5184   6.842   5.484   5.821  0.8629 -2.2678 -1.4784
   39POPC   C15 5185   6.783   5.321   6.112  0.0012  0.1902  0.1812
   39POPC  H15A 5186   6.831   5.398   6.170  0.5830 -0.7167  0.9092
   39POPC  H15B 5187   6.840   5.229   6.110 -1.5443 -0.7854  0.0172
   39POPC  H15C 5188   6.688   5.301   6.160  0.5059 -0.5256  0.8986
   39POPC   C11 5189   6.493   5.414   6.002 -0.2565 -0.4033  0.3931
   39POPC  H11A 5190   6.465   5.337   5.927  0.5791 -1.2941  0.9899
   39POPC  H11B 5191   6.419   5.495   5.984 -0.1802 -0.4261 -0.0361
   39POPC     P 5192   6.350   5.287   6.177  0.6557 -0.4276 -0.0702
   39POPC   O13 5193   6.335   5.167   6.089  0.9803  0.8285 -0.3706
   39POPC   O14 5194   6.235   5.378   6.198 -0.0970  0.0064  0.3125
   39POPC   O12 5195   6.484   5.372   6.145  0.2793  0.2931 -0.2705
   39POPC   O11 5196   6.392   5.224   6.314 -0.7447 -0.2379  0.6117
   39POPC    C1 5197   6.368   5.304   6.431  0.0009 -0.4061  0.7302
   39POPC    HA 5198   6.258   5.321   6.431  0.0501  0.0334 -1.0882
   39POPC    HB 5199   6.423   5.400   6.429 -0.2675 -0.2665 -0.1546
   39POPC    C2 5200   6.413   5.224   6.557 -0.4761  0.9169 -0.3797
   39POPC    HS 5201   6.379   5.118   6.552 -1.8503  1.3019  0.4276
   39POPC   O21 5202   6.353   5.289   6.675  0.0327  0.3190  0.4873
   39POPC   C21 5203   6.226   5.257   6.690  0.0510 -0.2727 -0.1273
   39POPC   O22 5204   6.166   5.171   6.630  0.0048  0.2262 -0.0452
   39POPC   C22 5205   6.162   5.327   6.809  0.0943  0.1565 -0.7615
   39POPC   H2R 5206   6.131   5.428   6.774 -0.7733 -0.1987 -1.0339
   39POPC   H2S 5207   6.239   5.346   6.888 -2.2211 -3.3504  2.5386
   39POPC    C3 5208   6.567   5.216   6.563 -0.8765 -0.4361 -0.3911
   39POPC    HX 5209   6.606   5.320   6.571  0.6813 -1.0533  0.1856
   39POPC    HY 5210   6.603   5.182   6.464  3.7312  0.9058  0.6876
   39POPC   O31 5211   6.609   5.118   6.663 -0.2813 -0.6261 -0.1832
   39POPC   C31 5212   6.737   5.122   6.695  0.2929  0.2286 -0.3468
   39POPC   O32 5213   6.825   5.184   6.634 -1.1091 -0.2477 -0.2522
   39POPC   C32 5214   6.755   5.017   6.807 -0.6498 -0.5775  0.5171
   39POPC   H2X 5215   6.660   4.960   6.816 -0.5405 -0.7748  0.4215
   39POPC   H2Y 5216   6.848   4.965   6.774  1.1776  1.7149  1.9175
   39POPC   C23 5217   6.040   5.270   6.884  0.3714  0.5050 -0.0806
   39POPC   H3R 5218   5.967   5.240   6.806  2.5267 -2.8130 -0.8966
   39POPC   H3S 5219   5.998   5.362   6.930 -0.2083  0.6880 -0.9613
   39POPC   C24 5220   6.075   5.151   6.971  0.1466  0.3736 -0.2339
   39POPC   H4R 5221   6.150   5.193   7.042  1.1650  0.1454 -1.1531
   39POPC   H4S 5222   6.123   5.067   6.916 -0.1329  0.3040 -0.3706
   39POPC   C25 5223   5.959   5.091   7.047  0.8491  0.4037  0.2299
   39POPC   H5R 5224   5.993   5.005   7.109 -2.8859 -1.2746  0.0712
   39POPC   H5S 5225   5.906   5.052   6.958  1.5742  0.8200 -0.3879
   39POPC   C26 5226   5.875   5.184   7.137  0.8465 -0.2996 -0.0250
   39POPC   H6R 5227   5.827   5.271   7.087 -1.3958 -1.6582 -0.2711
   39POPC   H6S 5228   5.939   5.225   7.217 -1.0459  0.2531  1.2255
   39POPC   C27 5229   5.759   5.102   7.203  0.2042 -0.2175  0.3552
   39POPC   H7R 5230   5.801   5.021   7.266 -1.2490 -0.7094  0.7266
   39POPC   H7S 5231   5.701   5.058   7.119  1.3064  1.3268 -1.2552
   39POPC   C28 5232   5.650   5.184   7.278 -0.2370 -0.2928 -0.8229
   39POPC   H8R 5233   5.606   5.251   7.201 -2.4331 -0.6028  0.1121
   39POPC   H8S 5234   5.706   5.245   7.352  0.4332 -2.1106  0.2124
   39POPC   C29 5235   5.543   5.101   7.354 -0.4127 -0.0109 -0.9359
   39POPC   H91 5236   5.439   5.114   7.321 -1.0465 -2.3509  0.0220
   39POPC  C210 5237   5.561   5.030   7.467  0.2244 -1.2018 -0.4375
   39POPC  H101 5238   5.480   4.969   7.509  0.3527 -0.8157  0.3731
   39POPC  C211 5239   5.694   5.015   7.536 -0.1402  0.0135  0.0754
   39POPC  H11R 5240   5.783   5.074   7.505 -0.9242  1.0894 -0.1852
   39POPC  H11S 5241   5.727   4.910   7.525 -1.4230 -0.6206  2.0380
   39POPC  C212 5242   5.672   5.033   7.691 -0.5021 -0.0806  0.2016
   39POPC  H12R 5243   5.594   4.965   7.733 -0.6125 -0.4656 -0.6157
   39POPC  H12S 5244   5.637   5.137   7.704  0.8728  0.7826 -2.4912
   39POPC  C213 5245   5.796   5.019   7.774 -0.4341  0.1246  0.2682
   39POPC  H13R 5246   5.870   5.099   7.754  0.1771 -0.9030 -1.7204
   39POPC  H13S 5247   5.841   4.923   7.741  0.5001  1.0587 -1.2225
   39POPC  C214 5248   5.761   5.032   7.924  0.3760  0.1933  0.0347
   39POPC  H14R 5249   5.693   4.950   7.953 -0.8651  1.3382  0.4443
   39POPC  H14S 5250   5.698   5.122   7.942 -1.6119 -0.5407 -2.8554
   39POPC  C215 5251   5.887   5.048   8.013  0.2576 -0.2305  0.6304
   39POPC  H15R 5252   5.937   5.146   7.997  1.0719 -0.5912  0.9352
   39POPC  H15S 5253   5.960   4.970   7.983 -1.6919 -2.3789  1.3270
   39POPC  C216 5254   5.869   5.045   8.169  0.0148 -0.3630 -0.2256
   39POPC  H16R 5255   5.808   4.953   8.175 -2.4121  1.1206 -1.2560
   39POPC  H16S 5256   5.812   5.122   8.225 -3.8578 -3.5199  0.3957
   39POPC  C217 5257   6.007   5.029   8.234 -0.3171  1.4808  0.3437
   39POPC  H17R 5258   6.047   4.945   8.174 -0.6302  3.2916 -2.5157
   39POPC  H17S 5259   5.997   5.010   8.343 -2.1405  1.2468  0.1527
   39POPC  C218 5260   6.093   5.149   8.209  0.3695 -0.7144  0.0428
   39POPC  H18R 5261   6.113   5.166   8.101 -0.4813  0.1372  0.0117
   39POPC  H18S 5262   6.200   5.138   8.237  0.3902  0.7231  0.5503
   39POPC  H18T 5263   6.063   5.248   8.248 -3.4054 -0.6915 -2.5806
   39POPC   C33 5264   6.797   5.072   6.943 -0.1439  0.0591 -0.2863
   39POPC   H3X 5265   6.893   5.123   6.924  0.6834 -1.8144 -1.2239
   39POPC   H3Y 5266   6.826   4.987   7.007  0.2161 -0.9809 -1.8093
   39POPC   C34 5267   6.690   5.166   7.007  0.1594  0.5726  1.1325
   39POPC   H4X 5268   6.600   5.107   7.034 -0.3030 -1.2766 -3.8386
   39POPC   H4Y 5269   6.663   5.225   6.916  2.3157 -1.1100 -0.6567
   39POPC   C35 5270   6.749   5.240   7.130 -0.3357  0.0918  0.0994
   39POPC   H5X 5271   6.823   5.315   7.096 -2.1150  1.0107 -1.8093
   39POPC   H5Y 5272   6.806   5.182   7.205 -0.8747 -0.2578  0.2409
   39POPC   C36 5273   6.637   5.319   7.203  0.3280 -1.0818 -0.1895
   39POPC   H6X 5274   6.568   5.257   7.265 -1.2226  1.7752  1.0326
   39POPC   H6Y 5275   6.575   5.374   7.129  1.1141  0.9541  0.6148
   39POPC   C37 5276   6.699   5.419   7.301 -0.1482 -0.1175  0.0990
   39POPC   H7X 5277   6.613   5.467   7.352 -0.2634 -0.9187  0.6698
   39POPC   H7Y 5278   6.750   5.496   7.240 -0.9947  0.6045  0.2976
   39POPC   C38 5279   6.782   5.366   7.423  0.4562 -0.7129  0.3754
   39POPC   H8X 5280   6.888   5.347   7.394  0.7473 -0.8908  1.5504
   39POPC   H8Y 5281   6.728   5.273   7.449  0.1192 -0.6859 -0.2114
   39POPC   C39 5282   6.782   5.472   7.533 -0.2036  0.4784 -0.5619
   39POPC   H9X 5283   6.673   5.490   7.550 -0.6467  0.2149 -2.9435
   39POPC   H9Y 5284   6.822   5.569   7.499  2.1146  0.6328  2.3863
   39POPC  C310 5285   6.851   5.428   7.655  0.3241  0.0424 -0.5806
   39POPC  H10X 5286   6.948   5.481   7.662 -0.7245  1.7910  1.2527
   39POPC  H10Y 5287   6.862   5.318   7.640  0.2519  0.0502 -0.6924
   39POPC  C311 5288   6.775   5.460   7.784  0.7105  0.1958 -0.5027
   39POPC  H11X 5289   6.669   5.432   7.763  1.9849 -1.8894 -4.6385
   39POPC  H11Y 5290   6.788   5.570   7.794 -1.0060  0.4676 -1.0635
   39POPC  C312 5291   6.826   5.397   7.912 -0.7711  0.3616  0.2759
   39POPC  H12X 5292   6.928   5.432   7.940 -0.3656 -1.0495  0.5767
   39POPC  H12Y 5293   6.828   5.296   7.867 -1.5692  0.5567 -0.1996
   39POPC  C313 5294   6.721   5.405   8.026 -0.1778 -0.4442  0.1076
   39POPC  H13X 5295   6.737   5.317   8.093 -0.4943  0.8929  1.9927
   39POPC  H13Y 5296   6.623   5.395   7.974 -1.6770  2.7960  2.1698
   39POPC  C314 5297   6.719   5.539   8.108  0.3058 -0.6330  0.1722
   39POPC  H14X 5298   6.635   5.532   8.180 -0.8178 -0.3707 -1.0941
   39POPC  H14Y 5299   6.719   5.635   8.053 -0.8468 -1.1659 -0.7694
   39POPC  C315 5300   6.840   5.540   8.194  0.0379 -0.1968 -0.3324
   39POPC  H15X 5301   6.935   5.522   8.141  1.0715 -1.0507  1.7667
   39POPC  H15Y 5302   6.821   5.450   8.255  1.4095  0.0281  0.4261
   39POPC  C316 5303   6.851   5.669   8.277 -0.0476 -0.0652 -0.2551
   39POPC  H16X 5304   6.752   5.670   8.328  0.1103 -0.4444  0.0590
   39POPC  H16Y 5305   6.852   5.760   8.213  1.6771  0.8908  1.0856
   39POPC  H16Z 5306   6.937   5.672   8.347  0.1181  2.0833 -0.5106
   40POPC     N 5307   5.809   3.015   6.172  0.5705  0.4665  0.2802
   40POPC   C12 5308   5.669   3.032   6.133 -0.2402  0.0024  0.3607
   40POPC  H12A 5309   5.603   2.957   6.174  2.1829 -1.0001  2.5877
   40POPC  H12B 5310   5.656   3.020   6.026  2.5780  0.3102 -0.0518
   40POPC   C13 5311   5.869   2.882   6.133 -0.2501  0.4794 -0.0829
   40POPC  H13A 5312   5.972   2.880   6.102 -0.2082  1.0066  0.0272
   40POPC  H13B 5313   5.876   2.818   6.219  0.1206  0.7628  0.0960
   40POPC  H13C 5314   5.805   2.838   6.057 -0.8445 -0.7007  1.0722
   40POPC   C14 5315   5.884   3.127   6.101  0.6773  0.6824 -0.3725
   40POPC  H14A 5316   5.849   3.220   6.143  2.3697  0.4156  1.7012
   40POPC  H14B 5317   5.988   3.109   6.121  0.7613  1.0679 -0.4764
   40POPC  H14C 5318   5.882   3.132   5.994 -0.1623 -0.8643 -0.4460
   40POPC   C15 5319   5.826   3.027   6.326 -0.3586  0.2939  0.8545
   40POPC  H15A 5320   5.781   3.119   6.362  0.4663  1.3560 -0.7654
   40POPC  H15B 5321   5.931   3.034   6.350  0.0920 -0.5954 -0.7924
   40POPC  H15C 5322   5.795   2.930   6.362 -0.8218 -0.0819 -0.5188
   40POPC   C11 5323   5.607   3.170   6.181 -0.2560 -0.7719  0.1686
   40POPC  H11A 5324   5.523   3.203   6.116  0.2718  2.2116  0.9258
   40POPC  H11B 5325   5.678   3.251   6.153  0.3368 -0.9003  1.2803
   40POPC     P 5326   5.548   3.297   6.405  0.5048  0.0710  0.1110
   40POPC   O13 5327   5.504   3.412   6.323  1.5235 -0.4614  0.3155
   40POPC   O14 5328   5.662   3.317   6.501 -0.4433 -0.0605  0.6267
   40POPC   O12 5329   5.571   3.163   6.316 -0.1308 -0.4097  0.4409
   40POPC   O11 5330   5.428   3.258   6.497 -0.0444  0.4140 -0.3617
   40POPC    C1 5331   5.352   3.136   6.490 -0.6824  0.2967 -0.1730
   40POPC    HA 5332   5.362   3.081   6.393 -1.8828  0.2596 -0.2786
   40POPC    HB 5333   5.245   3.163   6.492 -0.3715  1.5196  0.1185
   40POPC    C2 5334   5.383   3.026   6.606 -0.2641 -0.1208 -0.4491
   40POPC    HS 5335   5.311   2.942   6.597  0.8662 -1.1463  0.0603
   40POPC   O21 5336   5.367   3.095   6.734 -0.3765 -0.0247  0.5265
   40POPC   C21 5337   5.330   3.010   6.834 -0.4666 -1.2967  0.0934
   40POPC   O22 5338   5.285   2.894   6.821 -0.1165 -0.1999 -0.5795
   40POPC   C22 5339   5.326   3.082   6.968  0.2628 -0.3068  0.2298
   40POPC   H2R 5340   5.249   3.162   6.973 -0.5256 -1.1442  1.5639
   40POPC   H2S 5341   5.427   3.128   6.975  0.3282 -0.5751  1.0757
   40POPC    C3 5342   5.532   2.973   6.596 -0.2212  0.4391 -0.0352
   40POPC    HX 5343   5.594   3.061   6.623  0.4796 -0.2897  0.7559
   40POPC    HY 5344   5.553   2.950   6.489 -0.7020  2.9089 -0.7029
   40POPC   O31 5345   5.545   2.865   6.682 -0.4666 -0.0423  0.5931
   40POPC   C31 5346   5.540   2.742   6.640  0.0445  0.6520 -0.8441
   40POPC   O32 5347   5.543   2.707   6.525 -0.0607  0.5190 -0.0578
   40POPC   C32 5348   5.534   2.645   6.758  0.1199 -0.1534 -0.1299
   40POPC   H2X 5349   5.532   2.540   6.720 -0.0311 -1.5543  3.5349
   40POPC   H2Y 5350   5.437   2.666   6.807 -0.4156 -1.3898 -0.6290
   40POPC   C23 5351   5.319   2.979   7.085 -0.0891 -0.0520 -0.1716
   40POPC   H3R 5352   5.410   2.920   7.062  0.1586  1.1821 -2.5134
   40POPC   H3S 5353   5.218   2.934   7.079 -0.7252  1.2731  0.1853
   40POPC   C24 5354   5.348   3.055   7.221  0.0396 -0.2235  0.4295
   40POPC   H4R 5355   5.266   3.127   7.243 -0.3059 -0.1432 -1.0815
   40POPC   H4S 5356   5.444   3.112   7.216 -1.2785  1.9642 -1.0249
   40POPC   C25 5357   5.368   2.954   7.340  0.2961 -0.0156  0.0574
   40POPC   H5R 5358   5.454   2.894   7.303 -0.0610 -0.3205 -0.2798
   40POPC   H5S 5359   5.283   2.884   7.347 -1.3569  1.9549  0.0686
   40POPC   C26 5360   5.394   3.016   7.481  0.3560 -0.3153 -0.2781
   40POPC   H6R 5361   5.368   2.937   7.555 -0.3334 -1.3579 -1.6021
   40POPC   H6S 5362   5.323   3.093   7.517  1.3468  0.6022 -0.2845
   40POPC   C27 5363   5.549   3.050   7.503 -0.1523 -0.7446  0.2109
   40POPC   H7R 5364   5.578   3.136   7.438 -1.0502  0.2317  1.0645
   40POPC   H7S 5365   5.600   2.959   7.466  1.9186  0.7432 -0.6885
   40POPC   C28 5366   5.591   3.071   7.654 -0.1514 -0.4628  0.0817
   40POPC   H8R 5367   5.533   3.159   7.692  2.4542  2.1162 -1.7117
   40POPC   H8S 5368   5.698   3.100   7.654 -0.4526  0.8166  2.3751
   40POPC   C29 5369   5.573   2.947   7.734 -0.9540  0.5969 -0.9287
   40POPC   H91 5370   5.599   2.852   7.686 -1.3881  0.6211 -1.2111
   40POPC  C210 5371   5.513   2.932   7.855 -0.1540  0.6141  0.1742
   40POPC  H101 5372   5.492   2.829   7.888 -1.4162  0.7166 -0.2910
   40POPC  C211 5373   5.472   3.050   7.946  0.2285 -0.5121 -0.4496
   40POPC  H11R 5374   5.444   3.139   7.886 -1.7511 -1.1895 -0.5791
   40POPC  H11S 5375   5.555   3.075   8.014  0.2136  0.2853 -0.7225
   40POPC  C212 5376   5.349   3.030   8.041  0.4634  0.2552  0.2936
   40POPC  H12R 5377   5.254   3.024   7.983  0.7063 -0.1473 -0.0638
   40POPC  H12S 5378   5.339   3.118   8.108  0.7254  0.1618  0.4539
   40POPC  C213 5379   5.355   2.898   8.124  0.2164 -0.9496  0.1883
   40POPC  H13R 5380   5.373   2.805   8.066 -2.4632 -0.3333 -1.7369
   40POPC  H13S 5381   5.253   2.874   8.163 -0.3656 -1.1152 -1.4203
   40POPC  C214 5382   5.451   2.909   8.246  0.4702 -0.7171 -1.3049
   40POPC  H14R 5383   5.552   2.934   8.208  0.2258  0.1160 -1.4289
   40POPC  H14S 5384   5.465   2.812   8.298 -0.5181 -0.0223  0.3002
   40POPC  C215 5385   5.397   2.997   8.356 -1.0109 -0.3916 -0.5643
   40POPC  H15R 5386   5.294   2.969   8.387 -0.5605 -0.6755  0.7009
   40POPC  H15S 5387   5.398   3.102   8.318 -0.4770 -0.7654 -1.6118
   40POPC  C216 5388   5.496   2.988   8.478  0.2586 -0.5114 -0.3953
   40POPC  H16R 5389   5.606   2.995   8.463 -0.0096  1.1335 -1.8317
   40POPC  H16S 5390   5.486   2.882   8.508 -0.8896 -0.0289  1.0193
   40POPC  C217 5391   5.451   3.070   8.607  0.7322  0.6612 -0.3301
   40POPC  H17R 5392   5.347   3.043   8.637  0.9757  0.8603  0.7358
   40POPC  H17S 5393   5.444   3.175   8.573 -0.0225  0.6146 -0.3444
   40POPC  C218 5394   5.545   3.050   8.719 -0.0719 -0.5334  0.3717
   40POPC  H18R 5395   5.647   3.082   8.689  0.1056 -2.5698 -1.2725
   40POPC  H18S 5396   5.564   2.944   8.747  0.1412 -0.7521 -0.5916
   40POPC  H18T 5397   5.517   3.113   8.806  0.1463 -0.0647  0.1001
   40POPC   C33 5398   5.652   2.671   6.860  0.2394 -1.4362  0.0450
   40POPC   H3X 5399   5.634   2.774   6.898 -1.5579 -2.2677  1.5216
   40POPC   H3Y 5400   5.748   2.674   6.804 -1.1148  2.1343 -2.2646
   40POPC   C34 5401   5.656   2.569   6.974 -0.5028 -0.4474 -0.6281
   40POPC   H4X 5402   5.751   2.512   6.974  0.8639  1.7547  0.9972
   40POPC   H4Y 5403   5.568   2.507   6.945 -0.7583 -0.4931  0.2141
   40POPC   C35 5404   5.621   2.639   7.106  0.3777 -0.4653 -0.3594
   40POPC   H5X 5405   5.525   2.691   7.086  0.1972 -0.3505  0.8060
   40POPC   H5Y 5406   5.702   2.709   7.136  0.5225 -0.2793 -1.1799
   40POPC   C36 5407   5.591   2.537   7.223 -0.5364  0.3211 -0.0472
   40POPC   H6X 5408   5.678   2.468   7.224 -0.5495  0.2729 -1.4877
   40POPC   H6Y 5409   5.497   2.479   7.211 -0.4993 -0.1463  1.7765
   40POPC   C37 5410   5.581   2.599   7.360 -0.3067 -0.4405  0.0465
   40POPC   H7X 5411   5.512   2.686   7.356  2.0240  1.5329  1.0862
   40POPC   H7Y 5412   5.681   2.640   7.388 -0.5134 -1.1912  1.9755
   40POPC   C38 5413   5.536   2.503   7.466 -0.2459 -0.3118 -0.2471
   40POPC   H8X 5414   5.619   2.434   7.493 -0.6984 -1.2745 -1.3077
   40POPC   H8Y 5415   5.448   2.440   7.439 -1.5590  0.7469  1.4194
   40POPC   C39 5416   5.483   2.580   7.591 -0.2506  0.3510 -0.9280
   40POPC   H9X 5417   5.408   2.658   7.565  0.2523  1.1696  0.0482
   40POPC   H9Y 5418   5.569   2.616   7.652 -1.1256 -0.0159  0.5361
   40POPC  C310 5419   5.399   2.481   7.678 -0.2463  0.2229  0.1254
   40POPC  H10X 5420   5.460   2.391   7.703 -0.9837 -0.4714 -0.5422
   40POPC  H10Y 5421   5.296   2.458   7.643 -0.2288 -0.4497  0.4976
   40POPC  C311 5422   5.375   2.540   7.815  0.6516 -0.1214 -0.9703
   40POPC  H11X 5423   5.299   2.622   7.809  1.6790  0.8377 -1.0546
   40POPC  H11Y 5424   5.477   2.577   7.839  0.1950  0.1443  0.6283
   40POPC  C312 5425   5.342   2.444   7.928 -0.1441  0.3548 -0.7599
   40POPC  H12X 5426   5.421   2.375   7.964  0.1404  0.5450 -1.0180
   40POPC  H12Y 5427   5.255   2.388   7.888  1.0163 -0.5254 -2.0986
   40POPC  C313 5428   5.306   2.531   8.053  0.0783 -0.1796 -0.4362
   40POPC  H13X 5429   5.229   2.608   8.027  0.2568 -0.4137 -1.6956
   40POPC  H13Y 5430   5.404   2.582   8.064 -0.0943 -0.2616  1.6469
   40POPC  C314 5431   5.267   2.459   8.182 -0.7049  0.1451  0.5515
   40POPC  H14X 5432   5.309   2.357   8.181 -0.0280  0.4276  0.2097
   40POPC  H14Y 5433   5.156   2.454   8.180 -0.8065  0.7908  3.0020
   40POPC  C315 5434   5.299   2.537   8.310 -0.1725 -0.0985 -0.2754
   40POPC  H15X 5435   5.238   2.502   8.397  1.0615 -1.8717 -0.0961
   40POPC  H15Y 5436   5.262   2.642   8.302  0.3625  0.2486  1.6293
   40POPC  C316 5437   5.439   2.537   8.353  0.4848 -0.7170  0.0070
   40POPC  H16X 5438   5.444   2.588   8.451 -2.2493 -0.3107 -0.0422
   40POPC  H16Y 5439   5.503   2.598   8.285  1.3007  0.0250  1.4374
   40POPC  H16Z 5440   5.474   2.434   8.375 -1.8669 -1.7847 -1.0440
   41CHL1    C3 5441   4.741   6.051  10.105  0.2922  0.0456  0.5607
   41CHL1    H3 5442   4.818   6.027  10.028 -1.8731 -3.0899 -0.7111
   41CHL1    O3 5443   4.798   6.042  10.242 -0.5007  0.4191  0.1927
   41CHL1   H3' 5444   4.728   6.063  10.304 -1.3221 -0.0694 -0.5550
   41CHL1    C4 5445   4.667   6.189  10.089  0.2090 -0.1839  0.4704
   41CHL1   H4A 5446   4.582   6.204  10.158  1.5978  0.8605  2.0130
   41CHL1   H4B 5447   4.747   6.256  10.127  1.1756  0.3013 -2.2820
   41CHL1    C5 5448   4.621   6.220   9.957 -0.1618  0.9922  0.0443
   41CHL1    C6 5449   4.672   6.325   9.890  0.1478 -0.2069 -0.0780
   41CHL1    H6 5450   4.752   6.390   9.928 -1.6820  1.9075  0.2360
   41CHL1    C7 5451   4.631   6.354   9.743 -1.3648  0.0011 -0.3614
   41CHL1   H7A 5452   4.616   6.461   9.720  1.6137  0.2797 -1.2231
   41CHL1   H7B 5453   4.716   6.327   9.676 -1.4864 -0.8385 -0.1817
   41CHL1    C8 5454   4.508   6.277   9.691 -0.1229 -0.0206  1.1723
   41CHL1    H8 5455   4.419   6.326   9.736 -0.9746 -0.0220 -0.4953
   41CHL1   C14 5456   4.505   6.283   9.543  0.0667 -0.8720 -0.2828
   41CHL1   H14 5457   4.582   6.217   9.498 -1.8131 -2.3823 -1.3691
   41CHL1   C15 5458   4.516   6.421   9.472  0.0052 -0.0572 -0.2124
   41CHL1  H15A 5459   4.454   6.487   9.536  1.6029 -0.3712  1.6821
   41CHL1  H15B 5460   4.616   6.469   9.471  0.8682 -1.8149  0.0566
   41CHL1   C16 5461   4.449   6.402   9.335  0.0760  0.9875  0.8028
   41CHL1  H16A 5462   4.371   6.479   9.322 -0.0025  1.1999  2.4671
   41CHL1  H16B 5463   4.525   6.406   9.254  1.0699 -1.9656  1.5004
   41CHL1   C17 5464   4.396   6.251   9.334 -0.2208  0.2742 -0.4530
   41CHL1   H17 5465   4.479   6.180   9.311 -1.5039 -0.6290 -2.3646
   41CHL1   C13 5466   4.375   6.228   9.483 -0.3094 -0.6744 -0.3239
   41CHL1   C18 5467   4.241   6.301   9.531  0.6432  0.4249  0.0614
   41CHL1  H18A 5468   4.235   6.409   9.505  1.4451  0.4090 -0.2225
   41CHL1  H18B 5469   4.156   6.245   9.486 -0.1522  0.4422  1.5277
   41CHL1  H18C 5470   4.229   6.282   9.640 -1.0139  1.2717  0.0414
   41CHL1   C12 5471   4.372   6.077   9.525 -0.3726  0.6230  0.9095
   41CHL1  H12A 5472   4.272   6.041   9.493 -0.1557  1.1584 -0.4137
   41CHL1  H12B 5473   4.450   6.020   9.470 -0.1436 -0.1758  2.0429
   41CHL1   C11 5474   4.384   6.057   9.672 -0.3240 -0.1145 -0.0468
   41CHL1  H11A 5475   4.291   6.096   9.719  0.4848 -0.0023  1.4662
   41CHL1  H11B 5476   4.389   5.948   9.691 -1.6939 -0.4979 -1.7147
   41CHL1    C9 5477   4.504   6.129   9.737 -0.2930  0.1563 -0.0440
   41CHL1    H9 5478   4.592   6.085   9.687 -0.6213 -1.3063  0.6383
   41CHL1   C10 5479   4.527   6.108   9.894  0.4595  0.0904  0.0217
   41CHL1   C19 5480   4.391   6.131   9.967 -0.1642  0.3528  0.2754
   41CHL1  H19A 5481   4.323   6.049   9.935  1.3163 -0.0455 -1.9943
   41CHL1  H19B 5482   4.406   6.145  10.077  0.9929  1.8379 -0.0605
   41CHL1  H19C 5483   4.339   6.220   9.926  0.5278  1.0336  0.8684
   41CHL1    C1 5484   4.568   5.960   9.937 -0.1046  0.8314 -0.2124
   41CHL1   H1A 5485   4.471   5.906   9.931  0.2208 -0.0282  1.7438
   41CHL1   H1B 5486   4.647   5.932   9.864  0.7063  0.6962  0.6961
   41CHL1    C2 5487   4.632   5.953  10.081  0.8055  0.3384 -0.1408
   41CHL1   H2A 5488   4.686   5.857  10.094  1.8021  0.7007 -1.4820
   41CHL1   H2B 5489   4.562   5.972  10.165 -0.2462  1.6704 -1.2877
   41CHL1   C20 5490   4.293   6.221   9.229  0.5388 -0.3396  0.6811
   41CHL1   H20 5491   4.198   6.271   9.257  0.6337  2.3584 -3.4530
   41CHL1   C21 5492   4.247   6.068   9.222  0.1064 -0.4792 -0.3568
   41CHL1  H21A 5493   4.226   6.043   9.116  0.6912 -0.2264 -0.5368
   41CHL1  H21B 5494   4.156   6.056   9.284  0.3403 -1.7867 -0.2567
   41CHL1  H21C 5495   4.330   5.997   9.244  1.0961  0.0458 -2.2849
   41CHL1   C22 5496   4.327   6.274   9.084  0.2767 -0.5447 -0.2932
   41CHL1  H22A 5497   4.356   6.381   9.089  1.2965 -0.7438 -1.5972
   41CHL1  H22B 5498   4.408   6.214   9.038  1.1043  0.9969 -0.8969
   41CHL1   C23 5499   4.209   6.279   8.987 -0.0215  0.1055  0.7235
   41CHL1  H23A 5500   4.205   6.189   8.922  0.3079  1.0069 -0.5553
   41CHL1  H23B 5501   4.122   6.276   9.056 -0.9849 -1.2461 -0.5257
   41CHL1   C24 5502   4.206   6.405   8.903  0.1462  0.9472  0.3803
   41CHL1  H24A 5503   4.177   6.484   8.976 -2.5802  0.1928  0.1894
   41CHL1  H24B 5504   4.306   6.429   8.861 -1.3954  1.5753 -3.1419
   41CHL1   C25 5505   4.100   6.396   8.787  0.1713 -0.3377  0.1464
   41CHL1   H25 5506   4.005   6.367   8.837 -0.1943  0.9798  0.2419
   41CHL1   C26 5507   4.082   6.538   8.734  0.1687  0.6737  0.1193
   41CHL1  H26A 5508   4.183   6.576   8.709 -0.2979  1.2956 -0.8835
   41CHL1  H26B 5509   4.027   6.549   8.637  2.4033  1.7006 -1.0462
   41CHL1  H26C 5510   4.047   6.609   8.811  5.2052  1.6631  1.6385
   41CHL1   C27 5511   4.137   6.301   8.667 -0.1074  0.1256 -0.1014
   41CHL1  H27A 5512   4.234   6.339   8.627  0.6756 -0.5364  1.1458
   41CHL1  H27B 5513   4.148   6.197   8.705 -0.3074  0.5905  1.2607
   41CHL1  H27C 5514   4.054   6.296   8.594 -0.4861 -0.5295  0.3654
   42CHL1    C3 5515   4.164   5.611   9.717  0.5390  0.2588  0.1838
   42CHL1    H3 5516   4.151   5.501   9.711  0.1700  0.3916 -1.7015
   42CHL1    O3 5517   4.096   5.676   9.819  0.1833 -0.2860 -0.2327
   42CHL1   H3' 5518   4.012   5.709   9.786  0.9578  0.7550 -1.1872
   42CHL1    C4 5519   4.313   5.642   9.721 -0.1345 -1.0369  0.3175
   42CHL1   H4A 5520   4.308   5.748   9.688 -0.4434 -1.2706 -0.3774
   42CHL1   H4B 5521   4.360   5.629   9.821  1.0749 -1.8217 -0.3392
   42CHL1    C5 5522   4.376   5.552   9.615 -0.5830  0.9246  0.6201
   42CHL1    C6 5523   4.461   5.450   9.641  0.4700 -0.2552  0.3170
   42CHL1    H6 5524   4.487   5.438   9.747  0.0706 -1.7671  0.2558
   42CHL1    C7 5525   4.535   5.376   9.533  0.7303 -0.0872  0.6550
   42CHL1   H7A 5526   4.641   5.367   9.565  1.0015  3.0324  0.7410
   42CHL1   H7B 5527   4.497   5.272   9.538  1.5540 -0.3859  0.8259
   42CHL1    C8 5528   4.520   5.442   9.393  0.1921  0.8197  0.4549
   42CHL1    H8 5529   4.577   5.536   9.382 -0.9047  1.3086 -1.3980
   42CHL1   C14 5530   4.565   5.342   9.291 -0.2313 -0.1736  0.7833
   42CHL1   H14 5531   4.503   5.251   9.308 -0.6811  0.2530  1.4361
   42CHL1   C15 5532   4.713   5.303   9.304  0.5339  0.0974  0.3109
   42CHL1  H15A 5533   4.777   5.393   9.303 -1.4581  1.5709 -1.9689
   42CHL1  H15B 5534   4.732   5.236   9.391  1.6064  0.5174  0.4068
   42CHL1   C16 5535   4.745   5.243   9.164  0.5990  0.5390 -0.4532
   42CHL1  H16A 5536   4.834   5.297   9.126  0.7130  0.7281  0.0674
   42CHL1  H16B 5537   4.772   5.136   9.169  1.4441  0.7615 -0.1364
   42CHL1   C17 5538   4.615   5.255   9.079  0.6056  0.0384  0.7521
   42CHL1   H17 5539   4.550   5.168   9.100  1.0529 -0.7397 -1.0097
   42CHL1   C13 5540   4.543   5.382   9.141  0.5068 -0.0616 -0.0876
   42CHL1   C18 5541   4.621   5.511   9.112 -0.7176 -0.1827 -0.3794
   42CHL1  H18A 5542   4.607   5.593   9.186 -0.6023 -0.2264 -0.3093
   42CHL1  H18B 5543   4.726   5.476   9.124 -0.4180 -0.6439 -3.9727
   42CHL1  H18C 5544   4.607   5.552   9.010 -0.5072 -1.4709 -0.9294
   42CHL1   C12 5545   4.389   5.403   9.125 -0.1087 -0.2615  0.6687
   42CHL1  H12A 5546   4.375   5.438   9.020  2.3334  3.5264  1.4998
   42CHL1  H12B 5547   4.330   5.309   9.127 -2.0620  0.8393 -1.8148
   42CHL1   C11 5548   4.328   5.501   9.222  0.6423  0.2591  0.7024
   42CHL1  H11A 5549   4.359   5.604   9.197 -0.2767  0.6278  1.0465
   42CHL1  H11B 5550   4.217   5.502   9.228  0.6290  1.3085  0.4088
   42CHL1    C9 5551   4.366   5.471   9.371  0.2889 -0.6004 -0.2809
   42CHL1    H9 5552   4.314   5.377   9.398  1.1201 -1.4283 -1.5166
   42CHL1   C10 5553   4.319   5.583   9.473  0.3326  0.4389 -0.0839
   42CHL1   C19 5554   4.364   5.720   9.430  0.3647 -0.6979 -1.1821
   42CHL1  H19A 5555   4.324   5.804   9.491  2.1996  1.9940 -3.5804
   42CHL1  H19B 5556   4.474   5.738   9.436 -0.0761  1.6494  0.7406
   42CHL1  H19C 5557   4.330   5.749   9.328 -1.2325 -1.1393 -0.7862
   42CHL1    C1 5558   4.159   5.586   9.471  0.0184  0.6075 -0.7060
   42CHL1   H1A 5559   4.135   5.647   9.381 -0.4825  2.3437  0.5794
   42CHL1   H1B 5560   4.120   5.482   9.465 -1.3737  0.9234  1.9078
   42CHL1    C2 5561   4.106   5.662   9.593  0.7586 -0.7076 -0.4836
   42CHL1   H2A 5562   3.995   5.657   9.591  0.5844  1.3149  1.8683
   42CHL1   H2B 5563   4.137   5.768   9.583  2.4685 -1.5147 -4.3373
   42CHL1   C20 5564   4.646   5.252   8.927  0.4976 -0.3801  0.7916
   42CHL1   H20 5565   4.681   5.351   8.889 -0.9117 -0.2874 -0.3398
   42CHL1   C21 5566   4.517   5.228   8.846 -0.3822 -0.2176 -0.5969
   42CHL1  H21A 5567   4.447   5.314   8.853  1.1429  1.0574 -0.9796
   42CHL1  H21B 5568   4.470   5.130   8.868  1.8754 -0.7881  1.8521
   42CHL1  H21C 5569   4.541   5.230   8.738 -0.7575  0.8222 -0.6643
   42CHL1   C22 5570   4.758   5.152   8.879 -0.7753  0.1546 -0.6215
   42CHL1  H22A 5571   4.747   5.155   8.769 -0.4826 -1.3178 -0.7028
   42CHL1  H22B 5572   4.856   5.181   8.923 -1.3010  1.0395  0.0051
   42CHL1   C23 5573   4.730   5.011   8.929 -0.7476  0.1677 -0.3127
   42CHL1  H23A 5574   4.708   4.998   9.037 -1.2704  1.1760 -0.2897
   42CHL1  H23B 5575   4.639   4.971   8.879 -1.8947  1.1787  0.9160
   42CHL1   C24 5576   4.844   4.916   8.883 -0.1693  0.1475 -0.0347
   42CHL1  H24A 5577   4.845   4.902   8.772 -1.3206 -0.0165 -0.0221
   42CHL1  H24B 5578   4.940   4.960   8.918  0.5667 -1.1227 -0.4361
   42CHL1   C25 5579   4.841   4.778   8.951  0.1601  0.5766 -0.1503
   42CHL1   H25 5580   4.920   4.718   8.900  1.4570  2.4330 -0.4008
   42CHL1   C26 5581   4.871   4.783   9.099 -0.0037 -0.2412  0.5143
   42CHL1  H26A 5582   4.839   4.691   9.153  0.7406 -0.4990  0.5155
   42CHL1  H26B 5583   4.977   4.800   9.127 -0.1515 -1.7299  2.0476
   42CHL1  H26C 5584   4.820   4.863   9.158 -0.6229  0.1615 -0.5600
   42CHL1   C27 5585   4.718   4.699   8.934 -0.1298 -0.3687 -0.2366
   42CHL1  H27A 5586   4.624   4.737   8.980 -0.1256  0.1699 -0.6675
   42CHL1  H27B 5587   4.685   4.685   8.829 -3.2510 -0.6348  0.7155
   42CHL1  H27C 5588   4.739   4.596   8.972  0.3404  0.3928  1.6236
   43CHL1    C3 5589   5.003   5.681   9.867  0.0626 -0.2974 -0.2577
   43CHL1    H3 5590   5.098   5.738   9.855  0.5523 -1.3223 -1.3151
   43CHL1    O3 5591   5.025   5.625  10.001 -0.4840  0.0166  0.2606
   43CHL1   H3' 5592   4.957   5.559  10.019 -0.7124  0.9729  3.0451
   43CHL1    C4 5593   4.889   5.774   9.864  0.4199  0.6181 -0.2781
   43CHL1   H4A 5594   4.792   5.721   9.874  0.6414  0.2131 -0.2737
   43CHL1   H4B 5595   4.889   5.848   9.947  1.2494  0.6669 -0.3151
   43CHL1    C5 5596   4.878   5.831   9.721  0.0229  0.3329  0.0935
   43CHL1    C6 5597   4.882   5.970   9.708  1.1062 -0.6800 -0.0628
   43CHL1    H6 5598   4.897   6.035   9.796 -3.0042  0.3743 -0.0544
   43CHL1    C7 5599   4.870   6.054   9.586 -0.0917  0.2526 -0.2123
   43CHL1   H7A 5600   4.803   6.142   9.599  1.5425  1.6892 -1.2548
   43CHL1   H7B 5601   4.971   6.095   9.563  0.5527  0.1515  2.2118
   43CHL1    C8 5602   4.832   5.965   9.467  0.3733 -0.2223  0.2001
   43CHL1    H8 5603   4.722   5.947   9.472  0.5982 -1.2210  2.8081
   43CHL1   C14 5604   4.868   6.032   9.334  0.1699  0.2522  0.2651
   43CHL1   H14 5605   4.979   6.033   9.326  0.2244  3.1701  0.8597
   43CHL1   C15 5606   4.841   6.179   9.297  0.8766  0.4684 -0.8524
   43CHL1  H15A 5607   4.735   6.200   9.322  1.6313  2.8913  0.4938
   43CHL1  H15B 5608   4.897   6.252   9.359 -0.9947  2.2339 -1.1878
   43CHL1   C16 5609   4.863   6.207   9.152  0.5957  0.4899  1.0598
   43CHL1  H16A 5610   4.770   6.249   9.107  0.2378  0.3374  1.6593
   43CHL1  H16B 5611   4.952   6.267   9.123 -0.7229  1.5474 -0.9930
   43CHL1   C17 5612   4.885   6.059   9.104 -0.4001  0.3773 -0.0181
   43CHL1   H17 5613   4.995   6.053   9.117 -0.1623 -0.2904 -2.1453
   43CHL1   C13 5614   4.821   5.970   9.201  0.4756  0.3378 -0.7586
   43CHL1   C18 5615   4.665   5.975   9.182 -1.0587  0.1199 -0.5022
   43CHL1  H18A 5616   4.612   6.045   9.251 -0.3320 -1.1604  1.4065
   43CHL1  H18B 5617   4.639   6.021   9.084 -0.8015  1.2309 -0.0541
   43CHL1  H18C 5618   4.631   5.870   9.198  1.5510 -0.4797  1.4918
   43CHL1   C12 5619   4.871   5.822   9.199  0.3659  0.1276 -0.5155
   43CHL1  H12A 5620   4.837   5.768   9.108 -1.8427 -1.8146  1.3870
   43CHL1  H12B 5621   4.981   5.819   9.211  0.1712 -1.5024  1.1157
   43CHL1   C11 5622   4.830   5.756   9.331 -0.2562  0.0867 -0.2456
   43CHL1  H11A 5623   4.719   5.759   9.333 -0.2786 -0.7266  2.5905
   43CHL1  H11B 5624   4.866   5.651   9.329  0.0002  0.1917 -1.1411
   43CHL1    C9 5625   4.891   5.821   9.459  0.5893  0.2395 -0.1672
   43CHL1    H9 5626   5.000   5.834   9.445  0.6524  0.0390  0.1462
   43CHL1   C10 5627   4.871   5.740   9.597 -0.2739 -0.7303 -0.2781
   43CHL1   C19 5628   4.731   5.674   9.597 -0.7140  0.3064  0.3674
   43CHL1  H19A 5629   4.711   5.617   9.503  0.3871  0.4755  0.0282
   43CHL1  H19B 5630   4.701   5.617   9.688 -1.4924 -1.7963 -1.1493
   43CHL1  H19C 5631   4.649   5.749   9.594 -0.7016  0.3063 -0.0022
   43CHL1    C1 5632   4.978   5.629   9.613  0.4284  0.8307  0.1223
   43CHL1   H1A 5633   4.969   5.551   9.535  2.4558  1.5112 -0.8388
   43CHL1   H1B 5634   5.074   5.681   9.596 -0.4899  2.4353 -0.2697
   43CHL1    C2 5635   4.996   5.565   9.758 -0.1247  0.7593  0.4709
   43CHL1   H2A 5636   5.098   5.521   9.751  0.2789  1.9075 -1.2957
   43CHL1   H2B 5637   4.915   5.494   9.783  0.3645  0.2453  0.6030
   43CHL1   C20 5638   4.870   6.019   8.953 -0.0226 -0.3216 -0.6083
   43CHL1   H20 5639   4.790   5.943   8.940 -1.0298  0.3821  1.3159
   43CHL1   C21 5640   5.000   5.954   8.902  0.0125 -0.1252 -0.0247
   43CHL1  H21A 5641   4.983   5.922   8.798  5.0303  1.5723 -1.5465
   43CHL1  H21B 5642   5.020   5.870   8.973 -2.4451  0.1650  1.0510
   43CHL1  H21C 5643   5.089   6.020   8.898  0.3305 -0.4302  1.3877
   43CHL1   C22 5644   4.829   6.125   8.845 -0.6045 -0.3767 -0.5318
   43CHL1  H22A 5645   4.811   6.221   8.898 -1.6620 -1.3126  0.8573
   43CHL1  H22B 5646   4.910   6.124   8.770 -1.1045  0.3113 -1.0922
   43CHL1   C23 5647   4.699   6.086   8.769  0.4937 -0.2043 -0.2599
   43CHL1  H23A 5648   4.705   5.980   8.737  0.0493  0.2616 -1.8976
   43CHL1  H23B 5649   4.610   6.088   8.836 -0.3239 -2.4132 -1.2071
   43CHL1   C24 5650   4.678   6.183   8.652 -0.1690 -0.3140 -0.3054
   43CHL1  H24A 5651   4.668   6.288   8.687 -1.2898 -0.8864  1.1772
   43CHL1  H24B 5652   4.773   6.187   8.595 -0.8385  0.2083 -1.4068
   43CHL1   C25 5653   4.566   6.136   8.560 -0.8851 -0.2044 -0.4940
   43CHL1   H25 5654   4.597   6.035   8.526  1.8322  0.2061  0.5977
   43CHL1   C26 5655   4.429   6.129   8.625  0.1541  0.0320 -0.0236
   43CHL1  H26A 5656   4.418   6.022   8.654  1.5566 -0.2415 -0.4385
   43CHL1  H26B 5657   4.413   6.203   8.706  1.5736  0.3969 -0.0731
   43CHL1  H26C 5658   4.344   6.138   8.554  0.0755  0.1659  0.0876
   43CHL1   C27 5659   4.554   6.237   8.441  0.8323 -0.2464 -0.3546
   43CHL1  H27A 5660   4.510   6.329   8.485 -0.1385 -1.4746  1.3559
   43CHL1  H27B 5661   4.645   6.243   8.378 -0.0213  2.2924 -1.3921
   43CHL1  H27C 5662   4.479   6.192   8.373 -0.6244 -0.9467  1.6433
   44CHL1    C3 5663   4.969   6.636  10.299 -0.1063  0.1134 -0.3993
   44CHL1    H3 5664   4.983   6.743  10.271 -0.9195  0.1112 -0.8524
   44CHL1    O3 5665   4.937   6.616  10.440  0.7377  0.2041 -0.6108
   44CHL1   H3' 5666   4.917   6.701  10.480  0.7896  0.9029 -2.0486
   44CHL1    C4 5667   4.856   6.572  10.215 -0.3327  1.1150 -0.4420
   44CHL1   H4A 5668   4.860   6.465  10.244  3.0001  0.2831 -3.5474
   44CHL1   H4B 5669   4.756   6.607  10.251 -0.0726  0.2971  1.1169
   44CHL1    C5 5670   4.895   6.597  10.073 -0.6128  0.5676  0.0359
   44CHL1    C6 5671   4.813   6.667   9.989 -0.3162  0.5797 -0.3701
   44CHL1    H6 5672   4.716   6.701  10.028  0.8219  1.3218  1.8858
   44CHL1    C7 5673   4.846   6.681   9.842  1.0039  0.7131  0.3719
   44CHL1   H7A 5674   4.750   6.667   9.789  1.4121 -0.1804 -0.1325
   44CHL1   H7B 5675   4.884   6.784   9.824 -1.5237  2.1360  2.7956
   44CHL1    C8 5676   4.949   6.579   9.791  0.5431  0.5385 -0.3854
   44CHL1    H8 5677   4.896   6.481   9.786  1.9020 -0.2015 -0.6176
   44CHL1   C14 5678   5.000   6.627   9.656  0.7572  0.2935 -0.0259
   44CHL1   H14 5679   5.047   6.726   9.679 -0.2048  0.8290 -0.3307
   44CHL1   C15 5680   4.898   6.649   9.544  0.1574  0.4621  0.0434
   44CHL1  H15A 5681   4.823   6.568   9.545  2.1290 -1.4011  1.4664
   44CHL1  H15B 5682   4.847   6.747   9.557  0.6256  0.7483 -0.2521
   44CHL1   C16 5683   4.974   6.636   9.414  0.2504  0.3791  0.9254
   44CHL1  H16A 5684   4.916   6.565   9.352 -0.1918 -0.7234  2.5788
   44CHL1  H16B 5685   4.984   6.731   9.357 -0.3018 -0.8200 -1.2301
   44CHL1   C17 5686   5.117   6.589   9.452  0.1003  0.5622 -0.2001
   44CHL1   H17 5687   5.172   6.686   9.445 -0.2026  0.7743  0.3685
   44CHL1   C13 5688   5.111   6.531   9.597  0.7116 -0.2658 -0.3148
   44CHL1   C18 5689   5.061   6.390   9.590  0.3725 -0.3281 -0.2414
   44CHL1  H18A 5690   5.140   6.329   9.541 -0.6366  0.0477 -2.4225
   44CHL1  H18B 5691   5.044   6.347   9.691 -0.0335  0.3797 -0.0049
   44CHL1  H18C 5692   4.966   6.369   9.535  0.8953 -2.3597 -0.3991
   44CHL1   C12 5693   5.229   6.541   9.684  1.0366 -0.3005  0.0627
   44CHL1  H12A 5694   5.301   6.466   9.645  0.7663  1.1723 -3.5471
   44CHL1  H12B 5695   5.276   6.642   9.691 -0.9660  0.5326  2.0359
   44CHL1   C11 5696   5.191   6.493   9.826  0.3920  0.1138  0.5597
   44CHL1  H11A 5697   5.169   6.384   9.825 -1.7828  0.5483 -1.1904
   44CHL1  H11B 5698   5.286   6.503   9.883  2.5759 -2.4280 -2.4393
   44CHL1    C9 5699   5.068   6.577   9.886  0.3462  0.5847 -0.3398
   44CHL1    H9 5700   5.100   6.683   9.898 -2.4972  1.2584  1.6171
   44CHL1   C10 5701   5.032   6.532  10.030  0.3820  0.6560 -1.0134
   44CHL1   C19 5702   5.036   6.382  10.021  0.2993  0.6229 -0.3210
   44CHL1  H19A 5703   4.973   6.321  10.089  0.1358 -0.0763 -1.0845
   44CHL1  H19B 5704   4.996   6.359   9.919 -0.0629 -0.9345  0.1603
   44CHL1  H19C 5705   5.138   6.338  10.012 -0.6938 -1.7936 -0.1905
   44CHL1    C1 5706   5.151   6.583  10.117 -0.0657  0.1392 -0.4236
   44CHL1   H1A 5707   5.233   6.513  10.091 -1.1920 -0.2916 -2.8955
   44CHL1   H1B 5708   5.182   6.689  10.101 -0.0065 -0.0733 -1.7983
   44CHL1    C2 5709   5.112   6.573  10.267  0.0599  0.4377  0.0526
   44CHL1   H2A 5710   5.183   6.606  10.347  1.4673 -2.2717 -0.0144
   44CHL1   H2B 5711   5.093   6.467  10.296 -0.9140  1.0399  1.6925
   44CHL1   C20 5712   5.182   6.501   9.345  0.8291  0.3002  0.4469
   44CHL1   H20 5713   5.136   6.400   9.335  0.5972  0.5207 -0.8784
   44CHL1   C21 5714   5.330   6.492   9.374 -0.2229 -0.2736  0.0754
   44CHL1  H21A 5715   5.376   6.593   9.385 -0.1164 -0.4281  1.0281
   44CHL1  H21B 5716   5.383   6.441   9.290 -1.8468 -1.8132 -0.0352
   44CHL1  H21C 5717   5.350   6.424   9.459  0.1429 -1.2316 -0.7589
   44CHL1   C22 5718   5.153   6.567   9.201 -0.0439 -0.2186  0.1680
   44CHL1  H22A 5719   5.046   6.556   9.175  0.7270 -1.3345 -2.6489
   44CHL1  H22B 5720   5.167   6.677   9.203 -2.0325  0.0584 -0.0659
   44CHL1   C23 5721   5.237   6.507   9.092 -0.1120 -0.2632  0.8721
   44CHL1  H23A 5722   5.340   6.548   9.095  0.5007 -1.7216  0.1009
   44CHL1  H23B 5723   5.248   6.397   9.105 -1.5858 -0.4634  0.4371
   44CHL1   C24 5724   5.165   6.533   8.952 -1.1252  0.3538 -0.4293
   44CHL1  H24A 5725   5.068   6.480   8.959 -0.4422 -0.5619  3.0320
   44CHL1  H24B 5726   5.146   6.641   8.934 -0.8347  0.3929 -0.5124
   44CHL1   C25 5727   5.234   6.469   8.831 -0.4106  0.3264  0.5514
   44CHL1   H25 5728   5.173   6.496   8.742 -0.3320  2.6600  1.1646
   44CHL1   C26 5729   5.365   6.530   8.810 -0.3787  0.5669  0.0814
   44CHL1  H26A 5730   5.437   6.509   8.892 -1.9098 -0.4088  1.1941
   44CHL1  H26B 5731   5.420   6.481   8.727 -0.5733 -2.1575  1.5317
   44CHL1  H26C 5732   5.370   6.639   8.786 -0.6060  1.0512  2.1976
   44CHL1   C27 5733   5.221   6.315   8.839 -0.7458  0.4335 -0.2695
   44CHL1  H27A 5734   5.115   6.284   8.841  0.1414 -2.7540  0.3026
   44CHL1  H27B 5735   5.267   6.274   8.747 -0.9673 -1.7899  0.5920
   44CHL1  H27C 5736   5.274   6.266   8.924 -2.3761 -2.9093 -1.0990
   45CHL1    C3 5737   1.872   5.205  10.125  0.4905  0.8064 -0.0275
   45CHL1    H3 5738   1.876   5.316  10.120  1.8303  0.7710  0.0695
   45CHL1    O3 5739   1.876   5.151  10.253 -0.2116 -0.0289  0.1006
   45CHL1   H3' 5740   1.960   5.182  10.287  0.1021 -1.0798  0.3054
   45CHL1    C4 5741   1.748   5.153  10.044 -0.7207  0.1303 -0.8441
   45CHL1   H4A 5742   1.739   5.044  10.063 -2.1072  0.0542 -1.7988
   45CHL1   H4B 5743   1.662   5.212  10.083  1.0697  0.7078  2.4043
   45CHL1    C5 5744   1.766   5.168   9.892 -0.7820 -0.6373 -0.6515
   45CHL1    C6 5745   1.680   5.237   9.822  0.4368 -0.3176  0.6268
   45CHL1    H6 5746   1.596   5.294   9.862  0.6515  0.8649 -0.5551
   45CHL1    C7 5747   1.680   5.254   9.669  0.5645  0.0791 -0.4934
   45CHL1   H7A 5748   1.580   5.220   9.633  0.3031  1.1148 -0.7734
   45CHL1   H7B 5749   1.697   5.360   9.640  0.9219 -0.5629 -2.7122
   45CHL1    C8 5750   1.782   5.159   9.599 -1.0192 -0.8297 -0.5136
   45CHL1    H8 5751   1.815   5.220   9.511 -0.6661  0.1223  0.2727
   45CHL1   C14 5752   1.727   5.028   9.541  0.4874  0.1149  0.4088
   45CHL1   H14 5753   1.675   4.974   9.623  0.4027 -0.0076  0.2739
   45CHL1   C15 5754   1.612   5.038   9.428 -0.5043  0.4994 -0.9257
   45CHL1  H15A 5755   1.557   4.941   9.423 -1.8527  1.1873  0.1954
   45CHL1  H15B 5756   1.542   5.120   9.455 -1.0831  0.4136 -2.1611
   45CHL1   C16 5757   1.687   5.053   9.297  0.2008  0.6273 -0.5166
   45CHL1  H16A 5758   1.634   4.994   9.219  2.3820  0.1633 -1.6879
   45CHL1  H16B 5759   1.696   5.156   9.258  2.0041  0.8195  0.3597
   45CHL1   C17 5760   1.831   4.989   9.326  0.3669 -0.4097  0.2041
   45CHL1   H17 5761   1.895   5.080   9.332  1.6674 -1.3897  1.4582
   45CHL1   C13 5762   1.826   4.934   9.471 -0.1201 -0.7121 -0.6328
   45CHL1   C18 5763   1.766   4.787   9.471  0.0867  0.4343  0.2722
   45CHL1  H18A 5764   1.673   4.790   9.409  1.2621 -2.4039 -1.7311
   45CHL1  H18B 5765   1.844   4.721   9.428 -0.3469 -2.0357  3.1352
   45CHL1  H18C 5766   1.743   4.758   9.576 -1.6358  2.0822  0.3835
   45CHL1   C12 5767   1.962   4.922   9.548 -0.0788 -0.4610  0.0728
   45CHL1  H12A 5768   1.937   4.845   9.624  2.5778 -4.1741 -2.6542
   45CHL1  H12B 5769   2.042   4.872   9.490  0.1960  0.2349 -0.1611
   45CHL1   C11 5770   2.013   5.057   9.602 -0.0839 -0.0963  0.4942
   45CHL1  H11A 5771   2.107   5.048   9.660  0.6403  1.6021 -0.3492
   45CHL1  H11B 5772   2.032   5.123   9.514 -0.6611  1.9191  1.8285
   45CHL1    C9 5773   1.908   5.143   9.681 -0.0069  0.2326  0.3202
   45CHL1    H9 5774   1.951   5.245   9.674  1.5596 -0.5330 -2.1102
   45CHL1   C10 5775   1.889   5.106   9.825  0.4237 -0.3018  0.9795
   45CHL1   C19 5776   1.869   4.953   9.845 -0.1222  0.0813  0.3796
   45CHL1  H19A 5777   1.848   4.913   9.946  1.4336 -2.6774 -0.3096
   45CHL1  H19B 5778   1.787   4.914   9.781  0.0707  3.1513 -1.8842
   45CHL1  H19C 5779   1.967   4.905   9.825 -1.6650 -2.7018 -0.7844
   45CHL1    C1 5780   2.009   5.163   9.909 -0.0261  0.5379 -0.0304
   45CHL1   H1A 5781   2.104   5.108   9.890  0.3025  0.8945  0.5745
   45CHL1   H1B 5782   2.032   5.270   9.890 -0.0462  0.2099 -2.0665
   45CHL1    C2 5783   2.003   5.158  10.064  0.4909 -0.2426  0.4071
   45CHL1   H2A 5784   2.093   5.209  10.105  1.3373  0.2575 -2.0114
   45CHL1   H2B 5785   2.021   5.049  10.077 -0.1468 -0.8050 -2.8876
   45CHL1   C20 5786   1.877   4.897   9.202  0.6971  0.0529  0.2101
   45CHL1   H20 5787   1.800   4.817   9.202  0.5644  0.1800 -0.1045
   45CHL1   C21 5788   2.013   4.846   9.240 -0.0011  0.2049 -0.4693
   45CHL1  H21A 5789   2.068   4.813   9.150 -0.6467 -1.0564 -0.4048
   45CHL1  H21B 5790   1.998   4.761   9.309 -0.8573  0.0090 -0.8809
   45CHL1  H21C 5791   2.073   4.925   9.290  0.5681  0.7039 -1.9133
   45CHL1   C22 5792   1.892   4.967   9.064  0.0415 -0.1944  0.1110
   45CHL1  H22A 5793   1.795   5.020   9.053  0.9404  1.4759  0.0384
   45CHL1  H22B 5794   1.966   5.048   9.082 -0.2629 -0.1911  1.4711
   45CHL1   C23 5795   1.929   4.883   8.946  0.5165 -0.6814 -0.0872
   45CHL1  H23A 5796   2.026   4.829   8.960  0.6366 -0.1434  1.1597
   45CHL1  H23B 5797   1.847   4.810   8.929  0.2479 -0.0641 -1.5034
   45CHL1   C24 5798   1.946   4.959   8.808 -0.0486  0.1358 -0.5767
   45CHL1  H24A 5799   1.848   5.010   8.799 -0.0093  0.2451 -0.3871
   45CHL1  H24B 5800   2.024   5.038   8.811  0.8114 -0.7405  0.2787
   45CHL1   C25 5801   1.957   4.874   8.679 -0.4053  0.2472  0.9339
   45CHL1   H25 5802   2.055   4.820   8.684 -0.5657 -0.6301 -3.4312
   45CHL1   C26 5803   1.854   4.760   8.667 -0.2193 -1.0878 -0.7442
   45CHL1  H26A 5804   1.859   4.702   8.572  0.7262 -0.6571 -0.9647
   45CHL1  H26B 5805   1.861   4.678   8.741  0.6524 -1.4848 -1.2524
   45CHL1  H26C 5806   1.754   4.807   8.670  0.8124  1.0245  1.6471
   45CHL1   C27 5807   1.949   4.966   8.558  0.6829  0.1015 -0.3413
   45CHL1  H27A 5808   1.887   5.053   8.588 -1.3257 -0.7368 -1.9624
   45CHL1  H27B 5809   2.045   5.017   8.531  3.1675 -3.6397  1.0653
   45CHL1  H27C 5810   1.928   4.907   8.466  0.5062  0.3074 -0.4369
   46CHL1    C3 5811   4.224   2.599   9.820  0.2332 -0.4301  0.3688
   46CHL1    H3 5812   4.187   2.495   9.812  1.3648 -0.6928 -1.9470
   46CHL1    O3 5813   4.248   2.630   9.954  0.0662 -0.1796 -0.1137
   46CHL1   H3' 5814   4.158   2.626   9.988  1.0510  0.6679  2.7075
   46CHL1    C4 5815   4.362   2.606   9.748  0.0607 -0.3885 -0.5411
   46CHL1   H4A 5816   4.396   2.711   9.758  0.6247 -0.6428  0.3313
   46CHL1   H4B 5817   4.423   2.533   9.805 -0.9034 -2.0403 -1.6030
   46CHL1    C5 5818   4.347   2.570   9.604 -0.0036 -0.3125  0.6346
   46CHL1    C6 5819   4.433   2.487   9.545  0.1566  0.6369 -0.8771
   46CHL1    H6 5820   4.508   2.432   9.603  0.4751 -0.5228 -2.3552
   46CHL1    C7 5821   4.417   2.450   9.401 -0.3462 -0.6918  0.4943
   46CHL1   H7A 5822   4.515   2.456   9.349 -1.1461 -2.1846 -1.2147
   46CHL1   H7B 5823   4.385   2.344   9.393 -1.8179 -0.1370 -1.5577
   46CHL1    C8 5824   4.314   2.541   9.315  0.2595  0.1921 -0.5198
   46CHL1    H8 5825   4.363   2.639   9.298  1.6352 -1.0952 -4.6265
   46CHL1   C14 5826   4.288   2.470   9.189  0.1570 -0.0762  0.0449
   46CHL1   H14 5827   4.237   2.375   9.216 -0.6400  0.3426  0.0291
   46CHL1   C15 5828   4.406   2.415   9.102  0.1950 -0.5767  0.0892
   46CHL1  H15A 5829   4.487   2.489   9.087 -1.7247  0.8385 -4.1908
   46CHL1  H15B 5830   4.439   2.315   9.136 -1.6771 -1.6517 -1.1090
   46CHL1   C16 5831   4.340   2.393   8.967  0.0597  0.1122  0.4300
   46CHL1  H16A 5832   4.398   2.447   8.889 -0.4957 -1.4644 -1.1172
   46CHL1  H16B 5833   4.335   2.286   8.935 -2.0276  0.0319  0.9629
   46CHL1   C17 5834   4.188   2.449   8.980 -0.2979  0.0073  0.7797
   46CHL1   H17 5835   4.136   2.360   9.022 -0.3561  0.4630  1.6800
   46CHL1   C13 5836   4.198   2.548   9.099  0.4238  0.0592 -0.3794
   46CHL1   C18 5837   4.265   2.682   9.056  0.0733 -0.2354 -0.1763
   46CHL1  H18A 5838   4.287   2.731   9.153  0.9725  1.5315 -1.2415
   46CHL1  H18B 5839   4.353   2.661   8.991  0.0891 -0.0539 -0.2160
   46CHL1  H18C 5840   4.178   2.731   9.008 -1.4755  0.1206  2.9338
   46CHL1   C12 5841   4.062   2.582   9.170  0.3548  0.1405  0.0854
   46CHL1  H12A 5842   3.992   2.640   9.107 -0.2086 -0.9607 -0.3281
   46CHL1  H12B 5843   4.007   2.488   9.190  0.5686 -0.1510 -0.6676
   46CHL1   C11 5844   4.086   2.641   9.308 -0.6326 -0.2412  0.6808
   46CHL1  H11A 5845   4.109   2.749   9.296  0.6712 -0.7036 -1.1755
   46CHL1  H11B 5846   3.989   2.631   9.361 -1.5289  1.0078 -0.6780
   46CHL1    C9 5847   4.188   2.570   9.400 -0.7994 -0.2392  0.1555
   46CHL1    H9 5848   4.139   2.474   9.424  2.1957 -2.0884 -0.9336
   46CHL1   C10 5849   4.231   2.643   9.530  0.6736 -0.1686  0.7918
   46CHL1   C19 5850   4.285   2.783   9.504 -0.2883  0.2052 -0.0215
   46CHL1  H19A 5851   4.371   2.782   9.434 -0.2124 -0.6560  0.0752
   46CHL1  H19B 5852   4.208   2.849   9.459 -0.1648  0.2635 -0.1452
   46CHL1  H19C 5853   4.321   2.836   9.595 -1.1299 -0.0799  0.4834
   46CHL1    C1 5854   4.102   2.657   9.616 -0.3680 -0.2959  0.1488
   46CHL1   H1A 5855   4.034   2.730   9.567 -0.9727 -1.1865 -0.3701
   46CHL1   H1B 5856   4.045   2.561   9.617 -0.3697 -0.2873  2.1275
   46CHL1    C2 5857   4.129   2.700   9.758 -0.6561  0.1513  0.5166
   46CHL1   H2A 5858   4.037   2.686   9.819 -1.1507  0.9204 -0.0408
   46CHL1   H2B 5859   4.167   2.804   9.760 -0.6668  0.1367  1.8361
   46CHL1   C20 5860   4.110   2.498   8.854  0.1802 -0.2533  1.2166
   46CHL1   H20 5861   4.022   2.560   8.883  1.5679  1.6885  1.3630
   46CHL1   C21 5862   4.073   2.365   8.795  0.4357 -0.0415 -0.0326
   46CHL1  H21A 5863   3.992   2.314   8.851  0.7036  1.0621  1.3876
   46CHL1  H21B 5864   4.164   2.301   8.786  0.6623  0.2619  0.0828
   46CHL1  H21C 5865   4.021   2.380   8.698  0.1278 -0.5056  0.0595
   46CHL1   C22 5866   4.201   2.583   8.760  0.7447  0.7023  0.4175
   46CHL1  H22A 5867   4.227   2.678   8.811 -0.2182  0.9219  0.5093
   46CHL1  H22B 5868   4.292   2.532   8.723  1.4376  1.3516  1.2247
   46CHL1   C23 5869   4.109   2.630   8.643  0.4570 -0.1888  0.3391
   46CHL1  H23A 5870   4.080   2.543   8.581 -0.2508 -0.2896  0.8100
   46CHL1  H23B 5871   4.012   2.663   8.685  0.4635 -2.0049  1.8251
   46CHL1   C24 5872   4.183   2.740   8.565  0.1805 -0.8162 -0.9932
   46CHL1  H24A 5873   4.220   2.828   8.622 -1.3012  0.3305 -1.7806
   46CHL1  H24B 5874   4.270   2.689   8.519  0.5051 -0.2917 -0.9623
   46CHL1   C25 5875   4.091   2.784   8.454  0.1959 -0.0270 -0.2064
   46CHL1   H25 5876   4.153   2.850   8.390 -0.4231  0.5207 -0.2482
   46CHL1   C26 5877   4.058   2.670   8.352 -0.8424 -0.7491 -0.1327
   46CHL1  H26A 5878   4.145   2.608   8.322 -1.5223 -1.7562 -0.0645
   46CHL1  H26B 5879   3.978   2.602   8.389 -2.4700  1.7249  1.0358
   46CHL1  H26C 5880   4.012   2.726   8.268 -2.6810 -1.3545  0.4420
   46CHL1   C27 5881   3.966   2.865   8.481  0.0075  0.1280 -0.1836
   46CHL1  H27A 5882   3.874   2.812   8.514  1.1593 -1.5347  0.4580
   46CHL1  H27B 5883   3.989   2.932   8.567 -1.2236 -0.2355  0.4388
   46CHL1  H27C 5884   3.937   2.908   8.383  0.5876 -1.4421 -1.0542
   47CHL1    C3 5885   5.472   6.146  10.223 -0.8022 -0.8527 -0.2198
   47CHL1    H3 5886   5.576   6.115  10.199 -0.3021 -0.1931  1.0566
   47CHL1    O3 5887   5.461   6.195  10.356  0.2974  0.8825 -0.4873
   47CHL1   H3' 5888   5.368   6.208  10.373  0.6572  3.3573 -0.1652
   47CHL1    C4 5889   5.430   6.243  10.120 -0.7119  0.3657  0.9887
   47CHL1   H4A 5890   5.324   6.268  10.145 -1.0384 -0.1813  0.1807
   47CHL1   H4B 5891   5.490   6.334  10.142  2.1309 -1.8935  3.0102
   47CHL1    C5 5892   5.442   6.194   9.978 -0.0608  1.0349  0.0951
   47CHL1    C6 5893   5.530   6.251   9.887 -0.7514  0.7978  0.6318
   47CHL1    H6 5894   5.596   6.334   9.914  2.6278 -2.4860  2.9758
   47CHL1    C7 5895   5.537   6.212   9.739  0.3282 -0.0667  0.7449
   47CHL1   H7A 5896   5.536   6.301   9.672 -1.6822 -0.4302  0.2602
   47CHL1   H7B 5897   5.636   6.164   9.724  0.7794  0.9446  0.4095
   47CHL1    C8 5898   5.424   6.118   9.699  0.4673 -0.1100 -0.2914
   47CHL1    H8 5899   5.337   6.182   9.676  0.2906 -0.4732 -0.6415
   47CHL1   C14 5900   5.474   6.054   9.567  0.4627  0.4170 -0.3894
   47CHL1   H14 5901   5.568   6.001   9.591 -0.4197 -0.1492  1.9977
   47CHL1   C15 5902   5.506   6.150   9.446 -0.2492 -0.2676  0.4753
   47CHL1  H15A 5903   5.426   6.227   9.455 -0.6270 -0.7519  1.3802
   47CHL1  H15B 5904   5.610   6.189   9.441 -0.6750  1.3139  2.9086
   47CHL1   C16 5905   5.480   6.050   9.325  0.6416 -0.3061  0.5511
   47CHL1  H16A 5906   5.411   6.098   9.252  0.8466 -1.4201 -0.3705
   47CHL1  H16B 5907   5.580   6.040   9.279 -0.4616 -1.2768 -1.6949
   47CHL1   C17 5908   5.444   5.911   9.380  0.0268 -0.4077 -0.3153
   47CHL1   H17 5909   5.533   5.844   9.389 -1.3268 -2.5906 -2.5681
   47CHL1   C13 5910   5.386   5.946   9.520  0.3357  0.2971  0.1652
   47CHL1   C18 5911   5.245   6.007   9.493  0.1837  0.1296 -0.1517
   47CHL1  H18A 5912   5.249   6.099   9.430 -0.1716  1.6840  2.0539
   47CHL1  H18B 5913   5.181   5.930   9.446  0.4562  0.1533 -0.5746
   47CHL1  H18C 5914   5.200   6.040   9.589 -1.0186 -1.4497 -0.1655
   47CHL1   C12 5915   5.366   5.830   9.617  0.0547  0.0490  0.0144
   47CHL1  H12A 5916   5.278   5.765   9.597 -0.2980 -0.6327  3.4318
   47CHL1  H12B 5917   5.460   5.772   9.630  1.6992  2.4160 -1.0507
   47CHL1   C11 5918   5.335   5.885   9.759  0.3027  0.7986  0.0625
   47CHL1  H11A 5919   5.225   5.891   9.774  0.2706 -0.7362  0.5723
   47CHL1  H11B 5920   5.359   5.799   9.825 -0.3730  1.8481  1.6862
   47CHL1    C9 5921   5.413   6.003   9.808  0.0398  0.7433  0.2171
   47CHL1    H9 5922   5.520   5.979   9.822  0.1883  0.7080 -0.9458
   47CHL1   C10 5923   5.372   6.057   9.947  0.5340  0.0886 -0.1624
   47CHL1   C19 5924   5.220   6.081   9.951  0.3285 -0.5305  0.1389
   47CHL1  H19A 5925   5.158   5.992   9.925  1.3951 -0.9454 -1.0249
   47CHL1  H19B 5926   5.186   6.102  10.054 -2.6709 -1.8235 -0.5040
   47CHL1  H19C 5927   5.192   6.162   9.881  2.1184 -0.5760 -0.6442
   47CHL1    C1 5928   5.409   5.957  10.059  0.4940  0.5420 -0.1500
   47CHL1   H1A 5929   5.336   5.873  10.059  1.0451 -0.0124  2.4475
   47CHL1   H1B 5930   5.510   5.915  10.039  0.5348  1.5852 -2.2273
   47CHL1    C2 5931   5.395   6.016  10.200  0.3968  0.4280  0.4562
   47CHL1   H2A 5932   5.435   5.935  10.264  0.3271 -1.1181 -1.4207
   47CHL1   H2B 5933   5.287   6.023  10.227  0.1048  0.0375 -0.5731
   47CHL1   C20 5934   5.361   5.827   9.284  0.0668  0.5160  0.4013
   47CHL1   H20 5935   5.260   5.870   9.274  0.5056  1.4035 -0.3470
   47CHL1   C21 5936   5.344   5.682   9.334 -0.0509  0.3588 -0.1153
   47CHL1  H21A 5937   5.278   5.624   9.266 -0.3809  0.6596 -0.0513
   47CHL1  H21B 5938   5.292   5.675   9.432  0.9249  2.7894  0.6314
   47CHL1  H21C 5939   5.444   5.638   9.350 -0.2833 -0.3662 -0.6239
   47CHL1   C22 5940   5.420   5.816   9.143 -0.2145  0.2878  0.9669
   47CHL1  H22A 5941   5.358   5.741   9.089  0.7386  0.4568 -0.3826
   47CHL1  H22B 5942   5.395   5.907   9.084 -2.5509  0.3157  1.9079
   47CHL1   C23 5943   5.574   5.772   9.126 -0.4582 -0.4583 -0.4959
   47CHL1  H23A 5944   5.621   5.857   9.179 -3.0489  0.9734 -0.3654
   47CHL1  H23B 5945   5.583   5.671   9.172  0.3295 -1.2624 -2.3579
   47CHL1   C24 5946   5.623   5.756   8.978  0.4478  0.8898  0.1459
   47CHL1  H24A 5947   5.568   5.666   8.942  1.5534  1.0480 -1.9834
   47CHL1  H24B 5948   5.591   5.847   8.921 -1.5241  1.0131  1.3781
   47CHL1   C25 5949   5.772   5.749   8.949  0.3643  0.2253 -0.2522
   47CHL1   H25 5950   5.818   5.840   8.994 -0.4492  0.4824  0.0701
   47CHL1   C26 5951   5.837   5.624   9.007  0.6741 -0.2048  0.2482
   47CHL1  H26A 5952   5.810   5.619   9.115 -0.7654  1.3420 -0.0130
   47CHL1  H26B 5953   5.946   5.637   8.990  0.4593 -0.2678 -1.2788
   47CHL1  H26C 5954   5.790   5.532   8.964  0.5174 -0.5374  1.1192
   47CHL1   C27 5955   5.811   5.753   8.803  0.6660 -0.4760 -0.0438
   47CHL1  H27A 5956   5.919   5.777   8.800  0.2554  2.3145  3.7692
   47CHL1  H27B 5957   5.789   5.662   8.742 -0.5922 -0.4163  0.3118
   47CHL1  H27C 5958   5.764   5.843   8.757 -1.5079 -0.8063  1.4340
   48CHL1    C3 5959   5.862   6.376  10.410  0.2410  0.2253  0.2158
   48CHL1    H3 5960   5.926   6.290  10.439 -0.9749 -0.9176 -0.4498
   48CHL1    O3 5961   5.791   6.406  10.529  0.2682  0.7484 -0.3414
   48CHL1   H3' 5962   5.714   6.348  10.532 -2.1945  3.9465  0.6078
   48CHL1    C4 5963   5.950   6.491  10.361  0.0436 -0.4743 -0.6677
   48CHL1   H4A 5964   5.879   6.573  10.340 -2.8286 -1.8172  3.2319
   48CHL1   H4B 5965   6.018   6.524  10.442 -1.0503 -1.3989  0.6466
   48CHL1    C5 5966   6.027   6.457  10.236 -0.2885  0.2539  0.2876
   48CHL1    C6 5967   6.162   6.454  10.252 -0.1225 -0.0065 -0.3670
   48CHL1    H6 5968   6.204   6.463  10.353 -1.0664 -0.1843  0.0457
   48CHL1    C7 5969   6.251   6.438  10.135 -0.1604  0.2840 -0.4978
   48CHL1   H7A 5970   6.342   6.501  10.130 -0.1375  0.3481  0.6106
   48CHL1   H7B 5971   6.286   6.333  10.136  0.7066  0.5508 -1.4968
   48CHL1    C8 5972   6.175   6.446   9.998 -0.0633 -0.2332 -0.4892
   48CHL1    H8 5973   6.158   6.555   9.986 -0.6593  0.1526  3.0678
   48CHL1   C14 5974   6.257   6.391   9.885 -1.1288 -0.2693  0.7853
   48CHL1   H14 5975   6.262   6.281   9.901 -1.7669 -0.6779 -1.6135
   48CHL1   C15 5976   6.405   6.437   9.868  0.0287  0.3935 -0.3386
   48CHL1  H15A 5977   6.422   6.546   9.882 -1.2228  0.2431  2.8721
   48CHL1  H15B 5978   6.470   6.391   9.946  0.6502  0.8103 -0.6030
   48CHL1   C16 5979   6.441   6.406   9.725 -0.4878 -0.0095 -0.2741
   48CHL1  H16A 5980   6.468   6.502   9.675  0.2033 -0.7839 -1.4044
   48CHL1  H16B 5981   6.532   6.343   9.712  1.4507  1.8700  3.2728
   48CHL1   C17 5982   6.312   6.346   9.664  0.2646 -0.0503  0.3903
   48CHL1   H17 5983   6.302   6.237   9.682  0.5129 -0.5136 -2.0089
   48CHL1   C13 5984   6.191   6.401   9.747 -1.6902  0.0575  0.2277
   48CHL1   C18 5985   6.154   6.551   9.705 -0.3744  1.4196 -0.3992
   48CHL1  H18A 5986   6.101   6.544   9.608 -1.2451  2.4235 -0.0142
   48CHL1  H18B 5987   6.090   6.607   9.778 -0.8584  0.7260 -0.2854
   48CHL1  H18C 5988   6.251   6.602   9.686 -0.8726  1.8829 -1.7911
   48CHL1   C12 5989   6.056   6.323   9.750 -0.1980  0.4264 -0.0980
   48CHL1  H12A 5990   6.002   6.317   9.653  0.3947 -1.4270 -0.3404
   48CHL1  H12B 5991   6.088   6.218   9.766  2.1914  1.3295  1.3271
   48CHL1   C11 5992   5.965   6.372   9.863 -0.4900 -0.1526 -0.9625
   48CHL1  H11A 5993   5.938   6.473   9.826  3.4904  0.4489 -2.5209
   48CHL1  H11B 5994   5.881   6.302   9.882  0.6756 -0.9659  1.4290
   48CHL1    C9 5995   6.040   6.373  10.005  0.2713  0.3654  0.5572
   48CHL1    H9 5996   6.064   6.270  10.037  0.8686  0.1035 -0.7117
   48CHL1   C10 5997   5.943   6.417  10.123 -0.6109  0.4412 -0.1049
   48CHL1   C19 5998   5.864   6.534  10.079 -0.2135 -0.7519  0.4517
   48CHL1  H19A 5999   5.783   6.493  10.015  0.3053 -0.2872 -0.5210
   48CHL1  H19B 6000   5.809   6.591  10.156  1.2495  0.5003  0.5836
   48CHL1  H19C 6001   5.928   6.606  10.023 -0.0387  0.1956  1.8475
   48CHL1    C1 6002   5.857   6.295  10.170 -0.4268  0.1538  0.1826
   48CHL1   H1A 6003   5.796   6.263  10.082  0.0213 -0.7834  0.2014
   48CHL1   H1B 6004   5.918   6.206  10.198 -1.8568 -1.3062 -1.2254
   48CHL1    C2 6005   5.769   6.332  10.292  0.0946  0.2925  0.0598
   48CHL1   H2A 6006   5.717   6.238  10.322  0.4529  0.5132  1.4128
   48CHL1   H2B 6007   5.686   6.403  10.272  0.5262  0.8997  0.4503
   48CHL1   C20 6008   6.305   6.356   9.514  0.0634 -0.3401  0.6673
   48CHL1   H20 6009   6.303   6.462   9.481 -1.2998  0.0940  2.1032
   48CHL1   C21 6010   6.180   6.279   9.445  0.4217 -0.1820 -0.4475
   48CHL1  H21A 6011   6.176   6.299   9.335  1.8812 -1.0027 -0.6633
   48CHL1  H21B 6012   6.081   6.311   9.484 -0.8051 -2.2051 -1.8182
   48CHL1  H21C 6013   6.198   6.171   9.463  0.4334 -0.2491 -0.8557
   48CHL1   C22 6014   6.438   6.299   9.452  0.3707 -0.1441  0.0644
   48CHL1  H22A 6015   6.528   6.356   9.485  1.5306 -2.5739  1.1988
   48CHL1  H22B 6016   6.448   6.192   9.478 -2.1356 -0.5428 -0.4582
   48CHL1   C23 6017   6.441   6.315   9.299  0.4371  0.6520 -0.0706
   48CHL1  H23A 6018   6.366   6.262   9.237  1.8010 -1.6945  0.2411
   48CHL1  H23B 6019   6.422   6.421   9.271 -3.7288  0.4131  1.5199
   48CHL1   C24 6020   6.585   6.281   9.255 -0.0380 -0.7454  0.1558
   48CHL1  H24A 6021   6.649   6.357   9.306 -0.4621 -0.8254  0.8192
   48CHL1  H24B 6022   6.612   6.182   9.298 -0.7831 -1.3002 -0.6625
   48CHL1   C25 6023   6.606   6.281   9.106 -0.2314 -0.3332  0.2826
   48CHL1   H25 6024   6.565   6.376   9.064 -0.0506 -0.9773 -1.4035
   48CHL1   C26 6025   6.752   6.275   9.075 -0.1923  0.0707  0.4621
   48CHL1  H26A 6026   6.767   6.312   8.971 -1.4021 -0.5855  0.0417
   48CHL1  H26B 6027   6.815   6.341   9.138  0.4374  0.0642 -0.1522
   48CHL1  H26C 6028   6.797   6.174   9.088 -0.0694 -0.0265 -0.6188
   48CHL1   C27 6029   6.549   6.168   9.025 -0.2412 -0.3067 -0.2490
   48CHL1  H27A 6030   6.575   6.178   8.917 -2.0639  0.6343 -0.6168
   48CHL1  H27B 6031   6.591   6.072   9.064 -2.1689 -2.7147 -3.8065
   48CHL1  H27C 6032   6.438   6.163   9.029 -0.3260  1.1502 -0.5946
   49CHL1    C3 6033   3.803   1.525  10.016 -0.3212  0.2919  0.6780
   49CHL1    H3 6034   3.795   1.414  10.020  1.1007  0.1381 -0.4248
   49CHL1    O3 6035   3.854   1.562  10.141  0.2706 -0.3714  0.3320
   49CHL1   H3' 6036   3.942   1.593  10.118  0.0821 -2.1354 -3.2608
   49CHL1    C4 6037   3.917   1.543   9.914  0.7222 -0.5711  0.2288
   49CHL1   H4A 6038   3.958   1.645   9.925 -2.5592  1.1500 -2.6081
   49CHL1   H4B 6039   3.997   1.472   9.942 -0.8204 -2.1713  0.7143
   49CHL1    C5 6040   3.873   1.511   9.772 -0.3449  0.1908  0.6755
   49CHL1    C6 6041   3.938   1.425   9.696  0.4932 -0.6790 -0.1650
   49CHL1    H6 6042   4.030   1.375   9.730  1.5261  1.2767  0.0309
   49CHL1    C7 6043   3.895   1.392   9.555  0.4272 -0.5627  0.4087
   49CHL1   H7A 6044   3.989   1.395   9.495 -0.6436  0.9698 -1.2317
   49CHL1   H7B 6045   3.843   1.297   9.535  0.2716 -1.7536  5.8284
   49CHL1    C8 6046   3.797   1.503   9.495 -0.0275 -0.3744 -0.2891
   49CHL1    H8 6047   3.846   1.596   9.461 -2.7316  1.3931  0.4423
   49CHL1   C14 6048   3.740   1.455   9.358 -0.2028  0.6484  0.0528
   49CHL1   H14 6049   3.684   1.363   9.384 -1.6367  1.9580  1.7554
   49CHL1   C15 6050   3.835   1.410   9.241  0.0852  0.8445 -0.7357
   49CHL1  H15A 6051   3.912   1.485   9.214  1.7646  0.0315  1.5878
   49CHL1  H15B 6052   3.892   1.318   9.268 -0.1006  0.7003 -0.8278
   49CHL1   C16 6053   3.739   1.390   9.125  0.1600  0.2246 -1.2106
   49CHL1  H16A 6054   3.773   1.452   9.040 -2.2106  1.0005 -1.6329
   49CHL1  H16B 6055   3.725   1.283   9.097 -2.8994  0.2688 -0.1035
   49CHL1   C17 6056   3.599   1.444   9.172  0.0994  0.1898  1.3716
   49CHL1   H17 6057   3.541   1.355   9.207 -1.0371 -0.7099 -2.5477
   49CHL1   C13 6058   3.628   1.534   9.291  0.4185 -0.1987  0.2958
   49CHL1   C18 6059   3.680   1.673   9.244  0.0336 -0.2970  0.0529
   49CHL1  H18A 6060   3.748   1.708   9.324  0.2178 -1.8421  0.5862
   49CHL1  H18B 6061   3.740   1.655   9.152  2.2595  0.4616  1.3174
   49CHL1  H18C 6062   3.586   1.732   9.236 -1.1564 -2.1783  0.0107
   49CHL1   C12 6063   3.514   1.576   9.398  0.4509  0.5789  0.1259
   49CHL1  H12A 6064   3.437   1.650   9.369 -0.1255  0.8360  2.2290
   49CHL1  H12B 6065   3.454   1.484   9.412 -0.6184  1.5733  2.3131
   49CHL1   C11 6066   3.568   1.624   9.532  0.4269 -0.2550 -1.3929
   49CHL1  H11A 6067   3.581   1.735   9.532 -2.9369  0.2236  1.4017
   49CHL1  H11B 6068   3.487   1.622   9.607  1.6152  2.4157  0.0414
   49CHL1    C9 6069   3.683   1.536   9.594 -0.0523 -0.2764 -0.1621
   49CHL1    H9 6070   3.638   1.436   9.612 -0.5471  0.2913  1.8316
   49CHL1   C10 6071   3.747   1.589   9.726  0.8068  0.1700  0.1130
   49CHL1   C19 6072   3.781   1.742   9.700 -0.2720 -0.5014  0.1327
   49CHL1  H19A 6073   3.824   1.797   9.787 -2.1978  0.2092  0.6569
   49CHL1  H19B 6074   3.845   1.758   9.611  1.9706  0.3770  1.8471
   49CHL1  H19C 6075   3.687   1.800   9.693 -0.5251 -0.8824  0.3925
   49CHL1    C1 6076   3.632   1.584   9.836  0.5878 -0.1042 -0.7575
   49CHL1   H1A 6077   3.541   1.644   9.812  0.1614 -0.5139 -0.1885
   49CHL1   H1B 6078   3.598   1.478   9.833  0.8505 -0.2340  0.7773
   49CHL1    C2 6079   3.678   1.602   9.986 -0.6432 -0.4696  0.3467
   49CHL1   H2A 6080   3.594   1.575  10.053  0.4200 -2.5810  0.9058
   49CHL1   H2B 6081   3.695   1.711   9.995 -1.2279 -0.2039 -1.4977
   49CHL1   C20 6082   3.515   1.508   9.061 -0.1957 -0.7758  0.0739
   49CHL1   H20 6083   3.551   1.609   9.031  0.8162 -0.8928  0.8621
   49CHL1   C21 6084   3.372   1.539   9.117  0.1306  0.3574 -0.9286
   49CHL1  H21A 6085   3.327   1.452   9.170  0.3258  0.2628 -0.9180
   49CHL1  H21B 6086   3.316   1.576   9.028  0.5961 -0.4518 -1.5736
   49CHL1  H21C 6087   3.369   1.622   9.190 -1.8936 -0.6145  0.1423
   49CHL1   C22 6088   3.502   1.413   8.937  0.0833 -0.2102 -0.0372
   49CHL1  H22A 6089   3.595   1.354   8.930  2.0528  2.8111 -0.5369
   49CHL1  H22B 6090   3.422   1.338   8.956  3.5382 -3.4619  2.2545
   49CHL1   C23 6091   3.474   1.497   8.808  0.6147 -0.3359  0.1928
   49CHL1  H23A 6092   3.390   1.565   8.834  1.2045 -0.8522  3.7147
   49CHL1  H23B 6093   3.547   1.579   8.791 -0.9369  1.0817  0.2179
   49CHL1   C24 6094   3.460   1.406   8.686  0.5378  0.4358  0.3731
   49CHL1  H24A 6095   3.552   1.351   8.655  0.8647  0.1157  1.8678
   49CHL1  H24B 6096   3.373   1.343   8.713 -0.0477  0.9845 -0.2318
   49CHL1   C25 6097   3.402   1.485   8.564  0.1300 -0.0371  0.3809
   49CHL1   H25 6098   3.322   1.552   8.603  0.2409  0.7781 -0.7605
   49CHL1   C26 6099   3.502   1.579   8.495 -0.9408 -0.4605  0.2911
   49CHL1  H26A 6100   3.583   1.522   8.444  1.3014  0.6829  2.4538
   49CHL1  H26B 6101   3.451   1.646   8.422  0.4323 -2.3555 -2.5324
   49CHL1  H26C 6102   3.563   1.632   8.571  1.3779 -1.5976 -0.7115
   49CHL1   C27 6103   3.339   1.390   8.462  0.5936  0.2088  0.2841
   49CHL1  H27A 6104   3.275   1.449   8.392 -1.2330 -1.1616  0.7531
   49CHL1  H27B 6105   3.416   1.336   8.404  0.4233 -0.2290  0.4653
   49CHL1  H27C 6106   3.269   1.319   8.511  0.7151  0.0712  0.2604
   50CHL1    C3 6107   0.691   3.815  10.128  0.1636  0.0060  0.4730
   50CHL1    H3 6108   0.797   3.798  10.101 -0.8005 -1.2285 -2.6774
   50CHL1    O3 6109   0.686   3.862  10.260  0.5719 -0.3361 -0.3932
   50CHL1   H3' 6110   0.592   3.859  10.276  0.4406 -1.8862 -1.3474
   50CHL1    C4 6111   0.634   3.919  10.032  0.3963  0.0170  0.7669
   50CHL1   H4A 6112   0.526   3.912  10.060  0.4050 -1.3083  0.4847
   50CHL1   H4B 6113   0.672   4.021  10.053 -1.2985  0.7595  0.3179
   50CHL1    C5 6114   0.652   3.874   9.891 -0.1675  0.1428  0.5985
   50CHL1    C6 6115   0.713   3.951   9.801 -1.1529  0.7431 -0.7585
   50CHL1    H6 6116   0.747   4.049   9.836 -3.5499  0.5025  2.3374
   50CHL1    C7 6117   0.746   3.906   9.658 -0.4689  0.1587  0.5809
   50CHL1   H7A 6118   0.739   3.989   9.585 -1.8957  0.7176  1.3364
   50CHL1   H7B 6119   0.850   3.866   9.658 -1.0724 -1.5736  3.2784
   50CHL1    C8 6120   0.661   3.787   9.610 -0.2306 -0.4796 -0.5905
   50CHL1    H8 6121   0.562   3.833   9.591 -1.1213 -2.5722 -1.1962
   50CHL1   C14 6122   0.718   3.720   9.490  0.0718  0.6580 -0.3655
   50CHL1   H14 6123   0.809   3.664   9.524  1.1005  1.3079 -2.0183
   50CHL1   C15 6124   0.737   3.811   9.367 -0.7072  0.2941 -0.0474
   50CHL1  H15A 6125   0.647   3.872   9.347 -0.1847  1.0002 -0.2561
   50CHL1  H15B 6126   0.821   3.882   9.379 -1.1543  0.8394 -0.1574
   50CHL1   C16 6127   0.761   3.706   9.254 -0.4813 -0.7448 -0.0413
   50CHL1  H16A 6128   0.716   3.740   9.158 -1.6276 -3.0464 -0.3459
   50CHL1  H16B 6129   0.865   3.685   9.224 -0.9068 -0.7224 -1.6173
   50CHL1   C17 6130   0.696   3.571   9.306 -0.0753  0.3797  0.4767
   50CHL1   H17 6131   0.785   3.523   9.351 -0.6386 -0.6650  0.4947
   50CHL1   C13 6132   0.622   3.613   9.438  0.2615  0.3843 -0.8156
   50CHL1   C18 6133   0.478   3.654   9.409  0.2371  0.2725 -0.2802
   50CHL1  H18A 6134   0.464   3.724   9.324 -1.2620 -1.6482 -1.6714
   50CHL1  H18B 6135   0.416   3.563   9.393  0.2228  0.3303 -0.5516
   50CHL1  H18C 6136   0.432   3.711   9.492 -0.0260  0.6703 -0.6972
   50CHL1   C12 6137   0.624   3.497   9.537 -0.3775  0.4726 -0.2794
   50CHL1  H12A 6138   0.561   3.416   9.497  1.5059 -1.0158 -0.2991
   50CHL1  H12B 6139   0.727   3.460   9.555 -0.8441 -0.4508  0.4882
   50CHL1   C11 6140   0.578   3.550   9.678 -0.2090  0.5536 -0.3701
   50CHL1  H11A 6141   0.469   3.560   9.663 -0.0604  0.3048 -1.7534
   50CHL1  H11B 6142   0.599   3.470   9.752 -0.2139  1.3412  0.4855
   50CHL1    C9 6143   0.645   3.680   9.717 -0.3269  1.2255  0.2571
   50CHL1    H9 6144   0.745   3.636   9.734 -1.0435 -0.7645 -0.5372
   50CHL1   C10 6145   0.597   3.735   9.857 -0.0733  0.1573 -0.8195
   50CHL1   C19 6146   0.441   3.741   9.861 -0.1929 -0.6484 -0.1497
   50CHL1  H19A 6147   0.399   3.795   9.948  0.7054 -0.7322  0.3456
   50CHL1  H19B 6148   0.399   3.792   9.771  1.5228  0.6915 -0.2446
   50CHL1  H19C 6149   0.402   3.638   9.871 -0.7767 -0.2397  2.0645
   50CHL1    C1 6150   0.647   3.643   9.963  0.1719  0.3634 -0.2345
   50CHL1   H1A 6151   0.595   3.545   9.957 -1.5545  1.2465 -0.2101
   50CHL1   H1B 6152   0.756   3.622   9.956  0.5708  1.5861  1.9008
   50CHL1    C2 6153   0.626   3.686  10.108  0.4777  0.1282 -0.3424
   50CHL1   H2A 6154   0.658   3.596  10.164  0.1543 -0.0911 -0.5108
   50CHL1   H2B 6155   0.517   3.689  10.131  0.5097  0.6737 -0.2357
   50CHL1   C20 6156   0.635   3.465   9.213 -1.2206 -0.1107  0.5410
   50CHL1   H20 6157   0.603   3.380   9.276 -1.0841  0.2949  1.1695
   50CHL1   C21 6158   0.754   3.413   9.125 -0.6126 -0.4419  0.5054
   50CHL1  H21A 6159   0.739   3.304   9.105  0.3394 -0.3412 -0.7983
   50CHL1  H21B 6160   0.855   3.428   9.169 -1.1495  0.5379  1.4080
   50CHL1  H21C 6161   0.764   3.454   9.023  0.5352  0.8059  1.1165
   50CHL1   C22 6162   0.517   3.498   9.121 -0.4563 -0.6526  0.1789
   50CHL1  H22A 6163   0.446   3.538   9.195  0.4010  0.4047  0.4395
   50CHL1  H22B 6164   0.549   3.575   9.048  1.8810 -2.2653 -0.5589
   50CHL1   C23 6165   0.466   3.374   9.041 -0.2798 -0.2007 -0.4868
   50CHL1  H23A 6166   0.379   3.413   8.983  0.1906  0.0652 -1.0198
   50CHL1  H23B 6167   0.543   3.352   8.963  0.2613  1.8567 -0.5446
   50CHL1   C24 6168   0.423   3.244   9.124 -0.9810  0.1571  0.1567
   50CHL1  H24A 6169   0.515   3.204   9.172 -0.8723 -0.0061 -0.1856
   50CHL1  H24B 6170   0.365   3.280   9.212 -0.0108 -0.1829  0.9418
   50CHL1   C25 6171   0.356   3.133   9.051 -0.8543  0.2664 -0.2282
   50CHL1   H25 6172   0.258   3.170   9.015 -0.3837  3.1358  1.2879
   50CHL1   C26 6173   0.424   3.080   8.915 -0.0253  0.9959 -0.3401
   50CHL1  H26A 6174   0.432   3.166   8.846  2.0694  2.2121  1.3851
   50CHL1  H26B 6175   0.527   3.039   8.925 -0.7349 -0.6668  0.5022
   50CHL1  H26C 6176   0.357   3.002   8.872 -0.9606  0.1070  2.5727
   50CHL1   C27 6177   0.337   3.012   9.144 -0.8431 -0.9890 -0.1176
   50CHL1  H27A 6178   0.295   3.042   9.243  1.4043 -0.4288  0.6995
   50CHL1  H27B 6179   0.267   2.941   9.097 -0.1973 -1.0285 -1.0325
   50CHL1  H27C 6180   0.437   2.962   9.145 -1.0585 -1.4483 -1.0771
   51CHL1    C3 6181   1.977   6.533  10.273 -0.6608 -0.2941 -0.5753
   51CHL1    H3 6182   2.079   6.504  10.242  0.0485 -0.0267  1.4480
   51CHL1    O3 6183   1.985   6.532  10.416 -0.2221 -0.4373 -0.3321
   51CHL1   H3' 6184   1.981   6.440  10.443 -0.4855 -0.0911  0.8241
   51CHL1    C4 6185   1.938   6.670  10.220 -0.0249 -0.2098  0.3006
   51CHL1   H4A 6186   1.839   6.711  10.251 -0.9773 -1.6428 -0.7802
   51CHL1   H4B 6187   2.017   6.739  10.258 -2.4115  1.4948  2.3510
   51CHL1    C5 6188   1.924   6.679  10.071 -0.5283 -0.7143 -0.4501
   51CHL1    C6 6189   2.005   6.758  10.004  0.7072  0.5877  0.6180
   51CHL1    H6 6190   2.065   6.838  10.051  1.6301  0.1495  0.1884
   51CHL1    C7 6191   1.992   6.769   9.857  0.1901 -0.5598 -0.6217
   51CHL1   H7A 6192   1.994   6.873   9.815  0.9534 -0.1831  0.3496
   51CHL1   H7B 6193   2.074   6.712   9.810  0.5246 -0.5714 -0.0265
   51CHL1    C8 6194   1.865   6.700   9.800 -0.9451  0.1356 -0.4217
   51CHL1    H8 6195   1.784   6.772   9.824 -0.9204 -0.2800  0.9109
   51CHL1   C14 6196   1.870   6.689   9.650  0.5689 -0.0619  0.4374
   51CHL1   H14 6197   1.937   6.602   9.635 -1.2099 -1.2982 -0.5348
   51CHL1   C15 6198   1.914   6.809   9.563 -0.8072  0.4536 -0.3433
   51CHL1  H15A 6199   1.864   6.903   9.596 -1.6975 -0.1344  0.0055
   51CHL1  H15B 6200   2.022   6.830   9.576 -0.8939  0.8356 -0.2341
   51CHL1   C16 6201   1.875   6.771   9.415  1.0959  0.5057  0.3064
   51CHL1  H16A 6202   1.814   6.851   9.368  3.3018  1.1261 -1.5957
   51CHL1  H16B 6203   1.965   6.755   9.351  2.1530 -1.4206  2.1766
   51CHL1   C17 6204   1.796   6.636   9.430  0.2953 -0.3111  0.4104
   51CHL1   H17 6205   1.876   6.562   9.409 -0.6199 -0.4381 -2.9406
   51CHL1   C13 6206   1.750   6.637   9.581  0.3580 -0.2684 -0.5513
   51CHL1   C18 6207   1.636   6.734   9.599 -0.5563 -0.9813 -0.6600
   51CHL1  H18A 6208   1.615   6.765   9.704 -1.3130 -1.6173 -0.6179
   51CHL1  H18B 6209   1.649   6.831   9.547  0.2269 -1.3695 -1.2006
   51CHL1  H18C 6210   1.540   6.685   9.570 -2.2285  1.4693  0.5423
   51CHL1   C12 6211   1.716   6.499   9.637 -0.4843 -0.4136  0.1640
   51CHL1  H12A 6212   1.624   6.456   9.593 -1.5928 -0.1989  2.2119
   51CHL1  H12B 6213   1.807   6.444   9.605  0.3620  0.9408  0.2148
   51CHL1   C11 6214   1.717   6.491   9.790  0.0310 -0.9544  0.0194
   51CHL1  H11A 6215   1.615   6.531   9.810 -0.1285 -2.0655  1.4717
   51CHL1  H11B 6216   1.693   6.387   9.822 -2.1670 -0.4219  0.2134
   51CHL1    C9 6217   1.835   6.567   9.862  0.2087 -0.6511  0.0822
   51CHL1    H9 6218   1.927   6.509   9.844 -0.3527 -0.7983 -2.5194
   51CHL1   C10 6219   1.816   6.575  10.015  0.8399  0.0293  0.9320
   51CHL1   C19 6220   1.673   6.617  10.057 -0.2141  0.6410  0.6303
   51CHL1  H19A 6221   1.639   6.703   9.996  1.2259 -0.4387 -1.7611
   51CHL1  H19B 6222   1.604   6.534  10.031  1.2536 -0.3824 -0.1316
   51CHL1  H19C 6223   1.658   6.630  10.166  1.1511  0.0577  0.9045
   51CHL1    C1 6224   1.843   6.431  10.081 -0.9530 -0.5426  0.2174
   51CHL1   H1A 6225   1.768   6.355  10.049  1.1242 -1.8695 -1.6373
   51CHL1   H1B 6226   1.938   6.399  10.034  0.4175  1.8941  1.2363
   51CHL1    C2 6227   1.867   6.431  10.231  0.5489  0.4561  0.2857
   51CHL1   H2A 6228   1.887   6.325  10.258  0.8663 -0.3780 -2.9074
   51CHL1   H2B 6229   1.771   6.453  10.282  1.5050  0.1008  2.2916
   51CHL1   C20 6230   1.695   6.600   9.322 -0.5226 -0.2749 -0.3092
   51CHL1   H20 6231   1.596   6.647   9.341 -1.4706 -2.9896  1.7755
   51CHL1   C21 6232   1.661   6.443   9.314  0.0123 -0.4445 -0.1786
   51CHL1  H21A 6233   1.620   6.417   9.215 -0.0520  2.8450 -1.0617
   51CHL1  H21B 6234   1.582   6.420   9.388  0.1973  0.7756  0.4136
   51CHL1  H21C 6235   1.745   6.373   9.336  1.8642  2.0066  0.8053
   51CHL1   C22 6236   1.741   6.662   9.189 -0.1498  0.7078  0.4942
   51CHL1  H22A 6237   1.735   6.773   9.198  0.9268  1.1004 -2.7926
   51CHL1  H22B 6238   1.846   6.630   9.168 -0.6650 -1.0573  0.5661
   51CHL1   C23 6239   1.644   6.629   9.073 -0.9035 -1.1982 -0.1393
   51CHL1  H23A 6240   1.669   6.530   9.031 -0.1778 -0.5235 -1.3283
   51CHL1  H23B 6241   1.546   6.621   9.123 -2.3117  2.3386 -2.1533
   51CHL1   C24 6242   1.642   6.742   8.972 -0.8229 -0.3251 -0.1462
   51CHL1  H24A 6243   1.612   6.837   9.021  0.1198  0.3324 -0.8290
   51CHL1  H24B 6244   1.739   6.754   8.919 -0.4114 -4.6068 -0.5728
   51CHL1   C25 6245   1.529   6.719   8.866  0.5895 -0.7262  0.6119
   51CHL1   H25 6246   1.432   6.717   8.919 -0.8722  1.7200 -1.8201
   51CHL1   C26 6247   1.490   6.832   8.762 -0.4011  0.8087 -0.7297
   51CHL1  H26A 6248   1.582   6.849   8.702 -1.2290  0.2920 -2.1869
   51CHL1  H26B 6249   1.408   6.797   8.696 -0.5339 -0.1522 -0.0485
   51CHL1  H26C 6250   1.460   6.927   8.812 -1.6038 -0.6043  1.2570
   51CHL1   C27 6251   1.557   6.591   8.791  0.0228 -0.5500 -0.8833
   51CHL1  H27A 6252   1.666   6.588   8.773  0.2888  0.8385  0.4053
   51CHL1  H27B 6253   1.537   6.509   8.864  0.4655 -0.6704 -0.8955
   51CHL1  H27C 6254   1.497   6.572   8.699 -0.4510  0.3955 -0.7764
   52CHL1    C3 6255   5.450   5.190  10.026 -0.2978  0.1055  0.5567
   52CHL1    H3 6256   5.418   5.090   9.990 -1.6950  0.6843  0.1525
   52CHL1    O3 6257   5.425   5.201  10.164  0.0514  0.5522  0.4874
   52CHL1   H3' 6258   5.338   5.162  10.176  0.4160 -0.6773 -0.6766
   52CHL1    C4 6259   5.599   5.220   9.979 -0.3477 -0.2122 -0.1451
   52CHL1   H4A 6260   5.627   5.325  10.000  1.1225 -0.9186  1.4405
   52CHL1   H4B 6261   5.664   5.150  10.035 -0.9769 -0.9897 -0.3595
   52CHL1    C5 6262   5.616   5.207   9.828  0.1371 -0.2624  0.7612
   52CHL1    C6 6263   5.702   5.119   9.785 -0.0726 -0.0435 -0.3355
   52CHL1    H6 6264   5.758   5.066   9.862  0.7424  1.0249 -0.1872
   52CHL1    C7 6265   5.748   5.106   9.644 -0.3180  0.0595 -0.0843
   52CHL1   H7A 6266   5.857   5.120   9.629 -0.3451  0.3733  0.0071
   52CHL1   H7B 6267   5.734   5.004   9.602  0.8814 -0.4173  0.6677
   52CHL1    C8 6268   5.680   5.214   9.558 -0.1506 -0.2396 -0.5382
   52CHL1    H8 6269   5.727   5.313   9.572  0.2236 -0.5933  0.8382
   52CHL1   C14 6270   5.695   5.187   9.408  0.0697 -0.4880 -0.0064
   52CHL1   H14 6271   5.634   5.094   9.395  1.2915 -1.7061  2.4763
   52CHL1   C15 6272   5.830   5.145   9.348 -0.1668  0.2161  0.0134
   52CHL1  H15A 6273   5.901   5.203   9.411 -1.3384 -0.5422  2.0814
   52CHL1  H15B 6274   5.847   5.038   9.371  0.0365  0.6569  2.0015
   52CHL1   C16 6275   5.819   5.177   9.203 -0.3033 -0.3778 -0.0770
   52CHL1  H16A 6276   5.880   5.266   9.179  0.5304 -1.4005 -1.8305
   52CHL1  H16B 6277   5.855   5.098   9.134  0.4237 -1.3776  1.4276
   52CHL1   C17 6278   5.672   5.216   9.183  0.1539  0.0346  0.5427
   52CHL1   H17 6279   5.616   5.120   9.189 -0.9339  0.5045 -1.6242
   52CHL1   C13 6280   5.627   5.289   9.312  0.9062  0.5590  0.0935
   52CHL1   C18 6281   5.694   5.425   9.325 -0.1395 -0.2182  0.2502
   52CHL1  H18A 6282   5.633   5.488   9.256 -0.5051  0.4128  1.1456
   52CHL1  H18B 6283   5.694   5.475   9.424  1.7005 -1.1258  0.7388
   52CHL1  H18C 6284   5.798   5.431   9.287 -0.0454  3.5715  0.9179
   52CHL1   C12 6285   5.475   5.292   9.348 -0.0513  0.4412  0.4990
   52CHL1  H12A 6286   5.429   5.375   9.290  0.1869 -0.5311 -1.1145
   52CHL1  H12B 6287   5.421   5.197   9.329  0.2019  0.1868  1.0555
   52CHL1   C11 6288   5.455   5.337   9.494 -0.2674 -0.5234 -0.2375
   52CHL1  H11A 6289   5.492   5.442   9.498 -1.6625 -0.0654  0.9130
   52CHL1  H11B 6290   5.353   5.355   9.534 -0.1797  2.3144 -1.2070
   52CHL1    C9 6291   5.528   5.242   9.591  0.1802  0.8104  0.1823
   52CHL1    H9 6292   5.481   5.141   9.593 -0.5848  1.0965 -1.9445
   52CHL1   C10 6293   5.522   5.293   9.736 -0.0619  0.3610 -0.1593
   52CHL1   C19 6294   5.556   5.443   9.751 -0.1984  0.1631  0.5149
   52CHL1  H19A 6295   5.470   5.498   9.708 -0.9793 -1.8884 -0.6544
   52CHL1  H19B 6296   5.561   5.468   9.859  0.9165 -0.1437  0.5423
   52CHL1  H19C 6297   5.650   5.461   9.695  1.7624 -1.6099  3.0776
   52CHL1    C1 6298   5.372   5.277   9.789  0.4184 -0.0214  0.7896
   52CHL1   H1A 6299   5.307   5.358   9.749  1.7289  0.2115 -0.9081
   52CHL1   H1B 6300   5.325   5.180   9.766 -0.2229  0.2357  0.9982
   52CHL1    C2 6301   5.357   5.285   9.940  0.1851 -0.2405  0.4877
   52CHL1   H2A 6302   5.252   5.259   9.967 -1.1473  0.7603 -3.3251
   52CHL1   H2B 6303   5.371   5.392   9.966  0.7802 -0.2093  0.0685
   52CHL1   C20 6304   5.637   5.285   9.058  0.1650  0.0999  0.1854
   52CHL1   H20 6305   5.647   5.395   9.064  0.3189  0.0335  1.1765
   52CHL1   C21 6306   5.486   5.268   9.029 -0.4423 -0.2636  0.1918
   52CHL1  H21A 6307   5.461   5.161   9.047 -0.1676  0.0850  2.7700
   52CHL1  H21B 6308   5.465   5.286   8.922  4.6079  0.6080 -0.8192
   52CHL1  H21C 6309   5.410   5.328   9.083 -1.1871 -0.7606 -0.2936
   52CHL1   C22 6310   5.716   5.230   8.934 -0.2338 -0.3684 -0.2606
   52CHL1  H22A 6311   5.691   5.280   8.838 -1.3824 -2.3076 -0.9845
   52CHL1  H22B 6312   5.826   5.245   8.943 -0.4412  1.6722 -0.8338
   52CHL1   C23 6313   5.700   5.079   8.914  0.0082 -0.0016  0.0321
   52CHL1  H23A 6314   5.703   5.024   9.011 -0.6358  0.9859  0.6164
   52CHL1  H23B 6315   5.606   5.070   8.855  0.7390  0.9660 -1.3023
   52CHL1   C24 6316   5.818   5.019   8.830  0.4508 -0.0595 -0.4010
   52CHL1  H24A 6317   5.833   5.082   8.739  0.1542 -0.4617 -0.7289
   52CHL1  H24B 6318   5.913   5.028   8.887  1.2443  0.2750 -1.7505
   52CHL1   C25 6319   5.798   4.866   8.807 -0.6708 -0.2348  0.0304
   52CHL1   H25 6320   5.698   4.850   8.760 -0.2715 -1.1186 -0.5323
   52CHL1   C26 6321   5.906   4.817   8.714  0.4239 -0.4170  0.0978
   52CHL1  H26A 6322   5.925   4.891   8.633 -0.6141 -1.3513 -1.0129
   52CHL1  H26B 6323   6.004   4.805   8.764 -0.6660  0.1664  2.4504
   52CHL1  H26C 6324   5.870   4.719   8.676 -0.5168  0.3516 -1.0211
   52CHL1   C27 6325   5.800   4.789   8.939  0.7790  1.1999  0.0712
   52CHL1  H27A 6326   5.897   4.800   8.993  1.4447 -2.6997 -0.2265
   52CHL1  H27B 6327   5.726   4.818   9.016  1.6357 -0.0341  1.3819
   52CHL1  H27C 6328   5.778   4.682   8.921 -1.2911  1.4201  1.1605
   53CHL1    C3 6329   6.355   4.387  10.208 -0.4171  0.5841 -0.2036
   53CHL1    H3 6330   6.455   4.374  10.254 -0.6140  1.1346  0.3873
   53CHL1    O3 6331   6.252   4.354  10.310  0.1404 -0.1525  0.7725
   53CHL1   H3' 6332   6.307   4.328  10.384 -0.5062  1.1598  1.7247
   53CHL1    C4 6333   6.347   4.534  10.155 -1.1863 -0.8280  0.4933
   53CHL1   H4A 6334   6.241   4.559  10.134 -1.1192 -2.8764 -2.5118
   53CHL1   H4B 6335   6.384   4.593  10.242  0.3279 -2.5407  1.0326
   53CHL1    C5 6336   6.417   4.570  10.024  0.0663 -0.4584 -0.1160
   53CHL1    C6 6337   6.498   4.675  10.005  0.3008  0.4393  0.0193
   53CHL1    H6 6338   6.530   4.731  10.094 -0.0971  1.4707 -0.4771
   53CHL1    C7 6339   6.558   4.708   9.868 -0.5936 -0.2320 -0.4087
   53CHL1   H7A 6340   6.553   4.818   9.851  1.0207  0.4489  2.9312
   53CHL1   H7B 6341   6.665   4.679   9.863 -1.0578 -2.4595  1.6141
   53CHL1    C8 6342   6.497   4.636   9.743 -0.2586 -0.5260 -0.2628
   53CHL1    H8 6343   6.401   4.685   9.717  0.2243  2.1854  2.7898
   53CHL1   C14 6344   6.584   4.638   9.618 -0.7067 -0.0883  0.6337
   53CHL1   H14 6345   6.683   4.593   9.640 -0.0482 -0.6365 -3.1090
   53CHL1   C15 6346   6.620   4.786   9.565 -0.4424 -0.1388 -0.4497
   53CHL1  H15A 6347   6.527   4.845   9.569 -0.7145 -0.4996 -1.3504
   53CHL1  H15B 6348   6.701   4.830   9.628  0.6606 -0.0759 -1.8922
   53CHL1   C16 6349   6.656   4.760   9.416  0.4444 -0.0946 -0.2369
   53CHL1  H16A 6350   6.593   4.829   9.355 -0.3102 -1.2124 -0.7403
   53CHL1  H16B 6351   6.762   4.784   9.394  0.0977  0.9548 -0.8020
   53CHL1   C17 6352   6.624   4.613   9.385  0.0901 -0.5950 -0.1316
   53CHL1   H17 6353   6.713   4.551   9.409  1.3011  0.4277 -1.8884
   53CHL1   C13 6354   6.526   4.563   9.494 -0.1486 -1.0107  0.4821
   53CHL1   C18 6355   6.391   4.616   9.456  0.3441  0.0137  1.0722
   53CHL1  H18A 6356   6.310   4.595   9.529 -0.4482  1.6224  0.6740
   53CHL1  H18B 6357   6.382   4.725   9.436 -1.3557 -0.1861  0.6605
   53CHL1  H18C 6358   6.367   4.555   9.366 -0.7003 -0.0056  1.3678
   53CHL1   C12 6359   6.522   4.420   9.540  0.4192  0.2438  0.1273
   53CHL1  H12A 6360   6.490   4.348   9.461  1.6429  0.4932 -0.6170
   53CHL1  H12B 6361   6.629   4.397   9.559 -0.0440  1.0465  4.0764
   53CHL1   C11 6362   6.425   4.402   9.661 -0.3651  0.1416 -0.3556
   53CHL1  H11A 6363   6.324   4.438   9.632 -0.6031 -0.4528 -0.2739
   53CHL1  H11B 6364   6.417   4.292   9.680 -0.4027  0.2711  0.3812
   53CHL1    C9 6365   6.461   4.495   9.786 -0.1814  0.3703 -0.1537
   53CHL1    H9 6366   6.560   4.455   9.818  0.6228  2.4697  0.0774
   53CHL1   C10 6367   6.381   4.467   9.915  0.4965 -0.0731 -0.2848
   53CHL1   C19 6368   6.234   4.491   9.872  0.7719 -0.0662  0.2338
   53CHL1  H19A 6369   6.159   4.501   9.954  1.1787 -1.4766  0.8005
   53CHL1  H19B 6370   6.227   4.587   9.817 -1.2753  0.1097  0.7295
   53CHL1  H19C 6371   6.194   4.414   9.803  0.9703  0.3261 -0.3135
   53CHL1    C1 6372   6.405   4.319   9.964 -0.1314 -0.8544 -0.0207
   53CHL1   H1A 6373   6.379   4.248   9.882 -1.1999 -0.7153  0.1934
   53CHL1   H1B 6374   6.513   4.306   9.988 -0.4401  0.6716  2.3519
   53CHL1    C2 6375   6.330   4.288  10.096  0.2497  0.1196 -0.0841
   53CHL1   H2A 6376   6.352   4.187  10.136 -1.1946  0.4003  1.4798
   53CHL1   H2B 6377   6.226   4.275  10.059  1.2270 -0.0159 -2.9340
   53CHL1   C20 6378   6.590   4.607   9.233 -0.3828  0.1423  0.2936
   53CHL1   H20 6379   6.493   4.657   9.212 -0.1813  0.7668  0.8365
   53CHL1   C21 6380   6.562   4.457   9.190 -0.2849  0.3886  0.2238
   53CHL1  H21A 6381   6.659   4.403   9.199 -0.3289  0.3688  0.5691
   53CHL1  H21B 6382   6.538   4.443   9.082 -2.8646  2.0082  0.5570
   53CHL1  H21C 6383   6.482   4.399   9.239 -1.2369  2.3565  1.0411
   53CHL1   C22 6384   6.699   4.676   9.142  0.0844 -0.7888 -0.0548
   53CHL1  H22A 6385   6.696   4.787   9.152  1.3692 -0.9151  2.0385
   53CHL1  H22B 6386   6.798   4.637   9.173  0.8837  1.0021 -0.3195
   53CHL1   C23 6387   6.691   4.645   8.985 -0.1596  0.0466 -0.4488
   53CHL1  H23A 6388   6.705   4.537   8.965  1.9356  0.0731  0.8064
   53CHL1  H23B 6389   6.592   4.667   8.940 -0.7347  1.0039  1.2302
   53CHL1   C24 6390   6.799   4.720   8.910 -0.1508 -0.0352  0.7875
   53CHL1  H24A 6391   6.774   4.828   8.909  1.5192  0.3594 -0.0511
   53CHL1  H24B 6392   6.893   4.716   8.969  0.1991  1.5291  0.3519
   53CHL1   C25 6393   6.823   4.678   8.762 -0.1961  0.5949 -0.0699
   53CHL1   H25 6394   6.729   4.685   8.704  0.0949  0.6017 -0.5438
   53CHL1   C26 6395   6.919   4.779   8.700 -0.3198  0.4999  0.4427
   53CHL1  H26A 6396   6.992   4.796   8.782 -0.6094 -0.4562  0.9104
   53CHL1  H26B 6397   6.978   4.729   8.620 -1.3474 -2.2385  1.3524
   53CHL1  H26C 6398   6.863   4.872   8.679 -0.2588  0.4224 -0.0612
   53CHL1   C27 6399   6.891   4.541   8.745  1.0988  0.0788  0.0373
   53CHL1  H27A 6400   6.969   4.518   8.820  0.9467  0.7117  0.4003
   53CHL1  H27B 6401   6.815   4.461   8.755 -0.4079  1.7235  2.4683
   53CHL1  H27C 6402   6.935   4.534   8.644  0.3748 -0.5412 -0.2394
   54CHL1    C3 6403   6.388   5.870  10.146 -0.5585 -0.1289 -0.6995
   54CHL1    H3 6404   6.490   5.830  10.166 -1.0029 -0.9859 -0.1337
   54CHL1    O3 6405   6.331   5.912  10.274  0.4410 -0.0774  0.4775
   54CHL1   H3' 6406   6.240   5.934  10.256  0.8644  1.6858  0.4074
   54CHL1    C4 6407   6.407   6.006  10.064  0.6296 -0.0709 -0.3304
   54CHL1   H4A 6408   6.299   6.031  10.055  0.1565 -1.4720  1.2812
   54CHL1   H4B 6409   6.474   6.076  10.119  1.2367  0.3577 -1.5897
   54CHL1    C5 6410   6.456   5.983   9.924 -0.2476  0.2435 -0.0508
   54CHL1    C6 6411   6.564   6.049   9.887  0.1323 -0.0046 -0.4898
   54CHL1    H6 6412   6.610   6.121   9.957  0.6486 -1.2504  0.4806
   54CHL1    C7 6413   6.624   6.037   9.750  0.3680  0.0461 -1.1601
   54CHL1   H7A 6414   6.649   6.131   9.695  1.3666  0.7015  0.3840
   54CHL1   H7B 6415   6.724   5.990   9.763 -0.3838 -1.3333 -0.2351
   54CHL1    C8 6416   6.534   5.957   9.653 -0.2314 -0.5266 -0.0778
   54CHL1    H8 6417   6.455   6.021   9.609  0.5140 -0.4949 -1.4077
   54CHL1   C14 6418   6.621   5.898   9.542  0.5060  0.0501 -0.2546
   54CHL1   H14 6419   6.685   5.827   9.599  1.4611  1.2933  0.2386
   54CHL1   C15 6420   6.728   5.993   9.476 -0.2532  0.1982  0.1676
   54CHL1  H15A 6421   6.684   6.092   9.452  0.8702  0.4591 -0.8446
   54CHL1  H15B 6422   6.821   5.995   9.538  0.1749  0.4609 -0.4751
   54CHL1   C16 6423   6.763   5.916   9.350  0.4789  0.5702  0.1680
   54CHL1  H16A 6424   6.740   5.983   9.264  1.3839 -0.6587 -1.0447
   54CHL1  H16B 6425   6.869   5.883   9.344  0.6518  0.9296  1.1780
   54CHL1   C17 6426   6.670   5.787   9.336  0.1541 -0.1217  0.2859
   54CHL1   H17 6427   6.732   5.701   9.371 -1.4752 -1.6068 -0.3975
   54CHL1   C13 6428   6.557   5.810   9.436 -0.0783 -0.5389 -0.2192
   54CHL1   C18 6429   6.447   5.897   9.371 -0.3387  0.5421 -0.0516
   54CHL1  H18A 6430   6.380   5.955   9.437 -1.5583  0.8034 -1.4903
   54CHL1  H18B 6431   6.500   5.977   9.315 -0.2175  0.8353  0.4878
   54CHL1  H18C 6432   6.392   5.840   9.293  0.1303 -0.4862  0.3535
   54CHL1   C12 6433   6.504   5.685   9.508 -0.6752  0.0829 -1.0489
   54CHL1  H12A 6434   6.450   5.616   9.439  0.3786 -0.5539 -1.2409
   54CHL1  H12B 6435   6.586   5.624   9.550 -1.9060 -0.3264  0.7924
   54CHL1   C11 6436   6.406   5.730   9.619  0.6715 -0.6041 -0.6140
   54CHL1  H11A 6437   6.306   5.766   9.585 -0.2271 -0.4265  2.0500
   54CHL1  H11B 6438   6.390   5.643   9.687  0.8934  1.3896  2.0723
   54CHL1    C9 6439   6.474   5.835   9.719  0.4286 -0.2732  0.1875
   54CHL1    H9 6440   6.561   5.779   9.760  1.5712  1.3595  0.0215
   54CHL1   C10 6441   6.382   5.875   9.838 -0.7458 -0.3497 -0.3421
   54CHL1   C19 6442   6.251   5.931   9.790 -0.7294  0.5240 -0.0777
   54CHL1  H19A 6443   6.187   5.852   9.745 -0.0053 -1.0583  1.5861
   54CHL1  H19B 6444   6.189   5.981   9.867 -2.0977  2.2509 -2.2445
   54CHL1  H19C 6445   6.271   6.014   9.719 -1.8732  1.6456  0.8836
   54CHL1    C1 6446   6.356   5.747   9.932  0.3252  0.0725 -0.0049
   54CHL1   H1A 6447   6.286   5.686   9.872 -1.9360  2.4544  0.1063
   54CHL1   H1B 6448   6.446   5.683   9.944  1.1291  0.5874 -2.9370
   54CHL1    C2 6449   6.296   5.780  10.070  0.0958 -0.2344  0.8678
   54CHL1   H2A 6450   6.279   5.686  10.126 -1.1529 -1.2523 -1.1780
   54CHL1   H2B 6451   6.202   5.838  10.056 -0.1949 -0.3824  2.1381
   54CHL1   C20 6452   6.634   5.766   9.191 -0.1073  0.3851  0.1100
   54CHL1   H20 6453   6.578   5.848   9.142  0.8928  1.9573  1.5392
   54CHL1   C21 6454   6.565   5.629   9.189 -0.0427  0.4438  0.2393
   54CHL1  H21A 6455   6.552   5.578   9.091 -0.2113 -1.8709  1.4560
   54CHL1  H21B 6456   6.462   5.638   9.228  0.5920 -0.1214  2.0513
   54CHL1  H21C 6457   6.621   5.565   9.259 -0.2804  0.4965  0.4749
   54CHL1   C22 6458   6.762   5.762   9.104  0.8482 -0.8613  0.4016
   54CHL1  H22A 6459   6.811   5.862   9.111  1.2035 -0.8930 -1.3993
   54CHL1  H22B 6460   6.837   5.683   9.122  1.7255  0.0803  0.9496
   54CHL1   C23 6461   6.732   5.753   8.952 -0.0049 -0.9668 -0.3696
   54CHL1  H23A 6462   6.684   5.654   8.937 -2.4380  0.2888 -1.0926
   54CHL1  H23B 6463   6.657   5.835   8.939 -0.5578 -1.2316  1.0424
   54CHL1   C24 6464   6.850   5.777   8.861  0.0257  0.1718 -0.5178
   54CHL1  H24A 6465   6.903   5.871   8.887  0.7301  0.1054 -1.6812
   54CHL1  H24B 6466   6.916   5.690   8.880 -0.0315  0.1958 -0.1954
   54CHL1   C25 6467   6.814   5.780   8.712  0.0860 -0.1916 -0.2513
   54CHL1   H25 6468   6.909   5.767   8.656  0.2265 -1.3103  0.2277
   54CHL1   C26 6469   6.751   5.648   8.684 -0.3209 -0.2976  0.5151
   54CHL1  H26A 6470   6.650   5.650   8.730  1.2439 -0.2731  4.0657
   54CHL1  H26B 6471   6.744   5.618   8.577 -0.9860  2.4448 -0.2603
   54CHL1  H26C 6472   6.809   5.565   8.729 -1.1615 -1.6786 -0.8733
   54CHL1   C27 6473   6.737   5.898   8.651 -0.3787 -0.6150 -0.0531
   54CHL1  H27A 6474   6.638   5.894   8.701 -0.0938  3.1571  0.9312
   54CHL1  H27B 6475   6.791   5.992   8.674 -0.7925 -0.0963 -1.1733
   54CHL1  H27C 6476   6.717   5.885   8.543 -0.1313  1.2002 -0.3243
   55CHL1    C3 6477   0.188   3.315  10.314  0.1918  0.3263  0.1236
   55CHL1    H3 6478   0.077   3.326  10.320  0.1169 -0.8711  1.2307
   55CHL1    O3 6479   0.236   3.325  10.449 -0.0835  0.7997 -0.5847
   55CHL1   H3' 6480   0.237   3.233  10.475  0.5593  1.0330  0.2327
   55CHL1    C4 6481   0.227   3.183  10.249  0.0532  0.2968 -0.5503
   55CHL1   H4A 6482   0.337   3.172  10.240 -0.0510 -0.0598 -1.3958
   55CHL1   H4B 6483   0.185   3.096  10.304 -0.3018  0.0756 -1.1683
   55CHL1    C5 6484   0.174   3.183  10.108  0.7686 -0.0472  0.0546
   55CHL1    C6 6485   0.089   3.090  10.058 -0.1170 -0.4070  0.0853
   55CHL1    H6 6486   0.067   3.001  10.118 -0.8738 -0.1885  0.1391
   55CHL1    C7 6487   0.047   3.082   9.914 -0.2485  0.5190  0.0337
   55CHL1   H7A 6488   0.046   2.977   9.878  2.4966 -0.2651  2.0671
   55CHL1   H7B 6489  -0.061   3.109   9.912  0.1029  2.0457  1.0584
   55CHL1    C8 6490   0.129   3.171   9.815 -0.0024  0.8334 -0.2439
   55CHL1    H8 6491   0.228   3.123   9.802  0.1578  0.8120  0.9485
   55CHL1   C14 6492   0.062   3.185   9.681 -0.9545 -1.4458 -0.0295
   55CHL1   H14 6493  -0.037   3.229   9.705 -0.1808 -0.3647  1.2796
   55CHL1   C15 6494   0.023   3.055   9.605 -1.0951 -0.0252 -0.1739
   55CHL1  H15A 6495   0.098   2.973   9.612 -1.8036 -0.5132  2.0108
   55CHL1  H15B 6496  -0.075   3.010   9.633 -0.3096 -0.6496  1.6220
   55CHL1   C16 6497   0.010   3.094   9.458 -0.4036  0.1229  0.2256
   55CHL1  H16A 6498   0.095   3.049   9.404 -1.1156 -2.1019  0.8945
   55CHL1  H16B 6499  -0.082   3.053   9.410 -1.1969  1.6823  0.3766
   55CHL1   C17 6500   0.020   3.249   9.461  0.5165  0.4063  0.7790
   55CHL1   H17 6501  -0.081   3.284   9.493 -0.9658 -0.8715 -2.3054
   55CHL1   C13 6502   0.124   3.280   9.584 -0.2270 -0.2080  0.1215
   55CHL1   C18 6503   0.264   3.234   9.548 -0.3374  0.2607 -0.0041
   55CHL1  H18A 6504   0.305   3.290   9.461 -0.1375  1.5716  0.9288
   55CHL1  H18B 6505   0.339   3.240   9.629 -0.9637  1.3145  0.5199
   55CHL1  H18C 6506   0.256   3.126   9.522 -0.1956  0.1441  0.4380
   55CHL1   C12 6507   0.123   3.416   9.649 -1.2205 -0.3828 -0.5889
   55CHL1  H12A 6508   0.167   3.488   9.577  0.5497 -1.0018 -0.1439
   55CHL1  H12B 6509   0.018   3.450   9.661 -0.2777  2.4413  0.1590
   55CHL1   C11 6510   0.206   3.416   9.777  0.1202  0.5381  0.4627
   55CHL1  H11A 6511   0.313   3.400   9.750  0.8820  1.5320  2.7424
   55CHL1  H11B 6512   0.209   3.515   9.829 -1.0596  0.9292 -0.1936
   55CHL1    C9 6513   0.152   3.316   9.879  0.7764  0.6838  0.4397
   55CHL1    H9 6514   0.048   3.352   9.891  0.4414 -0.1075 -0.0443
   55CHL1   C10 6515   0.216   3.308  10.019 -0.3932  0.8140  0.2482
   55CHL1   C19 6516   0.369   3.295   9.984 -0.3050  0.0153 -0.2893
   55CHL1  H19A 6517   0.386   3.207   9.918 -2.1010 -0.0417 -0.7065
   55CHL1  H19B 6518   0.408   3.382   9.926 -0.9918 -0.5489 -1.6066
   55CHL1  H19C 6519   0.429   3.273  10.075  1.5266  1.4654 -1.0987
   55CHL1    C1 6520   0.193   3.449  10.088  0.3159 -0.4394  0.2190
   55CHL1   H1A 6521   0.249   3.528  10.032 -0.3016 -0.3856 -0.3240
   55CHL1   H1B 6522   0.084   3.468  10.089  0.3479 -0.2201 -0.1807
   55CHL1    C2 6523   0.234   3.437  10.236  0.1860  0.4268 -0.1535
   55CHL1   H2A 6524   0.202   3.525  10.295 -2.3587 -0.8752  0.4775
   55CHL1   H2B 6525   0.344   3.433  10.244  0.0645 -1.3057  0.7826
   55CHL1   C20 6526   0.061   3.294   9.324  0.5115  0.8570  0.1074
   55CHL1   H20 6527   0.152   3.241   9.290  1.2123  1.5642  0.8945
   55CHL1   C21 6528   0.112   3.438   9.321  0.4090 -0.0952  0.2269
   55CHL1  H21A 6529   0.214   3.442   9.363 -0.1048  4.7825  1.2977
   55CHL1  H21B 6530   0.040   3.513   9.360  2.6034  1.0894  2.1376
   55CHL1  H21C 6531   0.129   3.474   9.217  0.3699 -0.3673  0.1255
   55CHL1   C22 6532  -0.064   3.274   9.228  0.5033 -0.3254  0.4138
   55CHL1  H22A 6533  -0.154   3.263   9.292 -3.4133  3.5933 -3.9027
   55CHL1  H22B 6534  -0.075   3.373   9.177 -0.8381 -0.4372  0.4804
   55CHL1   C23 6535  -0.047   3.170   9.122 -0.3941 -0.1918 -0.8944
   55CHL1  H23A 6536   0.022   3.212   9.046 -1.1209  3.4233  0.3574
   55CHL1  H23B 6537  -0.004   3.078   9.168 -0.4237  0.0471 -0.3977
   55CHL1   C24 6538  -0.183   3.129   9.065 -0.0471  0.0824  0.7004
   55CHL1  H24A 6539  -0.256   3.101   9.143 -3.0666  1.4610 -1.5356
   55CHL1  H24B 6540  -0.221   3.222   9.019  0.9858 -0.5165 -1.4512
   55CHL1   C25 6541  -0.166   3.012   8.958 -0.5399  0.6640  0.2235
   55CHL1   H25 6542  -0.117   3.043   8.864 -0.2816 -1.4800 -0.3696
   55CHL1   C26 6543  -0.097   2.885   9.010 -0.0996 -0.1437 -0.1561
   55CHL1  H26A 6544   0.012   2.897   9.024 -0.1160 -2.5645  2.6518
   55CHL1  H26B 6545  -0.133   2.874   9.114  1.2664 -1.3189  0.1998
   55CHL1  H26C 6546  -0.113   2.794   8.947 -0.8981 -0.6535  0.7544
   55CHL1   C27 6547  -0.301   2.982   8.903 -0.0554 -0.0127 -0.3613
   55CHL1  H27A 6548  -0.316   2.894   8.836  1.4157 -0.0243 -0.6929
   55CHL1  H27B 6549  -0.371   2.950   8.983  0.4113  1.1966  0.5335
   55CHL1  H27C 6550  -0.338   3.080   8.866  0.7655  0.4005 -0.1124
   56CHL1    C3 6551   4.289   2.098  10.061 -0.3671 -0.4876 -0.6743
   56CHL1    H3 6552   4.182   2.123  10.048 -0.4244 -0.7370 -0.6744
   56CHL1    O3 6553   4.323   2.122  10.198  0.0187  0.4409 -0.1351
   56CHL1   H3' 6554   4.312   2.218  10.198  0.9449  0.5597 -0.7622
   56CHL1    C4 6555   4.305   1.953  10.017 -0.2411  0.3800  0.1392
   56CHL1   H4A 6556   4.412   1.929  10.039 -0.0656 -0.2037 -1.3106
   56CHL1   H4B 6557   4.254   1.881  10.083  0.5055  0.9408  1.3524
   56CHL1    C5 6558   4.256   1.943   9.875 -0.1519 -0.1524  0.2614
   56CHL1    C6 6559   4.160   1.861   9.831  0.2040 -0.5062  0.0919
   56CHL1    H6 6560   4.110   1.804   9.910  1.3850  0.6735  1.7216
   56CHL1    C7 6561   4.125   1.844   9.685 -0.2128  0.6632  0.0768
   56CHL1   H7A 6562   4.121   1.736   9.659  1.1869  0.1381  1.9393
   56CHL1   H7B 6563   4.037   1.906   9.660 -1.2651 -0.6013  0.6358
   56CHL1    C8 6564   4.244   1.894   9.590  0.1122 -0.0622  0.5512
   56CHL1    H8 6565   4.328   1.821   9.597  0.6059  0.1573 -2.6542
   56CHL1   C14 6566   4.193   1.894   9.450  0.1150 -0.1059  0.0562
   56CHL1   H14 6567   4.107   1.963   9.462 -0.3225 -0.6219 -0.0665
   56CHL1   C15 6568   4.131   1.771   9.381 -0.3263  0.2283  0.0312
   56CHL1  H15A 6569   4.188   1.679   9.408  0.2573  0.8019  0.7789
   56CHL1  H15B 6570   4.028   1.752   9.420  0.8473  0.6572  3.4824
   56CHL1   C16 6571   4.119   1.798   9.230 -0.8461  0.2595 -0.3974
   56CHL1  H16A 6572   4.170   1.716   9.175 -1.1769  0.2127 -0.6373
   56CHL1  H16B 6573   4.016   1.803   9.188 -0.5902  1.7224 -0.9073
   56CHL1   C17 6574   4.206   1.933   9.209 -0.0694  0.2876  0.1381
   56CHL1   H17 6575   4.140   2.022   9.211 -0.5160 -0.0223 -0.7004
   56CHL1   C13 6576   4.283   1.953   9.340 -0.3252  0.4178 -0.1516
   56CHL1   C18 6577   4.414   1.861   9.329 -0.8821 -0.6752  0.3440
   56CHL1  H18A 6578   4.494   1.907   9.267 -0.1561 -0.6198  1.3223
   56CHL1  H18B 6579   4.463   1.849   9.427  0.4750  1.6131 -0.0333
   56CHL1  H18C 6580   4.393   1.759   9.290 -0.8324 -0.4744 -0.2256
   56CHL1   C12 6581   4.319   2.092   9.382 -0.2813 -1.0515 -0.5100
   56CHL1  H12A 6582   4.408   2.126   9.324 -0.6392 -2.2394 -1.7669
   56CHL1  H12B 6583   4.238   2.166   9.365  1.3964  1.3298  1.4208
   56CHL1   C11 6584   4.374   2.105   9.526 -0.1711  0.2579  0.4024
   56CHL1  H11A 6585   4.474   2.057   9.522 -0.8425 -1.2945  1.9016
   56CHL1  H11B 6586   4.397   2.210   9.554 -2.3864  1.0710 -0.7042
   56CHL1    C9 6587   4.284   2.037   9.631 -0.3030 -0.0847  0.2875
   56CHL1    H9 6588   4.194   2.103   9.634 -0.6330 -0.5498  0.8569
   56CHL1   C10 6589   4.333   2.038   9.777  0.0257  0.5783 -0.5208
   56CHL1   C19 6590   4.480   1.992   9.772 -0.5654 -0.0214 -0.0329
   56CHL1  H19A 6591   4.522   1.967   9.872  0.2293 -2.1173 -0.8667
   56CHL1  H19B 6592   4.502   1.904   9.708 -1.6445 -2.4862  2.8379
   56CHL1  H19C 6593   4.543   2.070   9.726 -0.4715  1.7237  2.9175
   56CHL1    C1 6594   4.329   2.183   9.831  0.0513 -0.3155  0.1956
   56CHL1   H1A 6595   4.389   2.248   9.764 -0.4912 -0.8388 -0.8069
   56CHL1   H1B 6596   4.223   2.211   9.815 -0.1218 -1.7080 -1.2003
   56CHL1    C2 6597   4.364   2.201   9.974  0.0092  0.0500 -0.3063
   56CHL1   H2A 6598   4.333   2.301  10.011  0.1620 -0.2310  0.6006
   56CHL1   H2B 6599   4.473   2.197   9.993  0.4166 -0.4171 -2.6785
   56CHL1   C20 6600   4.280   1.933   9.080  0.0450 -0.0413  0.4833
   56CHL1   H20 6601   4.358   1.854   9.071  1.9073  1.8639 -0.5630
   56CHL1   C21 6602   4.356   2.063   9.055  0.9937 -0.0394 -0.0003
   56CHL1  H21A 6603   4.391   2.071   8.950 -2.1305 -1.7375 -1.2134
   56CHL1  H21B 6604   4.450   2.061   9.115  0.2178  1.4316  1.2953
   56CHL1  H21C 6605   4.301   2.154   9.087  2.2969  0.5520  0.6215
   56CHL1   C22 6606   4.194   1.902   8.954  0.3746 -0.0854 -0.3781
   56CHL1  H22A 6607   4.261   1.912   8.866 -1.2389 -0.3324 -1.6564
   56CHL1  H22B 6608   4.157   1.797   8.957 -1.1488  0.4313 -0.5662
   56CHL1   C23 6609   4.072   2.001   8.931 -0.5401 -0.2355 -0.0488
   56CHL1  H23A 6610   4.011   2.025   9.021 -1.6082  0.4174 -0.9364
   56CHL1  H23B 6611   4.116   2.101   8.910  0.4287 -0.5291  0.5280
   56CHL1   C24 6612   3.983   1.952   8.815 -0.4020  0.6424 -0.2775
   56CHL1  H24A 6613   3.925   2.033   8.767  2.1584  2.2112 -0.8485
   56CHL1  H24B 6614   4.058   1.915   8.741 -0.6599  0.2560 -0.3483
   56CHL1   C25 6615   3.887   1.843   8.848 -0.0307 -0.3574  0.7332
   56CHL1   H25 6616   3.947   1.750   8.855 -1.9684 -1.6231  0.9543
   56CHL1   C26 6617   3.804   1.873   8.976 -0.1828 -0.2781 -0.5100
   56CHL1  H26A 6618   3.732   1.792   8.998 -1.1820  0.2555 -1.7906
   56CHL1  H26B 6619   3.866   1.880   9.068 -1.0919 -0.5961  0.1244
   56CHL1  H26C 6620   3.753   1.971   8.970 -1.7436 -0.9974  0.8398
   56CHL1   C27 6621   3.786   1.840   8.735  0.5297 -0.1412  0.1888
   56CHL1  H27A 6622   3.845   1.843   8.640  0.5409  0.1181  0.2044
   56CHL1  H27B 6623   3.716   1.754   8.746  0.7324 -0.6266 -1.9972
   56CHL1  H27C 6624   3.718   1.927   8.737 -0.1653 -0.6991  1.0762
   57CHL1    C3 6625   0.081   4.333  10.229  0.2259  0.4365 -0.3351
   57CHL1    H3 6626   0.023   4.244  10.197 -0.0406  0.6131 -0.3432
   57CHL1    O3 6627   0.067   4.363  10.366 -0.7941 -0.2442  0.3060
   57CHL1   H3' 6628   0.158   4.377  10.393 -0.5823 -1.2208  0.1337
   57CHL1    C4 6629   0.236   4.320  10.200  0.0528  0.0439 -0.7191
   57CHL1   H4A 6630   0.292   4.408  10.237  0.0870 -0.2623 -0.0467
   57CHL1   H4B 6631   0.273   4.233  10.258  0.7527  0.5077 -0.4689
   57CHL1    C5 6632   0.255   4.298  10.055  0.3785  0.0248 -0.2307
   57CHL1    C6 6633   0.309   4.188  10.007 -0.3620 -0.5916 -0.2857
   57CHL1    H6 6634   0.347   4.111  10.075  1.3119  0.3308 -0.1510
   57CHL1    C7 6635   0.312   4.154   9.859 -0.4952 -0.4085  0.4796
   57CHL1   H7A 6636   0.407   4.097   9.847 -1.5364 -1.8397 -1.1313
   57CHL1   H7B 6637   0.227   4.098   9.814 -4.0168  3.3238  2.1594
   57CHL1    C8 6638   0.319   4.287   9.772 -0.0050  0.4799 -0.5172
   57CHL1    H8 6639   0.413   4.342   9.796 -1.5153  3.1544 -0.5631
   57CHL1   C14 6640   0.301   4.252   9.620  0.4432 -0.2415  0.2053
   57CHL1   H14 6641   0.200   4.207   9.607  1.1398 -0.8521 -3.5333
   57CHL1   C15 6642   0.392   4.153   9.553  0.6226  0.3231 -0.5369
   57CHL1  H15A 6643   0.494   4.188   9.580  0.6810 -1.6633  2.0029
   57CHL1  H15B 6644   0.361   4.055   9.595  0.3171  0.4444 -0.4774
   57CHL1   C16 6645   0.350   4.174   9.407 -0.1252 -0.1998 -0.3647
   57CHL1  H16A 6646   0.438   4.199   9.344  1.0774 -1.3701  0.8121
   57CHL1  H16B 6647   0.299   4.090   9.356  1.7190 -0.6439 -1.5474
   57CHL1   C17 6648   0.252   4.294   9.394  0.1080  0.1235 -0.9963
   57CHL1   H17 6649   0.148   4.254   9.398  0.4780 -1.0352 -2.6210
   57CHL1   C13 6650   0.279   4.374   9.530  0.5684  0.3004 -0.6392
   57CHL1   C18 6651   0.408   4.455   9.521  0.5024 -0.0947 -0.4240
   57CHL1  H18A 6652   0.454   4.492   9.615  1.0962  1.1522 -1.1989
   57CHL1  H18B 6653   0.486   4.385   9.483 -0.6312 -1.6640  0.0661
   57CHL1  H18C 6654   0.407   4.535   9.444 -0.6545 -0.6734 -1.0151
   57CHL1   C12 6655   0.163   4.458   9.585  0.1600 -0.3733  0.0136
   57CHL1  H12A 6656   0.148   4.550   9.526 -2.9206 -1.8427 -1.6255
   57CHL1  H12B 6657   0.064   4.408   9.577  0.6593 -1.2268 -0.9994
   57CHL1   C11 6658   0.175   4.503   9.733  0.0518  0.6923 -0.7606
   57CHL1  H11A 6659   0.252   4.583   9.734  2.7389 -1.8014  0.9681
   57CHL1  H11B 6660   0.079   4.546   9.768  0.6287  0.7654  0.7600
   57CHL1    C9 6661   0.207   4.377   9.819  0.7469 -0.2541  0.5522
   57CHL1    H9 6662   0.114   4.318   9.808 -0.1947  1.4881 -1.1907
   57CHL1   C10 6663   0.201   4.413   9.969 -0.8301  0.0006 -0.1802
   57CHL1   C19 6664   0.285   4.538  10.004 -0.4175 -0.6648  0.5864
   57CHL1  H19A 6665   0.392   4.518   9.985 -0.0569  2.6402 -1.3230
   57CHL1  H19B 6666   0.260   4.629   9.945  1.7657  0.7742  1.8344
   57CHL1  H19C 6667   0.278   4.569  10.110  0.8138 -1.3615  0.8726
   57CHL1    C1 6668   0.051   4.448  10.006  0.1150 -0.2173  0.3621
   57CHL1   H1A 6669   0.022   4.543   9.957  1.0003 -0.4250 -0.5707
   57CHL1   H1B 6670  -0.017   4.373   9.960  0.0157  0.8465 -1.2493
   57CHL1    C2 6671   0.022   4.455  10.157 -0.2155 -0.0666 -0.5202
   57CHL1   H2A 6672  -0.086   4.475  10.172  0.0993 -0.0261  1.8312
   57CHL1   H2B 6673   0.081   4.539  10.200  0.1335 -0.6530  0.1529
   57CHL1   C20 6674   0.260   4.360   9.252  0.3316  0.3092  0.1110
   57CHL1   H20 6675   0.368   4.374   9.230  1.1054 -2.7731  1.6447
   57CHL1   C21 6676   0.200   4.493   9.253 -0.3203  0.6976 -0.0547
   57CHL1  H21A 6677   0.092   4.488   9.277 -0.4523  0.0253 -0.7689
   57CHL1  H21B 6678   0.202   4.555   9.161 -0.6503  1.3423  0.3705
   57CHL1  H21C 6679   0.243   4.562   9.328 -1.6843  1.2268  0.2544
   57CHL1   C22 6680   0.211   4.258   9.146  0.2815 -0.1972  0.3581
   57CHL1  H22A 6681   0.223   4.153   9.182  0.5887 -0.8506 -1.5381
   57CHL1  H22B 6682   0.103   4.278   9.131 -0.1332 -2.9576 -0.6722
   57CHL1   C23 6683   0.279   4.272   9.012  0.3313 -0.0921  0.2888
   57CHL1  H23A 6684   0.294   4.380   8.992  0.5302  0.6097  3.8815
   57CHL1  H23B 6685   0.384   4.235   9.017  0.6393  0.7091 -0.2153
   57CHL1   C24 6686   0.200   4.207   8.889 -0.6329  0.3586  0.0562
   57CHL1  H24A 6687   0.203   4.096   8.896 -1.3375  0.4254  1.6625
   57CHL1  H24B 6688   0.095   4.242   8.891 -0.7084  0.2379 -1.4074
   57CHL1   C25 6689   0.268   4.227   8.751 -0.4363  0.0674  0.2028
   57CHL1   H25 6690   0.281   4.335   8.728 -1.6407  0.1128 -0.3132
   57CHL1   C26 6691   0.407   4.145   8.748 -0.7181  0.3587 -0.0333
   57CHL1  H26A 6692   0.403   4.065   8.825 -0.2371  0.7804  0.4341
   57CHL1  H26B 6693   0.422   4.094   8.651  1.0225  1.8135 -0.5676
   57CHL1  H26C 6694   0.493   4.210   8.778 -0.8614  0.0560  1.0687
   57CHL1   C27 6695   0.175   4.166   8.647  0.5865 -1.2297  0.7709
   57CHL1  H27A 6696   0.183   4.055   8.651  1.2616 -1.2467 -0.6906
   57CHL1  H27B 6697   0.069   4.200   8.649  0.7976 -0.5481  0.4459
   57CHL1  H27C 6698   0.212   4.190   8.545  0.7862 -1.5359  0.7724
   58CHL1    C3 6699   2.861   3.053  10.131  0.3925  0.1314  0.5449
   58CHL1    H3 6700   2.819   2.955  10.100  2.8328 -0.8122  0.1456
   58CHL1    O3 6701   2.885   3.063  10.268 -0.1282  0.1377 -0.1126
   58CHL1   H3' 6702   2.930   3.148  10.271 -0.2251  0.1697  0.5363
   58CHL1    C4 6703   2.989   3.040  10.045  0.4118 -0.5509  0.0757
   58CHL1   H4A 6704   3.049   3.128  10.076 -0.9010  0.1367  0.7020
   58CHL1   H4B 6705   3.051   2.953  10.077  2.7673  0.5009 -1.4656
   58CHL1    C5 6706   2.976   3.040   9.894 -0.2847 -0.2782  0.1339
   58CHL1    C6 6707   3.026   2.945   9.812 -0.3885 -0.0546  0.3547
   58CHL1    H6 6708   3.104   2.890   9.865 -0.3077 -0.1930  0.0921
   58CHL1    C7 6709   3.006   2.945   9.666 -0.1534  0.1083 -0.2160
   58CHL1   H7A 6710   3.099   2.935   9.607 -0.3536  0.0136 -0.5166
   58CHL1   H7B 6711   2.948   2.852   9.647 -1.0882  0.7930 -0.7247
   58CHL1    C8 6712   2.932   3.077   9.604 -0.7634 -0.0603 -0.9363
   58CHL1    H8 6713   3.005   3.160   9.590  0.6404 -1.0887  0.0997
   58CHL1   C14 6714   2.884   3.047   9.463  0.0046  0.2915  0.0240
   58CHL1   H14 6715   2.809   2.970   9.487 -1.4947  1.3594 -1.1727
   58CHL1   C15 6716   2.978   2.981   9.357 -0.5934 -0.6561 -0.6807
   58CHL1  H15A 6717   3.076   3.032   9.348 -0.7787 -0.3542 -0.9607
   58CHL1  H15B 6718   3.016   2.880   9.385  0.7369 -0.0969 -0.4542
   58CHL1   C16 6719   2.885   2.981   9.235 -0.0348  0.0924 -0.2219
   58CHL1  H16A 6720   2.950   3.009   9.149 -0.4008  1.7434  0.0406
   58CHL1  H16B 6721   2.830   2.885   9.231 -0.9943  0.5210  2.2411
   58CHL1   C17 6722   2.769   3.085   9.266  0.1818  0.3221  0.4364
   58CHL1   H17 6723   2.679   3.025   9.290  1.0388 -1.6990 -1.2491
   58CHL1   C13 6724   2.808   3.157   9.398 -0.0272  0.6598  0.1411
   58CHL1   C18 6725   2.901   3.270   9.353  0.0017  0.1423  0.5162
   58CHL1  H18A 6726   2.839   3.350   9.307  1.2699  1.0058  0.2746
   58CHL1  H18B 6727   2.960   3.307   9.439  0.0838  1.6671 -0.1783
   58CHL1  H18C 6728   2.980   3.233   9.284 -0.9080  0.2857 -0.6077
   58CHL1   C12 6729   2.695   3.206   9.488 -0.2369 -0.9271 -0.1968
   58CHL1  H12A 6730   2.645   3.299   9.452 -0.0232 -1.6906 -2.5199
   58CHL1  H12B 6731   2.617   3.127   9.494 -1.4356  0.3585  2.0262
   58CHL1   C11 6732   2.744   3.230   9.629  0.1831 -0.5182  0.8401
   58CHL1  H11A 6733   2.802   3.323   9.615  0.5074 -1.0527 -1.7612
   58CHL1  H11B 6734   2.656   3.256   9.691 -0.0520  0.9064 -0.0672
   58CHL1    C9 6735   2.824   3.113   9.692 -0.4638  0.2576  1.4284
   58CHL1    H9 6736   2.758   3.024   9.702 -0.8459  0.6114  2.0805
   58CHL1   C10 6737   2.871   3.139   9.841 -0.4775 -0.0990  0.0048
   58CHL1   C19 6738   2.927   3.274   9.852  1.0677 -0.3457 -0.0680
   58CHL1  H19A 6739   3.020   3.285   9.793  2.8509 -1.6626  2.4294
   58CHL1  H19B 6740   2.851   3.347   9.818  0.9535 -1.4499 -2.3165
   58CHL1  H19C 6741   2.957   3.303   9.955 -0.1610  0.0935  0.1748
   58CHL1    C1 6742   2.745   3.139   9.936  0.7613 -0.5292 -0.4670
   58CHL1   H1A 6743   2.670   3.215   9.908  0.0702 -1.0157  0.0580
   58CHL1   H1B 6744   2.695   3.041   9.917  1.8820 -0.7823 -2.2581
   58CHL1    C2 6745   2.761   3.158  10.083 -0.4579  0.0212  0.1861
   58CHL1   H2A 6746   2.667   3.153  10.142 -0.3022  1.0929  0.5371
   58CHL1   H2B 6747   2.790   3.264  10.099  1.1573  0.1322 -3.1270
   58CHL1   C20 6748   2.740   3.174   9.144  0.4158  0.1257 -0.2760
   58CHL1   H20 6749   2.821   3.246   9.121  0.8438 -0.5766 -1.0057
   58CHL1   C21 6750   2.605   3.258   9.158 -0.0826  0.6946 -0.2846
   58CHL1  H21A 6751   2.524   3.193   9.199 -0.8808  0.7151 -1.8000
   58CHL1  H21B 6752   2.573   3.288   9.056 -1.3055 -1.1462 -0.4564
   58CHL1  H21C 6753   2.622   3.338   9.234  2.6058  0.1159 -0.2322
   58CHL1   C22 6754   2.714   3.099   9.007  0.5859 -0.0990 -1.0130
   58CHL1  H22A 6755   2.757   2.996   9.001  0.6626 -0.1559  0.2415
   58CHL1  H22B 6756   2.604   3.089   8.993  0.2266  1.1122  0.8393
   58CHL1   C23 6757   2.773   3.173   8.885  0.7573 -0.1704 -0.5924
   58CHL1  H23A 6758   2.736   3.277   8.870 -2.3944 -1.2405 -0.6981
   58CHL1  H23B 6759   2.883   3.184   8.889  0.6764  0.7589 -0.7844
   58CHL1   C24 6760   2.727   3.108   8.750  0.0901  0.5234 -0.4797
   58CHL1  H24A 6761   2.773   3.007   8.743 -0.9279 -0.0117  0.4163
   58CHL1  H24B 6762   2.621   3.079   8.766  0.1937  0.0179 -0.7068
   58CHL1   C25 6763   2.743   3.194   8.624 -0.5607  1.2712 -0.3467
   58CHL1   H25 6764   2.655   3.261   8.619 -1.6802 -0.1608 -0.1290
   58CHL1   C26 6765   2.868   3.282   8.636 -0.1392 -0.3030  0.3580
   58CHL1  H26A 6766   2.880   3.330   8.536 -0.4323 -1.8903 -0.4597
   58CHL1  H26B 6767   2.867   3.365   8.709 -0.1150 -0.2695  0.3213
   58CHL1  H26C 6768   2.958   3.219   8.655  0.0524 -0.5597 -1.3235
   58CHL1   C27 6769   2.753   3.102   8.497  0.4464 -0.7051  0.4247
   58CHL1  H27A 6770   2.768   3.176   8.415  1.4541 -1.9131 -0.5014
   58CHL1  H27B 6771   2.843   3.039   8.513 -0.2307 -1.3626  1.6732
   58CHL1  H27C 6772   2.661   3.042   8.482 -0.0492  0.5721 -1.8955
   59CHL1    C3 6773   2.202   2.430  10.569 -0.0409  0.2408 -0.3558
   59CHL1    H3 6774   2.308   2.463  10.558 -0.1983  0.4343 -1.3321
   59CHL1    O3 6775   2.174   2.431  10.712 -0.4252  0.1383 -0.4866
   59CHL1   H3' 6776   2.096   2.377  10.720 -1.1783  0.8086 -2.9338
   59CHL1    C4 6777   2.117   2.533  10.498  0.0671  0.1993 -0.3821
   59CHL1   H4A 6778   2.014   2.497  10.522  0.1774  0.5055  0.5490
   59CHL1   H4B 6779   2.138   2.632  10.545  1.5565  1.0718 -2.7607
   59CHL1    C5 6780   2.140   2.546  10.348  0.3201  1.1139 -0.0893
   59CHL1    C6 6781   2.163   2.667  10.301 -0.0158 -0.0120  0.7516
   59CHL1    H6 6782   2.166   2.756  10.367 -1.3203 -0.2523  1.1469
   59CHL1    C7 6783   2.169   2.689  10.155 -0.2121 -0.4664  0.4581
   59CHL1   H7A 6784   2.099   2.770  10.123 -0.4402 -1.2543 -1.0513
   59CHL1   H7B 6785   2.275   2.718  10.135 -0.1892 -2.0764 -1.9605
   59CHL1    C8 6786   2.139   2.557  10.065 -0.6800  0.0185 -0.7209
   59CHL1    H8 6787   2.029   2.551  10.058 -0.7177  0.8108 -0.8691
   59CHL1   C14 6788   2.177   2.574   9.914 -0.3681 -0.2892 -1.1051
   59CHL1   H14 6789   2.287   2.591   9.919 -0.3068 -0.4958 -1.7714
   59CHL1   C15 6790   2.136   2.693   9.841 -0.8675  0.0564 -0.2712
   59CHL1  H15A 6791   2.031   2.714   9.871 -0.7486  1.4808 -0.8129
   59CHL1  H15B 6792   2.191   2.784   9.872 -1.3048  0.3532 -0.3679
   59CHL1   C16 6793   2.151   2.659   9.694  0.0638 -0.5662  0.1489
   59CHL1  H16A 6794   2.051   2.675   9.648 -1.2311  2.8427  3.8505
   59CHL1  H16B 6795   2.216   2.733   9.642 -0.7484  1.0264  1.3585
   59CHL1   C17 6796   2.202   2.515   9.687  0.1468 -0.4446  0.1627
   59CHL1   H17 6797   2.312   2.511   9.698  0.4651  1.9313 -1.7826
   59CHL1   C13 6798   2.151   2.461   9.822 -0.8628 -0.5258 -0.1616
   59CHL1   C18 6799   2.000   2.436   9.800  0.1626 -0.3097  0.7164
   59CHL1  H18A 6800   1.960   2.424   9.902  0.2544 -1.2574  0.6458
   59CHL1  H18B 6801   1.945   2.511   9.740 -0.3056 -3.6327 -3.1944
   59CHL1  H18C 6802   1.996   2.334   9.757 -1.0801 -0.3112  0.8419
   59CHL1   C12 6803   2.219   2.336   9.885  0.3379  0.2337 -0.0396
   59CHL1  H12A 6804   2.190   2.245   9.829 -0.2828 -0.3510  1.2226
   59CHL1  H12B 6805   2.330   2.341   9.883  0.4316 -1.5698  0.3713
   59CHL1   C11 6806   2.179   2.310  10.029  0.5741 -0.2930  0.1544
   59CHL1  H11A 6807   2.073   2.277  10.032 -0.1678  1.7110 -2.2721
   59CHL1  H11B 6808   2.230   2.222  10.074 -2.1070 -1.2121  1.5545
   59CHL1    C9 6809   2.194   2.427  10.126 -0.0982 -0.0060 -0.6476
   59CHL1    H9 6810   2.301   2.450  10.140 -0.7927  2.6420  0.6249
   59CHL1   C10 6811   2.140   2.410  10.270 -0.3621 -0.3104 -0.3323
   59CHL1   C19 6812   1.989   2.369  10.265 -0.1388 -0.9058 -0.4741
   59CHL1  H19A 6813   1.955   2.351  10.369  1.6286  0.2690  0.3395
   59CHL1  H19B 6814   1.917   2.437  10.215 -1.1835 -0.2611  1.8482
   59CHL1  H19C 6815   1.975   2.265  10.227  1.7033 -1.0115 -0.9430
   59CHL1    C1 6816   2.220   2.303  10.351 -0.9632  0.4444  0.3721
   59CHL1   H1A 6817   2.212   2.199  10.313 -0.2926  0.6367 -0.3078
   59CHL1   H1B 6818   2.328   2.325  10.334 -0.9325 -0.6439 -0.9152
   59CHL1    C2 6819   2.184   2.293  10.498 -0.6960 -0.0546 -0.0533
   59CHL1   H2A 6820   2.255   2.222  10.546  0.9240 -0.1440 -2.5206
   59CHL1   H2B 6821   2.084   2.247  10.511 -1.5047  0.5860 -3.5722
   59CHL1   C20 6822   2.166   2.436   9.553 -0.1254  0.2802  0.0523
   59CHL1   H20 6823   2.065   2.391   9.546  0.0239 -0.0632  0.1038
   59CHL1   C21 6824   2.270   2.319   9.531 -0.3633  0.6622  0.4419
   59CHL1  H21A 6825   2.265   2.242   9.611  0.6917 -1.0508 -1.1078
   59CHL1  H21B 6826   2.372   2.357   9.507 -0.3321  0.2977 -0.0098
   59CHL1  H21C 6827   2.240   2.259   9.443  1.1319  0.1332  0.2807
   59CHL1   C22 6828   2.171   2.533   9.435  0.6895 -0.1649 -0.4719
   59CHL1  H22A 6829   2.094   2.612   9.446 -0.4926 -1.0502 -2.1469
   59CHL1  H22B 6830   2.271   2.580   9.427  0.6862 -0.0706  0.0129
   59CHL1   C23 6831   2.135   2.460   9.302 -0.5045  0.0027 -0.3122
   59CHL1  H23A 6832   2.223   2.400   9.269  1.5688  2.7458  0.0406
   59CHL1  H23B 6833   2.050   2.390   9.319 -0.2175 -0.2242  0.2328
   59CHL1   C24 6834   2.092   2.558   9.191 -0.1301  0.3555  0.4766
   59CHL1  H24A 6835   1.991   2.604   9.202  0.3539  2.0143 -1.7725
   59CHL1  H24B 6836   2.172   2.635   9.195  2.5509 -2.4303  1.2524
   59CHL1   C25 6837   2.105   2.502   9.043  0.3479 -0.3316 -0.0820
   59CHL1   H25 6838   2.215   2.488   9.032 -0.0820 -0.3328 -5.8198
   59CHL1   C26 6839   2.019   2.377   9.023  0.6594  0.8342  0.2877
   59CHL1  H26A 6840   2.054   2.335   8.926  1.3207 -1.5182  1.5235
   59CHL1  H26B 6841   2.046   2.293   9.091  0.1885 -1.2198 -2.0114
   59CHL1  H26C 6842   1.909   2.390   9.018  0.4742 -0.5745  0.4937
   59CHL1   C27 6843   2.069   2.609   8.944  0.6294 -0.5977 -0.6254
   59CHL1  H27A 6844   2.072   2.586   8.835  0.1626  1.3931 -1.0820
   59CHL1  H27B 6845   1.970   2.650   8.974  0.7954  0.2846 -1.2520
   59CHL1  H27C 6846   2.133   2.700   8.951  0.9652 -0.9243  0.6656
   60CHL1    C3 6847   2.214   1.025  10.264  0.2608 -0.5571  0.0428
   60CHL1    H3 6848   2.139   0.949  10.232  2.1072 -1.7018 -1.7310
   60CHL1    O3 6849   2.205   1.015  10.406 -0.0747  0.1715  0.6102
   60CHL1   H3' 6850   2.271   1.077  10.437  0.3304  0.0351  0.0226
   60CHL1    C4 6851   2.347   0.980  10.205 -0.0158  0.2361 -0.5512
   60CHL1   H4A 6852   2.428   1.048  10.238 -0.6258  0.1310  1.2298
   60CHL1   H4B 6853   2.371   0.881  10.249  0.4078  0.3015 -0.6316
   60CHL1    C5 6854   2.325   0.987  10.054  0.5479  0.1160  0.6271
   60CHL1    C6 6855   2.342   0.876   9.980  0.2563  0.4477  0.3038
   60CHL1    H6 6856   2.375   0.780  10.024  2.7394  1.5411  0.9096
   60CHL1    C7 6857   2.351   0.878   9.836 -0.1750 -0.2158  0.2346
   60CHL1   H7A 6858   2.448   0.830   9.814  0.3376  0.2730  1.3783
   60CHL1   H7B 6859   2.267   0.818   9.795  0.5912 -0.4378 -1.0371
   60CHL1    C8 6860   2.348   1.020   9.766 -0.6267  0.2816  0.1262
   60CHL1    H8 6861   2.449   1.066   9.768  0.4532 -2.0338  0.1344
   60CHL1   C14 6862   2.295   1.003   9.621 -0.3566 -0.8312 -0.7344
   60CHL1   H14 6863   2.196   0.956   9.640 -1.9119  2.8976  0.8249
   60CHL1   C15 6864   2.375   0.908   9.529  0.1926  0.4859  0.4687
   60CHL1  H15A 6865   2.485   0.922   9.533  0.1758  0.8027 -0.1737
   60CHL1  H15B 6866   2.369   0.799   9.554  2.4033  0.7091  2.1067
   60CHL1   C16 6867   2.305   0.933   9.392 -0.2618 -0.4116 -0.5702
   60CHL1  H16A 6868   2.381   0.931   9.311  0.1045  1.0181 -0.2706
   60CHL1  H16B 6869   2.231   0.852   9.370 -0.8742 -0.5021  1.6778
   60CHL1   C17 6870   2.228   1.069   9.414 -0.2344 -0.1681  0.4741
   60CHL1   H17 6871   2.123   1.036   9.432 -0.7182  1.0845 -0.0010
   60CHL1   C13 6872   2.276   1.130   9.542  0.5879  0.4567 -0.2507
   60CHL1   C18 6873   2.413   1.203   9.521  0.2854 -0.0869  0.0191
   60CHL1  H18A 6874   2.472   1.211   9.614  0.3242 -1.8716  0.1758
   60CHL1  H18B 6875   2.479   1.163   9.441  1.0525 -0.6355  0.9205
   60CHL1  H18C 6876   2.392   1.307   9.489 -2.5226 -0.9584 -1.1455
   60CHL1   C12 6877   2.170   1.210   9.625  0.2661  0.1562 -0.5603
   60CHL1  H12A 6878   2.166   1.310   9.576  2.4236  0.1132 -0.8867
   60CHL1  H12B 6879   2.074   1.156   9.634 -0.4584  1.4389 -0.5049
   60CHL1   C11 6880   2.226   1.239   9.766  0.6285 -0.0702  0.0577
   60CHL1  H11A 6881   2.320   1.296   9.754  0.6075 -0.4142 -1.9144
   60CHL1  H11B 6882   2.149   1.296   9.822  1.1885 -0.5393  1.3251
   60CHL1    C9 6883   2.249   1.107   9.844  0.1104  0.6642  0.8466
   60CHL1    H9 6884   2.155   1.048   9.843  0.2327  0.4799 -1.0147
   60CHL1   C10 6885   2.288   1.126   9.995 -0.2566  0.2169 -0.2634
   60CHL1   C19 6886   2.399   1.227  10.004 -0.1595 -0.2057  0.2597
   60CHL1  H19A 6887   2.488   1.187   9.950 -0.5581 -0.5775 -0.1220
   60CHL1  H19B 6888   2.379   1.322   9.950  1.2623 -0.7781 -1.3322
   60CHL1  H19C 6889   2.432   1.244  10.109  1.2246 -1.5275  0.0625
   60CHL1    C1 6890   2.160   1.183  10.076  0.0353  0.2887 -0.4743
   60CHL1   H1A 6891   2.136   1.291  10.061 -1.2247 -0.0403 -0.9029
   60CHL1   H1B 6892   2.065   1.132  10.048  0.0980 -0.3822  0.5481
   60CHL1    C2 6893   2.172   1.169  10.226 -0.5690 -0.2357 -0.4628
   60CHL1   H2A 6894   2.076   1.198  10.273 -1.6252 -1.2832 -1.9210
   60CHL1   H2B 6895   2.254   1.235  10.260  1.2350 -1.3970 -2.4468
   60CHL1   C20 6896   2.241   1.151   9.289  0.5582 -0.3796  0.0576
   60CHL1   H20 6897   2.347   1.174   9.268 -0.0784  0.9003 -1.9132
   60CHL1   C21 6898   2.165   1.287   9.303  0.0733 -1.3623 -0.3074
   60CHL1  H21A 6899   2.159   1.340   9.205  0.8935  1.0136  0.9037
   60CHL1  H21B 6900   2.219   1.356   9.370  0.6083  0.3460 -2.4458
   60CHL1  H21C 6901   2.061   1.272   9.341 -0.5759  0.0867 -1.4405
   60CHL1   C22 6902   2.196   1.079   9.158  1.0185  0.4008  0.1253
   60CHL1  H22A 6903   2.214   0.971   9.140 -1.4846 -0.1843  0.8721
   60CHL1  H22B 6904   2.087   1.099   9.148  0.7961  0.5559  2.4460
   60CHL1   C23 6905   2.258   1.141   9.034  0.8057  0.2077 -0.0363
   60CHL1  H23A 6906   2.229   1.248   9.023 -0.1448  0.0122  0.5214
   60CHL1  H23B 6907   2.368   1.140   9.048  1.2648 -0.9649 -3.2245
   60CHL1   C24 6908   2.215   1.070   8.906  0.6390 -0.1135  0.2616
   60CHL1  H24A 6909   2.249   0.964   8.918 -1.9913 -0.8652  1.3912
   60CHL1  H24B 6910   2.105   1.063   8.902  0.6589  0.0592 -0.5793
   60CHL1   C25 6911   2.273   1.143   8.782  0.1838 -0.3406 -0.5041
   60CHL1   H25 6912   2.253   1.251   8.799  3.3042  0.2640 -0.3282
   60CHL1   C26 6913   2.425   1.135   8.766 -0.6899  0.2941  0.4601
   60CHL1  H26A 6914   2.466   1.186   8.856 -0.7842 -0.2587  0.8217
   60CHL1  H26B 6915   2.469   1.033   8.761 -1.5453 -0.1243  1.3678
   60CHL1  H26C 6916   2.455   1.178   8.668  0.7136 -3.4548 -0.8431
   60CHL1   C27 6917   2.200   1.101   8.655 -0.5572  0.2277  0.7877
   60CHL1  H27A 6918   2.238   1.156   8.566 -0.3764 -0.3094  0.5273
   60CHL1  H27B 6919   2.231   0.997   8.630 -0.0647  0.3511  0.8828
   60CHL1  H27C 6920   2.091   1.123   8.658 -1.0480 -1.7156 -1.0320
   61CHL1    C3 6921   5.633   1.007  10.422 -0.7715  0.3806 -0.3631
   61CHL1    H3 6922   5.587   0.908  10.444  1.8254 -0.4920  1.3835
   61CHL1    O3 6923   5.683   1.045  10.545  0.4455  0.4153  0.3504
   61CHL1   H3' 6924   5.755   1.105  10.522  0.1251  0.7942  0.3333
   61CHL1    C4 6925   5.747   0.983  10.314  0.5449 -0.4901 -0.1648
   61CHL1   H4A 6926   5.812   1.073  10.321 -1.2072  0.8301 -0.5287
   61CHL1   H4B 6927   5.805   0.894  10.345  2.6262  0.7936 -0.2676
   61CHL1    C5 6928   5.698   0.965  10.170 -0.1072 -0.0920  0.1040
   61CHL1    C6 6929   5.740   0.858  10.095 -0.1367  0.2325 -0.4446
   61CHL1    H6 6930   5.803   0.781  10.142  0.4170  0.5893 -0.5895
   61CHL1    C7 6931   5.705   0.838   9.945 -0.2484  0.4560  0.0720
   61CHL1   H7A 6932   5.791   0.802   9.885  0.2038  1.0087  0.3961
   61CHL1   H7B 6933   5.623   0.762   9.939 -1.0127  1.0381  2.6002
   61CHL1    C8 6934   5.635   0.959   9.880  0.3288 -0.1212  0.0598
   61CHL1    H8 6935   5.714   1.038   9.875 -1.5014  1.7779  0.3797
   61CHL1   C14 6936   5.573   0.922   9.749 -0.1206 -0.0299  0.8717
   61CHL1   H14 6937   5.494   0.846   9.764  0.5261 -0.9658 -0.3377
   61CHL1   C15 6938   5.670   0.860   9.641  0.6067  0.2025  0.4081
   61CHL1  H15A 6939   5.768   0.910   9.631  1.4062 -1.4641 -0.3329
   61CHL1  H15B 6940   5.688   0.753   9.668 -0.1495 -0.1355 -0.3982
   61CHL1   C16 6941   5.585   0.875   9.516  0.4143 -0.2152 -0.1833
   61CHL1  H16A 6942   5.656   0.922   9.444  0.6453 -0.7967 -0.3373
   61CHL1  H16B 6943   5.550   0.778   9.474  1.2887 -0.8273  0.4788
   61CHL1   C17 6944   5.470   0.973   9.549 -0.1070  0.3221 -0.2435
   61CHL1   H17 6945   5.375   0.915   9.554  0.9349 -1.6603 -2.5709
   61CHL1   C13 6946   5.510   1.041   9.680 -0.7206 -0.2196  0.9217
   61CHL1   C18 6947   5.617   1.155   9.656  0.3629  0.2724 -0.4323
   61CHL1  H18A 6948   5.707   1.109   9.610  0.6975  0.6160 -0.1312
   61CHL1  H18B 6949   5.575   1.232   9.588  1.7181  0.7006 -0.8060
   61CHL1  H18C 6950   5.643   1.206   9.751  0.5071  0.0154 -0.3347
   61CHL1   C12 6951   5.389   1.082   9.771  0.3511 -0.8291 -0.1382
   61CHL1  H12A 6952   5.330   1.160   9.718 -0.6337 -2.0687 -0.8911
   61CHL1  H12B 6953   5.328   0.990   9.778 -2.2772  0.8258 -0.6027
   61CHL1   C11 6954   5.443   1.131   9.912  0.0632  0.1097 -0.3197
   61CHL1  H11A 6955   5.499   1.225   9.895  0.6941 -0.2795 -0.4259
   61CHL1  H11B 6956   5.355   1.157   9.974  1.3647 -1.3631  2.2054
   61CHL1    C9 6957   5.534   1.019   9.980  0.3688 -0.9662 -0.7952
   61CHL1    H9 6958   5.461   0.941  10.010 -1.2227  1.8264  3.0620
   61CHL1   C10 6959   5.598   1.060  10.118  0.0272  0.0286  0.4133
   61CHL1   C19 6960   5.675   1.197  10.088  1.1911  0.0192  0.0382
   61CHL1  H19A 6961   5.715   1.232  10.185 -0.0126 -1.0973  0.9553
   61CHL1  H19B 6962   5.754   1.178  10.011  0.1713 -3.1061 -0.2885
   61CHL1  H19C 6963   5.616   1.281  10.045  0.0195 -1.1387 -0.6478
   61CHL1    C1 6964   5.488   1.085  10.224  0.3022 -0.5579  0.0094
   61CHL1   H1A 6965   5.435   1.179  10.197  0.0401 -0.4589  0.8293
   61CHL1   H1B 6966   5.421   0.996  10.223  0.5987 -0.8520  2.7441
   61CHL1    C2 6967   5.537   1.116  10.369 -0.0967  0.0334 -0.1879
   61CHL1   H2A 6968   5.451   1.137  10.437  1.5437 -3.5702  3.2451
   61CHL1   H2B 6969   5.596   1.209  10.354 -2.2764  1.5478  0.4558
   61CHL1   C20 6970   5.444   1.066   9.425  0.8470  0.2411 -0.9753
   61CHL1   H20 6971   5.546   1.103   9.398  0.5734  2.0511  0.3774
   61CHL1   C21 6972   5.345   1.181   9.453  0.8117 -0.3706 -0.0565
   61CHL1  H21A 6973   5.385   1.256   9.524  0.8086 -1.5340  1.1853
   61CHL1  H21B 6974   5.248   1.145   9.491 -1.2096  1.0712 -3.6138
   61CHL1  H21C 6975   5.322   1.226   9.354 -1.4276  0.7924  0.9573
   61CHL1   C22 6976   5.393   0.988   9.292  0.4469  0.6075 -0.4579
   61CHL1  H22A 6977   5.481   0.922   9.276  1.8366  2.4882 -0.7517
   61CHL1  H22B 6978   5.308   0.924   9.323  0.1267  0.5930 -1.3635
   61CHL1   C23 6979   5.355   1.062   9.165 -0.2801 -0.8389  0.2526
   61CHL1  H23A 6980   5.258   1.114   9.183 -0.3125 -0.8313  0.0626
   61CHL1  H23B 6981   5.433   1.134   9.134  0.5318 -0.9448  1.9773
   61CHL1   C24 6982   5.339   0.964   9.044  0.4955  0.4381 -0.2499
   61CHL1  H24A 6983   5.443   0.927   9.035  0.7657  1.2672 -0.5585
   61CHL1  H24B 6984   5.264   0.888   9.076 -0.9264  2.0887  0.4369
   61CHL1   C25 6985   5.285   1.047   8.923 -0.4582 -0.1241  0.1324
   61CHL1   H25 6986   5.354   1.132   8.901  0.2279  0.1283  3.0780
   61CHL1   C26 6987   5.304   0.962   8.798  0.9400 -0.2127  0.4834
   61CHL1  H26A 6988   5.268   1.013   8.706 -1.8699 -1.1675  1.0071
   61CHL1  H26B 6989   5.414   0.950   8.787  0.9173  1.0231 -1.3339
   61CHL1  H26C 6990   5.255   0.863   8.809  0.8472  0.0207  2.2340
   61CHL1   C27 6991   5.144   1.103   8.938  0.5146  0.0180  1.0765
   61CHL1  H27A 6992   5.106   1.141   8.840  0.2516  1.5324  1.7499
   61CHL1  H27B 6993   5.082   1.020   8.978  1.9619 -1.7814 -0.3097
   61CHL1  H27C 6994   5.130   1.193   9.001 -0.2774  0.6008  0.0942
   62CHL1    C3 6995   0.008   3.952  10.125 -0.4978 -0.9652  0.0783
   62CHL1    H3 6996   0.072   4.042  10.121 -0.4972 -0.9151  1.1152
   62CHL1    O3 6997  -0.027   3.922  10.258 -0.3481  0.0611  0.0141
   62CHL1   H3' 6998   0.056   3.885  10.289  1.4994  2.9297 -1.2671
   62CHL1    C4 6999  -0.130   3.971  10.052 -0.5399  0.3992 -0.7312
   62CHL1   H4A 7000  -0.192   3.881  10.074  1.6708 -1.6879 -2.7940
   62CHL1   H4B 7001  -0.184   4.057  10.097 -1.7795  0.5966 -2.5328
   62CHL1    C5 7002  -0.102   3.982   9.905 -0.3112  0.0559 -0.6403
   62CHL1    C6 7003  -0.129   4.095   9.833  0.4221 -0.0779 -0.0813
   62CHL1    H6 7004  -0.177   4.180   9.884  0.1469 -0.7926  0.8606
   62CHL1    C7 7005  -0.105   4.105   9.683  0.0023  0.2276 -0.7305
   62CHL1   H7A 7006  -0.181   4.170   9.635 -0.0847  0.3113 -0.4767
   62CHL1   H7B 7007  -0.028   4.186   9.683 -1.2689  1.4487 -1.0781
   62CHL1    C8 7008  -0.074   3.975   9.615 -0.0662  0.1147  0.1839
   62CHL1    H8 7009  -0.173   3.925   9.607  1.0194 -1.9849 -0.5064
   62CHL1   C14 7010  -0.018   3.990   9.473 -0.3937  0.1464  0.1706
   62CHL1   H14 7011   0.085   4.030   9.483 -1.5856  2.5890  4.2180
   62CHL1   C15 7012  -0.099   4.091   9.382  0.9385  0.3641  0.1095
   62CHL1  H15A 7013  -0.204   4.093   9.417  0.5557  2.8466 -0.9935
   62CHL1  H15B 7014  -0.060   4.195   9.394  0.8777  0.5428 -1.1527
   62CHL1   C16 7015  -0.075   4.038   9.239  0.0506  0.4095 -0.2732
   62CHL1  H16A 7016  -0.170   4.009   9.190 -1.5750 -1.5568  3.7897
   62CHL1  H16B 7017  -0.029   4.118   9.178 -1.2320  0.9920 -0.5023
   62CHL1   C17 7018   0.029   3.916   9.258 -0.3904 -0.6626 -0.2570
   62CHL1   H17 7019   0.128   3.964   9.270 -0.7113 -0.1891  0.4741
   62CHL1   C13 7020   0.006   3.862   9.397  0.0876 -0.0623  0.5589
   62CHL1   C18 7021  -0.127   3.776   9.394 -0.5037 -0.0631  0.3235
   62CHL1  H18A 7022  -0.163   3.769   9.499  2.0112  1.5612  1.3570
   62CHL1  H18B 7023  -0.207   3.821   9.332  0.7052  0.4572 -0.8762
   62CHL1  H18C 7024  -0.110   3.671   9.364 -1.2794  0.5040 -2.2176
   62CHL1   C12 7025   0.127   3.790   9.464  0.4282  0.3642  0.3830
   62CHL1  H12A 7026   0.146   3.693   9.414  0.0812  0.1729  0.6217
   62CHL1  H12B 7027   0.211   3.860   9.486 -0.1737  0.9160  0.9462
   62CHL1   C11 7028   0.073   3.754   9.610  0.3299 -0.3061  0.1252
   62CHL1  H11A 7029  -0.002   3.672   9.609 -0.3082  0.2561  0.8693
   62CHL1  H11B 7030   0.157   3.719   9.674  1.6356  0.2426 -1.2570
   62CHL1    C9 7031   0.023   3.886   9.694  0.0626 -0.3022  0.7907
   62CHL1    H9 7032   0.107   3.957   9.710  0.9818 -1.5455  1.5692
   62CHL1   C10 7033  -0.033   3.861   9.835  0.3869  0.2223  0.1037
   62CHL1   C19 7034  -0.130   3.739   9.828 -0.2010  0.3854 -0.7276
   62CHL1  H19A 7035  -0.221   3.785   9.783 -0.7052  0.7061  0.5858
   62CHL1  H19B 7036  -0.107   3.644   9.777  1.1937 -0.4358  1.3483
   62CHL1  H19C 7037  -0.158   3.719   9.934  0.9695 -2.6129 -0.9374
   62CHL1    C1 7038   0.091   3.836   9.920  0.4938  0.2812  0.0645
   62CHL1   H1A 7039   0.140   3.741   9.890 -0.3569 -0.5894  1.3691
   62CHL1   H1B 7040   0.167   3.916   9.909  0.3689  0.4097  0.1266
   62CHL1    C2 7041   0.079   3.821  10.075 -0.6641 -0.7671 -1.0980
   62CHL1   H2A 7042   0.181   3.811  10.118 -0.9633  0.8731  0.0358
   62CHL1   H2B 7043   0.022   3.726  10.075 -2.0622  0.0442  0.2866
   62CHL1   C20 7044   0.046   3.821   9.135 -0.1511 -0.6087 -0.9101
   62CHL1   H20 7045   0.052   3.723   9.188 -0.3122  0.4507  1.1228
   62CHL1   C21 7046   0.181   3.846   9.079  0.2271 -0.4689 -0.5947
   62CHL1  H21A 7047   0.264   3.830   9.152  2.3349 -1.2901 -3.0627
   62CHL1  H21B 7048   0.196   3.950   9.044 -0.9878  0.3833  1.3522
   62CHL1  H21C 7049   0.198   3.780   8.991  0.6497  0.1626 -0.9949
   62CHL1   C22 7050  -0.066   3.807   9.030 -0.2738  0.0486 -0.7065
   62CHL1  H22A 7051  -0.163   3.788   9.079 -0.0853  2.7261  0.8129
   62CHL1  H22B 7052  -0.073   3.898   8.966  1.9090  0.3674 -0.5434
   62CHL1   C23 7053  -0.053   3.675   8.946 -0.9179  0.4905 -0.3885
   62CHL1  H23A 7054   0.029   3.687   8.872  1.7713 -0.6334  2.2919
   62CHL1  H23B 7055  -0.041   3.582   9.006 -2.9323  0.4076 -0.1040
   62CHL1   C24 7056  -0.176   3.652   8.858 -0.4482 -0.0630  0.3678
   62CHL1  H24A 7057  -0.274   3.652   8.911 -1.7250  3.9151 -1.7323
   62CHL1  H24B 7058  -0.165   3.745   8.797 -0.1487  0.9557  1.9584
   62CHL1   C25 7059  -0.176   3.544   8.746 -0.1028 -0.5834  0.2622
   62CHL1   H25 7060  -0.078   3.560   8.696 -1.1451 -0.5343 -1.8104
   62CHL1   C26 7061  -0.177   3.394   8.790  1.1050  0.2989  0.3949
   62CHL1  H26A 7062  -0.144   3.319   8.715 -0.3661 -0.1562  0.1932
   62CHL1  H26B 7063  -0.113   3.373   8.878 -0.9334 -2.8363  1.2089
   62CHL1  H26C 7064  -0.274   3.359   8.831  0.0567  1.9893 -0.5863
   62CHL1   C27 7065  -0.282   3.570   8.636  0.4186 -0.2550 -0.5643
   62CHL1  H27A 7066  -0.258   3.661   8.578 -1.8154  0.9390  0.3298
   62CHL1  H27B 7067  -0.284   3.490   8.559 -0.1270 -0.5272 -0.2735
   62CHL1  H27C 7068  -0.380   3.574   8.689  0.2330  0.8312 -0.9808
   63CHL1    C3 7069   1.597   5.982  10.293  0.2319 -0.1119 -0.4414
   63CHL1    H3 7070   1.664   5.893  10.298  2.7141  1.7014  0.1749
   63CHL1    O3 7071   1.556   6.004  10.427 -0.5463 -0.1963  0.4961
   63CHL1   H3' 7072   1.462   6.025  10.428 -0.0344  2.4814 -1.8209
   63CHL1    C4 7073   1.694   6.091  10.239  0.5009 -0.3920  0.9190
   63CHL1   H4A 7074   1.645   6.190  10.247 -1.4449 -1.4052  1.7817
   63CHL1   H4B 7075   1.779   6.091  10.310 -0.4511  2.7682  2.1379
   63CHL1    C5 7076   1.733   6.068  10.091 -1.2322 -0.1217 -0.3261
   63CHL1    C6 7077   1.868   6.069  10.063  0.4932  0.1154  0.2461
   63CHL1    H6 7078   1.936   6.104  10.141  1.0638  0.3636 -0.3535
   63CHL1    C7 7079   1.919   6.049   9.920  0.2397 -0.1697  0.5574
   63CHL1   H7A 7080   2.004   6.114   9.889 -0.5435  0.9698  0.8175
   63CHL1   H7B 7081   1.956   5.944   9.915  1.5246  0.3426 -1.7841
   63CHL1    C8 7082   1.800   6.056   9.813  0.5556  0.1711 -0.0028
   63CHL1    H8 7083   1.781   6.165   9.801 -1.4137 -0.1569  0.0492
   63CHL1   C14 7084   1.844   5.998   9.682  0.0419 -0.3763  0.2010
   63CHL1   H14 7085   1.874   5.894   9.706 -2.6971 -0.2219  4.7586
   63CHL1   C15 7086   1.963   6.073   9.615  0.6122  0.0869  0.3410
   63CHL1  H15A 7087   1.959   6.183   9.625 -0.8907  0.3788 -2.9183
   63CHL1  H15B 7088   2.058   6.030   9.654 -0.4736 -3.8037 -1.0757
   63CHL1   C16 7089   1.951   6.037   9.468  0.8751  0.2050  0.1225
   63CHL1  H16A 7090   1.933   6.133   9.416  1.0191  0.5709  0.7470
   63CHL1  H16B 7091   2.050   5.994   9.440  1.5448  1.8156 -0.0157
   63CHL1   C17 7092   1.824   5.951   9.446 -0.4299  0.0385 -0.8563
   63CHL1   H17 7093   1.860   5.847   9.453 -0.7655 -0.2312 -2.8442
   63CHL1   C13 7094   1.730   5.987   9.571 -0.5883 -0.2444 -1.3288
   63CHL1   C18 7095   1.660   6.123   9.542 -0.3115 -0.1172  0.4652
   63CHL1  H18A 7096   1.574   6.117   9.472  0.4980  2.0544 -0.7532
   63CHL1  H18B 7097   1.619   6.163   9.637 -0.4821  2.1608 -0.5331
   63CHL1  H18C 7098   1.737   6.195   9.506 -0.8584  0.5850  0.7020
   63CHL1   C12 7099   1.633   5.884   9.622  0.2030 -0.1775 -0.7261
   63CHL1  H12A 7100   1.549   5.865   9.552 -1.6591  1.0924  1.1295
   63CHL1  H12B 7101   1.689   5.788   9.617 -0.7362 -0.6828 -1.9698
   63CHL1   C11 7102   1.576   5.929   9.761  0.4111 -0.2353 -0.0301
   63CHL1  H11A 7103   1.495   5.997   9.726  0.4651 -0.3083 -0.2955
   63CHL1  H11B 7104   1.520   5.845   9.807 -0.4385 -0.6361 -1.7456
   63CHL1    C9 7105   1.679   5.974   9.863 -0.4014 -0.3069 -0.5025
   63CHL1    H9 7106   1.729   5.880   9.894  1.3229  0.6294 -0.3685
   63CHL1   C10 7107   1.619   6.035   9.995  0.1068 -0.2338  0.1323
   63CHL1   C19 7108   1.529   6.157   9.960 -0.6677  0.4350 -0.3801
   63CHL1  H19A 7109   1.587   6.235   9.905  0.0869  0.4987  0.4957
   63CHL1  H19B 7110   1.440   6.127   9.900 -0.4152 -1.8975  0.3992
   63CHL1  H19C 7111   1.489   6.195  10.057  0.0681 -0.0262  0.1055
   63CHL1    C1 7112   1.528   5.927  10.060 -0.5023 -0.6104 -0.0265
   63CHL1   H1A 7113   1.442   5.913   9.991 -0.5681  0.1637 -0.1146
   63CHL1   H1B 7114   1.581   5.831  10.071  0.0343 -0.1933  1.1213
   63CHL1    C2 7115   1.479   5.963  10.204  0.2248  0.2238  0.2249
   63CHL1   H2A 7116   1.407   5.890  10.247 -1.2378  1.1771 -0.5731
   63CHL1   H2B 7117   1.430   6.062  10.195 -1.3207 -0.4345  1.2775
   63CHL1   C20 7118   1.768   5.964   9.305  0.6109  0.6704 -0.0197
   63CHL1   H20 7119   1.735   6.069   9.293 -1.4706  0.3669  2.4418
   63CHL1   C21 7120   1.650   5.868   9.302 -0.2489 -0.1424 -0.5295
   63CHL1  H21A 7121   1.683   5.770   9.345  0.7581 -0.4140 -1.9003
   63CHL1  H21B 7122   1.601   5.858   9.203 -1.3000 -0.3617 -0.0011
   63CHL1  H21C 7123   1.568   5.910   9.364  0.6494  1.4676 -0.4280
   63CHL1   C22 7124   1.864   5.925   9.193 -0.1630 -0.3233 -0.6877
   63CHL1  H22A 7125   1.950   5.993   9.212 -0.6731 -0.1104  0.9661
   63CHL1  H22B 7126   1.896   5.819   9.203 -0.6073 -0.2642  1.8329
   63CHL1   C23 7127   1.821   5.938   9.044 -0.2048  0.2325 -0.1876
   63CHL1  H23A 7128   1.912   5.931   8.981 -0.8029  2.3400 -1.3351
   63CHL1  H23B 7129   1.750   5.858   9.014  1.2318 -1.8121  1.6713
   63CHL1   C24 7130   1.752   6.076   9.014  0.2240  0.1874  0.1293
   63CHL1  H24A 7131   1.661   6.090   9.076  0.6015  2.3203  0.2256
   63CHL1  H24B 7132   1.826   6.154   9.042  0.7086 -0.1134 -0.3004
   63CHL1   C25 7133   1.724   6.099   8.865  1.0791 -0.1841  0.0528
   63CHL1   H25 7134   1.686   6.003   8.822 -1.7688  0.5468  0.8316
   63CHL1   C26 7135   1.616   6.212   8.855 -0.3883  0.2327  0.2401
   63CHL1  H26A 7136   1.520   6.161   8.882 -0.3958  0.2862  0.3155
   63CHL1  H26B 7137   1.642   6.299   8.920  1.2129  0.0402 -0.1358
   63CHL1  H26C 7138   1.612   6.255   8.753  1.0395 -0.3171 -0.0501
   63CHL1   C27 7139   1.845   6.128   8.779  0.1130 -0.3059 -0.3329
   63CHL1  H27A 7140   1.900   6.213   8.826 -2.5232  1.8111 -0.8959
   63CHL1  H27B 7141   1.910   6.041   8.760 -0.9983 -1.1436 -0.3277
   63CHL1  H27C 7142   1.816   6.158   8.676  0.0251  0.3756 -0.1162
   64CHL1    C3 7143   0.570   5.184   9.973 -0.3444  0.1139  0.1667
   64CHL1    H3 7144   0.673   5.143   9.983  0.3171  1.7526  0.2091
   64CHL1    O3 7145   0.490   5.176  10.088  0.1121  0.1838  0.5157
   64CHL1   H3' 7146   0.538   5.229  10.151  0.4783  1.5681 -0.8986
   64CHL1    C4 7147   0.604   5.338   9.947 -0.6506  0.0641  0.2698
   64CHL1   H4A 7148   0.518   5.404   9.970 -1.0440 -0.6076  0.7276
   64CHL1   H4B 7149   0.685   5.355  10.022  0.9922 -0.2230 -1.3930
   64CHL1    C5 7150   0.674   5.384   9.823 -0.2986 -0.9026 -0.2004
   64CHL1    C6 7151   0.780   5.459   9.812 -0.1493  0.1537 -0.1773
   64CHL1    H6 7152   0.827   5.493   9.906  0.9747 -1.0721 -0.2817
   64CHL1    C7 7153   0.850   5.495   9.680  0.1430  0.1144  0.7922
   64CHL1   H7A 7154   0.878   5.602   9.679  2.6265 -0.4973 -0.1113
   64CHL1   H7B 7155   0.941   5.431   9.678 -0.5229 -0.8531  0.9316
   64CHL1    C8 7156   0.773   5.465   9.549  0.4496  0.0186 -0.1711
   64CHL1    H8 7157   0.693   5.540   9.536  0.4433  0.1689  0.7143
   64CHL1   C14 7158   0.871   5.462   9.429 -0.1131  0.5060 -0.1722
   64CHL1   H14 7159   0.946   5.381   9.439  4.2323  4.4227  0.8624
   64CHL1   C15 7160   0.963   5.585   9.405 -0.6898 -1.1851 -0.1889
   64CHL1  H15A 7161   0.907   5.679   9.422  0.8450 -0.2099 -0.4567
   64CHL1  H15B 7162   1.052   5.574   9.470 -0.0896  0.2510 -0.7574
   64CHL1   C16 7163   0.995   5.571   9.251  0.1165  0.6168  0.5458
   64CHL1  H16A 7164   0.946   5.659   9.204 -0.4941  0.1787  0.3649
   64CHL1  H16B 7165   1.098   5.564   9.211 -0.3516 -1.1675 -0.3751
   64CHL1   C17 7166   0.922   5.442   9.204 -0.1640  0.9220 -0.5023
   64CHL1   H17 7167   0.985   5.357   9.239 -1.5902 -0.2393 -0.7272
   64CHL1   C13 7168   0.800   5.435   9.297  0.1927  1.2285  0.7280
   64CHL1   C18 7169   0.696   5.540   9.262  0.1493 -0.1519 -0.4384
   64CHL1  H18A 7170   0.620   5.552   9.342 -0.8596 -1.5192 -1.1789
   64CHL1  H18B 7171   0.746   5.635   9.231  1.9469 -0.2841  1.9227
   64CHL1  H18C 7172   0.641   5.508   9.171  0.8857 -1.6643 -0.3753
   64CHL1   C12 7173   0.730   5.291   9.310  0.5368  0.4196 -0.2916
   64CHL1  H12A 7174   0.667   5.266   9.222 -0.6275 -1.0178  0.9071
   64CHL1  H12B 7175   0.809   5.213   9.318 -0.7028 -0.8063  0.4416
   64CHL1   C11 7176   0.640   5.284   9.436 -0.0533  0.0936  0.5272
   64CHL1  H11A 7177   0.553   5.350   9.413 -1.3786 -0.9887  2.2769
   64CHL1  H11B 7178   0.606   5.180   9.456  1.2295 -0.2846  0.7487
   64CHL1    C9 7179   0.704   5.330   9.572  0.5904 -0.4642 -0.1235
   64CHL1    H9 7180   0.784   5.252   9.580 -0.8303 -1.8219  1.1144
   64CHL1   C10 7181   0.615   5.314   9.699  0.3248  0.0260 -0.5359
   64CHL1   C19 7182   0.478   5.388   9.672 -0.8927  0.5211  0.6641
   64CHL1  H19A 7183   0.431   5.329   9.591  2.4434 -1.1839 -0.1123
   64CHL1  H19B 7184   0.417   5.385   9.766 -2.4660  3.2304 -0.2000
   64CHL1  H19C 7185   0.496   5.495   9.648 -0.2571  0.3104  0.2132
   64CHL1    C1 7186   0.590   5.161   9.727 -0.0717  0.6100  0.2224
   64CHL1   H1A 7187   0.519   5.127   9.649 -0.6100 -0.3610  1.1306
   64CHL1   H1B 7188   0.683   5.102   9.717 -0.6158  0.1277 -2.3260
   64CHL1    C2 7189   0.504   5.117   9.852 -0.3855 -0.4000 -0.1320
   64CHL1   H2A 7190   0.496   5.007   9.860  1.8015 -0.7416 -2.0388
   64CHL1   H2B 7191   0.400   5.154   9.838  0.4282  1.9119 -0.2859
   64CHL1   C20 7192   0.897   5.434   9.048 -0.3705  0.8009  0.6219
   64CHL1   H20 7193   0.786   5.425   9.042 -0.1055 -1.9035 -0.9464
   64CHL1   C21 7194   0.950   5.291   9.027  0.4153  0.0657 -0.5656
   64CHL1  H21A 7195   1.061   5.289   9.023  0.3701  0.0633 -2.0337
   64CHL1  H21B 7196   0.937   5.266   8.920  0.5162 -2.3465 -0.0465
   64CHL1  H21C 7197   0.907   5.218   9.099  1.1313  0.5823  0.4027
   64CHL1   C22 7198   0.948   5.550   8.959 -0.4741  0.1772  0.3529
   64CHL1  H22A 7199   0.915   5.652   8.986 -0.1858 -0.3033  2.5978
   64CHL1  H22B 7200   1.058   5.542   8.973 -0.2638 -1.9815 -2.1976
   64CHL1   C23 7201   0.918   5.540   8.813 -0.6700 -0.3281  0.3207
   64CHL1  H23A 7202   0.984   5.621   8.775 -1.5281  0.3008  0.1770
   64CHL1  H23B 7203   0.939   5.440   8.767 -1.2117  0.1717 -1.0519
   64CHL1   C24 7204   0.774   5.575   8.773  0.1365 -0.0802 -0.0463
   64CHL1  H24A 7205   0.704   5.504   8.822  1.0941 -1.0548 -0.0592
   64CHL1  H24B 7206   0.744   5.678   8.801  0.8419  0.3636 -0.8958
   64CHL1   C25 7207   0.747   5.554   8.621 -0.5717  0.1178 -0.9237
   64CHL1   H25 7208   0.642   5.586   8.606 -0.4076  1.5178  0.8266
   64CHL1   C26 7209   0.831   5.636   8.530  0.0028  0.0288 -0.1020
   64CHL1  H26A 7210   0.829   5.741   8.565 -0.4076 -0.3207  0.9233
   64CHL1  H26B 7211   0.937   5.613   8.549 -0.8116 -1.7683  2.4636
   64CHL1  H26C 7212   0.808   5.630   8.421 -0.2925  1.7086 -0.1338
   64CHL1   C27 7213   0.752   5.407   8.577  0.4541  0.0344 -0.5690
   64CHL1  H27A 7214   0.860   5.383   8.573  0.5119  0.4731 -2.1277
   64CHL1  H27B 7215   0.689   5.349   8.647  1.6694 -2.4272 -1.4723
   64CHL1  H27C 7216   0.709   5.395   8.475 -1.3548  0.7715  0.0745
   65CHL1    C3 7217   3.151   2.434  10.315 -0.0420 -0.0355 -0.0362
   65CHL1    H3 7218   3.098   2.338  10.295  2.5849 -1.4750 -0.1907
   65CHL1    O3 7219   3.166   2.440  10.450  0.4108 -0.7315  0.5336
   65CHL1   H3' 7220   3.160   2.533  10.472  1.9224  0.0265 -2.1370
   65CHL1    C4 7221   3.282   2.436  10.244 -0.8737  0.4496 -0.2656
   65CHL1   H4A 7222   3.330   2.532  10.273 -1.3923 -0.1077  2.6412
   65CHL1   H4B 7223   3.343   2.354  10.288  0.9154  1.7132 -0.3255
   65CHL1    C5 7224   3.265   2.426  10.096  0.1547  0.5880 -0.3051
   65CHL1    C6 7225   3.326   2.325  10.027 -0.1296  0.8076  0.0734
   65CHL1    H6 7226   3.379   2.248  10.084 -0.0746 -1.3113 -2.7713
   65CHL1    C7 7227   3.327   2.314   9.876  0.1502 -0.2099  1.0998
   65CHL1   H7A 7228   3.427   2.306   9.829  0.2176  2.1406  0.8239
   65CHL1   H7B 7229   3.271   2.218   9.860  0.6651 -0.6193  1.7659
   65CHL1    C8 7230   3.262   2.436   9.803  0.3677 -0.2876 -0.0904
   65CHL1    H8 7231   3.328   2.525   9.804 -1.8757  1.4325  1.1556
   65CHL1   C14 7232   3.230   2.400   9.659 -0.7315  0.8690 -0.1365
   65CHL1   H14 7233   3.156   2.318   9.672  0.4978 -0.0972  0.8785
   65CHL1   C15 7234   3.338   2.354   9.561 -0.3779 -0.5479  0.1029
   65CHL1  H15A 7235   3.413   2.435   9.563 -1.3428  0.3355  1.1232
   65CHL1  H15B 7236   3.373   2.249   9.570  1.8226  0.2525  1.1337
   65CHL1   C16 7237   3.273   2.369   9.417 -0.4746 -0.6289  0.0472
   65CHL1  H16A 7238   3.331   2.440   9.354  0.1763 -0.7046  0.5541
   65CHL1  H16B 7239   3.267   2.275   9.359 -1.4878 -0.0806 -0.7512
   65CHL1   C17 7240   3.135   2.450   9.440  0.6161  0.3974  0.1348
   65CHL1   H17 7241   3.061   2.368   9.451  1.5250 -0.5720 -0.7745
   65CHL1   C13 7242   3.156   2.510   9.581  0.3794  0.2186  0.2232
   65CHL1   C18 7243   3.245   2.640   9.560  0.2037 -0.0535 -0.2053
   65CHL1  H18A 7244   3.283   2.674   9.659 -0.6535  0.3983 -0.0321
   65CHL1  H18B 7245   3.330   2.624   9.490 -0.1694 -0.9893 -0.4572
   65CHL1  H18C 7246   3.198   2.723   9.504  0.3151 -0.6858 -1.2350
   65CHL1   C12 7247   3.029   2.539   9.662 -0.4080  0.3163 -1.2414
   65CHL1  H12A 7248   2.966   2.618   9.615  0.1083  1.6191  0.2029
   65CHL1  H12B 7249   2.966   2.448   9.669 -0.6862  0.5151 -1.1555
   65CHL1   C11 7250   3.052   2.576   9.807  0.2186 -0.7914 -0.8913
   65CHL1  H11A 7251   3.103   2.674   9.814 -1.4847 -0.1246  3.8897
   65CHL1  H11B 7252   2.953   2.598   9.853  0.9808 -0.4773  0.6327
   65CHL1    C9 7253   3.139   2.473   9.884  0.0927 -0.2752 -1.1606
   65CHL1    H9 7254   3.070   2.386   9.893  0.3719 -0.4306 -0.4965
   65CHL1   C10 7255   3.177   2.525  10.022  0.3581 -0.4569 -0.3368
   65CHL1   C19 7256   3.248   2.669  10.023  0.0705 -0.1285  0.1522
   65CHL1  H19A 7257   3.292   2.688  10.123  0.2667 -2.8500  0.6038
   65CHL1  H19B 7258   3.327   2.673   9.945  0.2517 -2.8838  0.1349
   65CHL1  H19C 7259   3.166   2.741  10.001  0.2525 -0.0080 -0.1458
   65CHL1    C1 7260   3.045   2.539  10.108 -0.2203 -0.8183  0.1880
   65CHL1   H1A 7261   2.981   2.622  10.071  1.1705  0.2382  0.0849
   65CHL1   H1B 7262   2.993   2.443  10.090  2.0464 -1.3401 -4.1650
   65CHL1    C2 7263   3.065   2.548  10.263  0.6188  0.6209  0.3395
   65CHL1   H2A 7264   2.961   2.539  10.302  1.4777 -2.5946  2.0691
   65CHL1   H2B 7265   3.099   2.651  10.283  0.3975  0.6974  0.3269
   65CHL1   C20 7266   3.088   2.540   9.325 -1.1775  0.2697  0.5619
   65CHL1   H20 7267   3.143   2.636   9.322 -0.3299 -0.2507 -1.0643
   65CHL1   C21 7268   2.941   2.573   9.333  0.0197  0.0410  0.6831
   65CHL1  H21A 7269   2.904   2.627   9.243 -0.7351 -0.8176  0.4786
   65CHL1  H21B 7270   2.912   2.619   9.430 -0.2968 -1.3703  1.2683
   65CHL1  H21C 7271   2.874   2.485   9.331 -0.4130  0.3769  0.2527
   65CHL1   C22 7272   3.113   2.472   9.176  0.0919 -0.2809 -0.4414
   65CHL1  H22A 7273   3.089   2.558   9.110  2.1523 -0.4921 -1.4948
   65CHL1  H22B 7274   3.222   2.453   9.167  0.0350  0.0265 -1.8764
   65CHL1   C23 7275   3.032   2.349   9.148 -0.3352  0.4819  0.1267
   65CHL1  H23A 7276   3.050   2.285   9.238  1.3281 -0.5985 -0.9435
   65CHL1  H23B 7277   2.922   2.367   9.151 -0.2172  1.9336 -2.7110
   65CHL1   C24 7278   3.074   2.271   9.025  0.3108  0.2900  0.9552
   65CHL1  H24A 7279   3.175   2.226   9.036 -0.4875 -2.4400 -1.9353
   65CHL1  H24B 7280   2.996   2.194   9.007 -0.4129  1.0453  0.8266
   65CHL1   C25 7281   3.074   2.368   8.902  0.3450  0.5433  0.7881
   65CHL1   H25 7282   3.137   2.459   8.912  0.9083  0.1939  0.4455
   65CHL1   C26 7283   3.130   2.294   8.777 -0.0613 -0.4522 -0.4811
   65CHL1  H26A 7284   3.083   2.194   8.764 -0.8421  0.0133 -1.2798
   65CHL1  H26B 7285   3.116   2.354   8.684 -0.1870 -1.0600 -0.8539
   65CHL1  H26C 7286   3.237   2.265   8.780  0.3648  1.2167  3.7271
   65CHL1   C27 7287   2.933   2.409   8.868 -0.6075  0.8714 -0.1843
   65CHL1  H27A 7288   2.941   2.465   8.773  0.2920 -0.3881 -0.8652
   65CHL1  H27B 7289   2.867   2.319   8.860 -0.1391  0.4683  0.4670
   65CHL1  H27C 7290   2.891   2.482   8.941  2.7359 -0.2990  3.0363
   66CHL1    C3 7291   0.810   0.871  10.748  0.2647  0.0486 -0.3145
   66CHL1    H3 7292   0.699   0.875  10.743  0.3592  0.7510 -3.0277
   66CHL1    O3 7293   0.834   0.844  10.886  0.1676  0.5159 -0.2720
   66CHL1   H3' 7294   0.792   0.759  10.904  1.9085 -0.9358 -2.8227
   66CHL1    C4 7295   0.855   0.762  10.664  0.1090  0.3430 -0.8582
   66CHL1   H4A 7296   0.965   0.757  10.671  0.1651  0.8829 -1.3177
   66CHL1   H4B 7297   0.807   0.669  10.703 -0.4142  1.2000  0.5509
   66CHL1    C5 7298   0.837   0.779  10.516 -0.4262  0.1611  0.4261
   66CHL1    C6 7299   0.768   0.693  10.443 -0.9112 -0.3412  0.1569
   66CHL1    H6 7300   0.734   0.605  10.499  0.3664  0.4007  2.1749
   66CHL1    C7 7301   0.739   0.707  10.301  0.4952  0.7671  0.2514
   66CHL1   H7A 7302   0.769   0.615  10.247 -0.9167  1.0312 -1.0194
   66CHL1   H7B 7303   0.630   0.714  10.280  0.2892  1.7848  1.5962
   66CHL1    C8 7304   0.820   0.822  10.232 -0.2107  0.0232 -0.1485
   66CHL1    H8 7305   0.919   0.776  10.211 -0.3774 -1.8467  2.7940
   66CHL1   C14 7306   0.755   0.864  10.096  0.0100  0.1950 -0.3816
   66CHL1   H14 7307   0.657   0.912  10.116  0.4417  0.4468  1.1894
   66CHL1   C15 7308   0.727   0.756   9.995 -0.1550  0.2901  0.0455
   66CHL1  H15A 7309   0.815   0.688  10.003 -0.5574 -0.2905 -0.3807
   66CHL1  H15B 7310   0.636   0.696  10.018  1.2656 -1.8740  0.1882
   66CHL1   C16 7311   0.726   0.828   9.860  0.6162  0.4238  0.1142
   66CHL1  H16A 7312   0.816   0.781   9.816 -1.5316 -1.7656 -2.1471
   66CHL1  H16B 7313   0.635   0.812   9.797 -0.3942  0.7014  1.4733
   66CHL1   C17 7314   0.762   0.983   9.889 -0.4158 -0.0663  0.2324
   66CHL1   H17 7315   0.661   1.027   9.907 -0.5328  0.0483 -0.6642
   66CHL1   C13 7316   0.839   0.978  10.029 -0.0946 -0.3816  0.5253
   66CHL1   C18 7317   0.983   0.925   9.996  0.5458  0.0763  0.0507
   66CHL1  H18A 7318   0.988   0.835   9.932 -1.6333  1.5410 -2.2816
   66CHL1  H18B 7319   1.033   1.007   9.941 -1.0938  0.4535 -0.8899
   66CHL1  H18C 7320   1.030   0.914  10.096 -2.9838  1.1386  1.9185
   66CHL1   C12 7321   0.835   1.100  10.108 -0.3088 -0.1466 -0.0100
   66CHL1  H12A 7322   0.901   1.171  10.055  1.5908 -0.8686  1.3459
   66CHL1  H12B 7323   0.735   1.149  10.115 -0.9852 -1.6471  1.0619
   66CHL1   C11 7324   0.898   1.071  10.246  1.0128 -0.7308 -0.1995
   66CHL1  H11A 7325   1.007   1.052  10.243  0.9755 -0.9153 -0.3329
   66CHL1  H11B 7326   0.875   1.163  10.305  0.1319 -0.4004 -1.0491
   66CHL1    C9 7327   0.826   0.950  10.320  0.2189  0.1118  0.0717
   66CHL1    H9 7328   0.719   0.977  10.332  0.4176  0.8417  0.2287
   66CHL1   C10 7329   0.893   0.914  10.462  0.1086  0.1762 -0.5284
   66CHL1   C19 7330   1.050   0.893  10.450  0.6945  0.1582 -0.0664
   66CHL1  H19A 7331   1.094   0.983  10.402 -1.2615  1.3967  0.4123
   66CHL1  H19B 7332   1.102   0.867  10.545 -0.3110 -2.4532 -0.2060
   66CHL1  H19C 7333   1.068   0.809  10.380 -1.2907  0.0001 -0.4136
   66CHL1    C1 7334   0.863   1.031  10.553 -0.5987  0.3973  0.1573
   66CHL1   H1A 7335   0.924   1.120  10.524 -1.4748  0.8777 -0.2250
   66CHL1   H1B 7336   0.761   1.071  10.534 -0.4383  1.5673  1.6121
   66CHL1    C2 7337   0.869   1.009  10.707  0.1338 -0.5842  0.1508
   66CHL1   H2A 7338   0.827   1.102  10.750  1.1032  1.1620 -2.5554
   66CHL1   H2B 7339   0.978   1.001  10.729  0.6325  1.5431 -1.3888
   66CHL1   C20 7340   0.826   1.048   9.765  0.0659 -0.8791  0.2923
   66CHL1   H20 7341   0.930   1.010   9.750  1.3892  1.6827  2.5898
   66CHL1   C21 7342   0.855   1.200   9.784  0.8097  0.2582  0.3916
   66CHL1  H21A 7343   0.921   1.214   9.873  1.8305 -0.1352 -0.2968
   66CHL1  H21B 7344   0.760   1.257   9.789  0.4561 -0.1984 -1.0980
   66CHL1  H21C 7345   0.909   1.235   9.694  0.2326  0.6836  0.2068
   66CHL1   C22 7346   0.745   1.018   9.633 -0.5204  0.2052 -0.0731
   66CHL1  H22A 7347   0.730   0.909   9.620 -0.0898  0.1616 -0.1983
   66CHL1  H22B 7348   0.644   1.061   9.653 -1.6462 -2.7897  0.9213
   66CHL1   C23 7349   0.821   1.067   9.508 -1.0744 -0.1934  0.3932
   66CHL1  H23A 7350   0.816   1.177   9.520 -3.5492 -0.3415  1.0264
   66CHL1  H23B 7351   0.928   1.037   9.513 -1.5409 -1.7328  1.5844
   66CHL1   C24 7352   0.755   1.026   9.371  0.2413 -0.2039  0.3616
   66CHL1  H24A 7353   0.813   1.074   9.289 -0.5741 -1.8565 -1.2243
   66CHL1  H24B 7354   0.768   0.916   9.360 -0.2439 -0.4745  2.2731
   66CHL1   C25 7355   0.613   1.071   9.348  0.7263 -0.0526 -0.8836
   66CHL1   H25 7356   0.545   1.034   9.427  0.6882 -2.4284 -1.9735
   66CHL1   C26 7357   0.592   1.227   9.353 -0.5497  0.8756 -0.5073
   66CHL1  H26A 7358   0.655   1.275   9.275  0.1268  1.5952  0.4753
   66CHL1  H26B 7359   0.493   1.266   9.321 -0.3891  1.2333 -0.5763
   66CHL1  H26C 7360   0.625   1.263   9.453  2.3422  0.3699 -1.2166
   66CHL1   C27 7361   0.561   1.023   9.214  0.2994 -0.5448 -0.1082
   66CHL1  H27A 7362   0.451   1.032   9.208  0.4741  1.2728 -1.0362
   66CHL1  H27B 7363   0.620   1.068   9.131  2.7571 -2.2574  0.6528
   66CHL1  H27C 7364   0.585   0.915   9.214 -1.4543 -0.9372 -0.0412
   67CHL1    C3 7365   5.072   1.217  10.322  0.2920 -0.2863  0.0523
   67CHL1    H3 7366   5.169   1.260  10.292  0.5020 -0.0820  1.0206
   67CHL1    O3 7367   5.061   1.222  10.459  0.0015 -0.5436  0.0382
   67CHL1   H3' 7368   5.090   1.311  10.480  2.2964 -1.2212 -0.0522
   67CHL1    C4 7369   4.957   1.297  10.260  0.3134  0.8024 -0.1373
   67CHL1   H4A 7370   4.862   1.257  10.303 -0.4058  1.3213 -1.2240
   67CHL1   H4B 7371   4.957   1.401  10.301  1.0924 -0.0181  2.0191
   67CHL1    C5 7372   4.951   1.293  10.110 -0.2413  0.1745 -0.3133
   67CHL1    C6 7373   4.945   1.413  10.050 -0.3728  0.5471  0.3427
   67CHL1    H6 7374   4.949   1.512  10.098  0.9478 -0.8408  3.2578
   67CHL1    C7 7375   4.945   1.417   9.902 -0.6040  0.5064 -0.0351
   67CHL1   H7A 7376   4.868   1.491   9.871 -0.7931  0.6246  0.7048
   67CHL1   H7B 7377   5.044   1.437   9.858 -0.5698 -1.2870 -0.8143
   67CHL1    C8 7378   4.916   1.276   9.825  0.4401 -0.2614 -0.1064
   67CHL1    H8 7379   4.811   1.246   9.846  0.6733 -0.8496  0.2659
   67CHL1   C14 7380   4.946   1.281   9.673 -0.1135  0.8362  0.6701
   67CHL1   H14 7381   5.056   1.288   9.660 -0.1781  0.7037  0.0654
   67CHL1   C15 7382   4.871   1.386   9.592  0.0181 -0.1033 -0.1160
   67CHL1  H15A 7383   4.767   1.389   9.632  0.1046 -0.9732  0.1796
   67CHL1  H15B 7384   4.926   1.482   9.603  0.6092 -0.4964  0.4171
   67CHL1   C16 7385   4.873   1.331   9.448  0.3028  0.0022 -0.0874
   67CHL1  H16A 7386   4.771   1.318   9.405 -0.5455 -0.7622  2.0710
   67CHL1  H16B 7387   4.923   1.400   9.377  0.6687 -1.2832 -1.0993
   67CHL1   C17 7388   4.936   1.187   9.447 -0.3009 -0.4117 -0.0997
   67CHL1   H17 7389   5.043   1.193   9.421 -0.2942 -0.9155 -0.2021
   67CHL1   C13 7390   4.911   1.148   9.596 -0.4348 -0.1653 -0.7172
   67CHL1   C18 7391   4.765   1.116   9.628 -0.4913 -0.9921 -0.3187
   67CHL1  H18A 7392   4.698   1.198   9.595 -0.5055 -0.8012  0.1850
   67CHL1  H18B 7393   4.731   1.026   9.573 -0.3558 -0.2989 -1.5491
   67CHL1  H18C 7394   4.746   1.095   9.735  4.0270  0.3476  0.8781
   67CHL1   C12 7395   5.007   1.041   9.655  0.7962  0.1539 -0.1657
   67CHL1  H12A 7396   4.977   0.944   9.610 -2.5078  0.4715  1.2315
   67CHL1  H12B 7397   5.109   1.077   9.628  1.3510  1.2433  3.1871
   67CHL1   C11 7398   4.996   1.034   9.804 -0.0738 -0.2013 -0.1653
   67CHL1  H11A 7399   4.905   0.974   9.825  0.4994 -2.3578 -3.6090
   67CHL1  H11B 7400   5.085   0.981   9.842  1.9763  3.6850  0.7493
   67CHL1    C9 7401   5.000   1.173   9.885 -0.3449  0.2221 -0.1925
   67CHL1    H9 7402   5.107   1.202   9.877  0.5342 -2.6662  0.7573
   67CHL1   C10 7403   4.969   1.162  10.039  0.2895  0.2640  0.0259
   67CHL1   C19 7404   4.853   1.067  10.059 -0.1151  0.4641 -0.3984
   67CHL1  H19A 7405   4.774   1.102   9.990  0.2146  0.8376 -0.5943
   67CHL1  H19B 7406   4.880   0.961  10.044 -1.1475  0.2434 -0.6954
   67CHL1  H19C 7407   4.821   1.066  10.165 -1.7468 -0.8898 -0.8952
   67CHL1    C1 7408   5.088   1.090  10.109  0.4335 -0.5624 -0.3248
   67CHL1   H1A 7409   5.108   0.992  10.060 -0.9294 -1.1674  0.3082
   67CHL1   H1B 7410   5.174   1.153  10.079  1.5917 -0.1955  3.4760
   67CHL1    C2 7411   5.072   1.077  10.264  0.1295  0.4524 -0.6478
   67CHL1   H2A 7412   5.156   1.028  10.317 -0.4541  0.6742  0.4926
   67CHL1   H2B 7413   4.985   1.011  10.287  0.7196 -0.7076 -1.6598
   67CHL1   C20 7414   4.874   1.095   9.341 -0.8249  0.1566  0.3482
   67CHL1   H20 7415   4.765   1.087   9.363 -1.1497 -0.6197 -1.4379
   67CHL1   C21 7416   4.929   0.955   9.345  0.0024  0.2166  0.4140
   67CHL1  H21A 7417   4.895   0.901   9.435  0.7869  0.1861  0.6906
   67CHL1  H21B 7418   5.037   0.944   9.322  0.5151  2.8567  1.3210
   67CHL1  H21C 7419   4.885   0.885   9.270  1.2416  1.0708 -1.1472
   67CHL1   C22 7420   4.891   1.154   9.201 -0.2468 -0.7254  0.0178
   67CHL1  H22A 7421   4.874   1.263   9.203 -0.8966 -0.7906 -1.0634
   67CHL1  H22B 7422   4.995   1.156   9.163 -0.2695  1.2450  0.0410
   67CHL1   C23 7423   4.784   1.109   9.096 -0.2897  0.3228 -0.3825
   67CHL1  H23A 7424   4.820   1.009   9.062  0.2975  0.8610 -1.3741
   67CHL1  H23B 7425   4.681   1.105   9.137  0.1547 -0.6903  0.6725
   67CHL1   C24 7426   4.800   1.200   8.972  0.7396 -0.1950  0.5751
   67CHL1  H24A 7427   4.771   1.302   9.006  1.0494 -0.7071  2.4042
   67CHL1  H24B 7428   4.903   1.216   8.934 -0.4197 -0.4961 -2.9503
   67CHL1   C25 7429   4.709   1.149   8.858 -0.1769  0.2570 -0.3544
   67CHL1   H25 7430   4.614   1.127   8.911  0.5791 -0.3043  0.7764
   67CHL1   C26 7431   4.698   1.257   8.752  0.4769 -0.4489 -0.1682
   67CHL1  H26A 7432   4.697   1.353   8.807  1.4055 -0.2777 -0.4497
   67CHL1  H26B 7433   4.785   1.283   8.688 -0.3961  2.6481 -0.1668
   67CHL1  H26C 7434   4.601   1.249   8.698 -0.8905 -1.1496  2.2802
   67CHL1   C27 7435   4.758   1.016   8.805  0.4365  0.0423  0.2457
   67CHL1  H27A 7436   4.738   1.000   8.696 -0.2542  0.9988  0.2243
   67CHL1  H27B 7437   4.868   1.015   8.815  0.3440 -0.1493  1.2149
   67CHL1  H27C 7438   4.715   0.925   8.851 -2.5999  0.5519 -1.4395
   68CHL1    C3 7439   2.659   2.156  10.479 -0.1823  0.5774  0.1821
   68CHL1    H3 7440   2.578   2.231  10.468 -0.5663  0.1591  0.1328
   68CHL1    O3 7441   2.679   2.133  10.621  0.4225  0.0258  0.0628
   68CHL1   H3' 7442   2.593   2.107  10.658  0.6666  1.5424  1.7520
   68CHL1    C4 7443   2.624   2.022  10.412  0.8106  0.7599 -0.0671
   68CHL1   H4A 7444   2.684   1.931  10.433 -1.6128 -1.3718 -1.9445
   68CHL1   H4B 7445   2.521   1.990  10.439  0.1433  1.0978 -2.1049
   68CHL1    C5 7446   2.618   2.044  10.265  0.2898 -0.2387 -0.3340
   68CHL1    C6 7447   2.507   2.017  10.197  0.1603  0.3510  0.2106
   68CHL1    H6 7448   2.423   1.970  10.250  1.7070 -3.2557 -0.4321
   68CHL1    C7 7449   2.481   2.013  10.048  0.5915 -0.0913 -0.0380
   68CHL1   H7A 7450   2.430   1.923  10.009 -0.4449  0.2587  0.4839
   68CHL1   H7B 7451   2.412   2.099  10.032 -0.7361 -0.5846  2.7528
   68CHL1    C8 7452   2.623   2.024   9.969  0.3093  0.4655 -0.6538
   68CHL1    H8 7453   2.672   1.925   9.977  1.2850  1.0306  0.6198
   68CHL1   C14 7454   2.597   2.049   9.828 -0.7888 -0.2305 -0.0062
   68CHL1   H14 7455   2.559   2.153   9.827  1.9838  0.8353  0.7838
   68CHL1   C15 7456   2.498   1.962   9.751 -0.3435 -0.3354  0.5674
   68CHL1  H15A 7457   2.515   1.853   9.770 -0.8215 -0.8194 -1.5739
   68CHL1  H15B 7458   2.393   1.988   9.777 -0.0139  0.4622  1.1132
   68CHL1   C16 7459   2.526   2.000   9.607  0.2024  0.3400 -0.7073
   68CHL1  H16A 7460   2.539   1.909   9.545 -0.4910  0.7037 -1.3860
   68CHL1  H16B 7461   2.436   2.056   9.573 -0.6882 -0.0931  0.8432
   68CHL1   C17 7462   2.652   2.090   9.602 -0.5808 -0.1656 -0.7115
   68CHL1   H17 7463   2.619   2.195   9.620  0.8049 -0.1413  1.8715
   68CHL1   C13 7464   2.722   2.063   9.740 -0.1496 -0.0675  1.2000
   68CHL1   C18 7465   2.818   1.936   9.741 -0.8902 -0.7708 -0.0132
   68CHL1  H18A 7466   2.902   1.963   9.673  0.4845  0.8058  2.2758
   68CHL1  H18B 7467   2.849   1.916   9.845  0.0532 -0.8183 -0.2969
   68CHL1  H18C 7468   2.761   1.850   9.700 -0.3218 -0.2390 -2.0327
   68CHL1   C12 7469   2.806   2.185   9.799 -0.4715 -0.1511  0.6586
   68CHL1  H12A 7470   2.897   2.217   9.744 -0.7123 -3.0470 -1.5018
   68CHL1  H12B 7471   2.733   2.269   9.800 -1.6449 -1.1370 -0.9470
   68CHL1   C11 7472   2.839   2.163   9.950  0.6934  0.3316 -0.2616
   68CHL1  H11A 7473   2.913   2.081   9.959  0.0948 -0.2122 -0.2740
   68CHL1  H11B 7474   2.897   2.250   9.988  0.8286 -0.3262  1.0371
   68CHL1    C9 7475   2.714   2.134  10.036 -0.5331  0.0233  0.1249
   68CHL1    H9 7476   2.656   2.228  10.041  1.1953  1.1343 -0.3364
   68CHL1   C10 7477   2.741   2.101  10.187  0.4907 -0.4180 -0.0767
   68CHL1   C19 7478   2.852   1.992  10.197 -0.7066  0.1663 -0.0897
   68CHL1  H19A 7479   2.953   2.018  10.157  0.6758 -0.2211  3.0210
   68CHL1  H19B 7480   2.867   1.953  10.300  2.3790 -1.3112 -1.0440
   68CHL1  H19C 7481   2.817   1.905  10.137  3.6043 -1.9199  0.2292
   68CHL1    C1 7482   2.780   2.234  10.266  0.0354  0.2341 -0.6978
   68CHL1   H1A 7483   2.881   2.268  10.235  1.4215 -2.1891  0.9539
   68CHL1   H1B 7484   2.710   2.317  10.245  0.1158  0.1575 -1.2567
   68CHL1    C2 7485   2.790   2.221  10.419  0.5484 -0.2210  0.4284
   68CHL1   H2A 7486   2.815   2.325  10.449 -1.0940  0.5375 -0.7584
   68CHL1   H2B 7487   2.875   2.157  10.451  0.5718  0.2054  1.2315
   68CHL1   C20 7488   2.731   2.087   9.470  0.6838 -0.4057  1.1829
   68CHL1   H20 7489   2.768   1.987   9.439  1.5792  0.0685  0.7101
   68CHL1   C21 7490   2.848   2.193   9.460 -0.0428 -0.0029  0.1252
   68CHL1  H21A 7491   2.932   2.164   9.527 -0.0544 -3.4054 -1.2515
   68CHL1  H21B 7492   2.823   2.294   9.500  0.9436  1.4372 -2.7660
   68CHL1  H21C 7493   2.884   2.216   9.358  1.5244 -0.8587  0.4746
   68CHL1   C22 7494   2.631   2.116   9.352  0.3786 -0.6549 -0.2045
   68CHL1  H22A 7495   2.666   2.065   9.260  2.3994  0.6322 -0.1757
   68CHL1  H22B 7496   2.530   2.072   9.368 -0.8331  1.6425 -1.2707
   68CHL1   C23 7497   2.617   2.265   9.316  0.5424  0.0793  0.0530
   68CHL1  H23A 7498   2.594   2.317   9.412  0.0612 -0.3246  0.1552
   68CHL1  H23B 7499   2.713   2.307   9.280 -0.6170  0.4291 -2.6753
   68CHL1   C24 7500   2.498   2.300   9.217  0.4007  0.2912  0.7578
   68CHL1  H24A 7501   2.402   2.282   9.270  0.8442 -0.9403  1.1688
   68CHL1  H24B 7502   2.509   2.405   9.183 -0.1786 -0.2029 -1.0191
   68CHL1   C25 7503   2.505   2.213   9.087  0.0941 -0.1915 -0.7867
   68CHL1   H25 7504   2.546   2.115   9.121 -0.0855  0.3110  0.9036
   68CHL1   C26 7505   2.375   2.193   9.017  0.5818 -0.3464 -0.6406
   68CHL1  H26A 7506   2.389   2.144   8.919  1.4259 -3.3872  0.9411
   68CHL1  H26B 7507   2.296   2.131   9.066  1.2668 -0.5610  0.2112
   68CHL1  H26C 7508   2.327   2.292   9.000  0.5740 -0.2510 -0.0907
   68CHL1   C27 7509   2.604   2.277   8.994  0.1748  0.6445 -0.1257
   68CHL1  H27A 7510   2.579   2.385   8.979  1.4156  1.1839  1.5050
   68CHL1  H27B 7511   2.709   2.273   9.032  0.4547  1.4294 -0.8122
   68CHL1  H27C 7512   2.602   2.216   8.902  0.6948  0.6516 -0.1474
   69CHL1    C3 7513   2.173   0.674   6.814  0.1309  0.2476  0.2077
   69CHL1    H3 7514   2.184   0.566   6.841  0.5644  0.5374  1.1941
   69CHL1    O3 7515   2.171   0.706   6.674  0.5579  0.0650  0.1489
   69CHL1   H3' 7516   2.132   0.793   6.685 -3.6512 -1.9244  1.7944
   69CHL1    C4 7517   2.035   0.714   6.880 -1.1443 -0.1066  0.3018
   69CHL1   H4A 7518   2.024   0.819   6.847  2.0883  0.4145  0.6995
   69CHL1   H4B 7519   1.960   0.645   6.835 -2.0768  0.4825  0.9277
   69CHL1    C5 7520   2.042   0.711   7.033  0.0650 -0.1111  0.0325
   69CHL1    C6 7521   1.948   0.648   7.104 -0.0932 -0.3000 -0.2837
   69CHL1    H6 7522   1.852   0.616   7.060 -0.4394  0.0784  0.1931
   69CHL1    C7 7523   1.945   0.644   7.255  0.1662  0.7653  0.0931
   69CHL1   H7A 7524   1.843   0.668   7.292  0.7199  0.0936  2.1286
   69CHL1   H7B 7525   1.972   0.539   7.278 -0.4748 -0.2970 -3.6055
   69CHL1    C8 7526   2.042   0.738   7.326 -0.1913 -0.0501 -0.4695
   69CHL1    H8 7527   1.993   0.838   7.326  1.0206  0.5502  0.1993
   69CHL1   C14 7528   2.071   0.694   7.467  0.0176  0.8636  0.1275
   69CHL1   H14 7529   2.122   0.594   7.466 -1.1038  0.2637  1.2405
   69CHL1   C15 7530   1.945   0.663   7.556 -0.2143 -0.4502 -0.2744
   69CHL1  H15A 7531   1.885   0.756   7.566  0.3053 -0.1891  0.5144
   69CHL1  H15B 7532   1.877   0.582   7.521  0.8317 -0.7166 -1.7276
   69CHL1   C16 7533   2.003   0.652   7.697 -0.4367 -0.6918  0.3312
   69CHL1  H16A 7534   1.951   0.707   7.779 -0.3049 -1.6588  1.0853
   69CHL1  H16B 7535   2.000   0.546   7.732 -1.1375 -0.9434 -0.4687
   69CHL1   C17 7536   2.151   0.713   7.686  0.1250  0.6511 -0.1589
   69CHL1   H17 7537   2.214   0.622   7.676  0.0632  0.5731  0.1377
   69CHL1   C13 7538   2.157   0.786   7.551  0.1922 -1.1140 -0.7472
   69CHL1   C18 7539   2.099   0.928   7.583  0.7020 -0.2106  1.1084
   69CHL1  H18A 7540   2.011   0.919   7.650  0.9070 -0.0482  1.3986
   69CHL1  H18B 7541   2.170   0.999   7.629  1.7680  0.0960 -0.9349
   69CHL1  H18C 7542   2.060   0.974   7.489 -2.0921 -2.8356  0.8918
   69CHL1   C12 7543   2.292   0.798   7.478 -0.2032  0.4466 -0.3731
   69CHL1  H12A 7544   2.360   0.870   7.529  1.1527  0.2267 -1.8170
   69CHL1  H12B 7545   2.343   0.699   7.484 -0.3259  0.2840 -2.0108
   69CHL1   C11 7546   2.281   0.831   7.325 -0.4566 -0.0579  0.1734
   69CHL1  H11A 7547   2.265   0.941   7.324 -0.6737 -0.0959 -0.7486
   69CHL1  H11B 7548   2.378   0.816   7.272 -0.2671  0.1274  0.4605
   69CHL1    C9 7549   2.175   0.745   7.249  0.2796  0.2699 -0.1708
   69CHL1    H9 7550   2.217   0.642   7.244 -0.2344 -0.0688  2.0089
   69CHL1   C10 7551   2.168   0.778   7.095  0.0725 -1.1108  0.0733
   69CHL1   C19 7552   2.141   0.927   7.082  0.6452  0.3883  0.2183
   69CHL1  H19A 7553   2.240   0.977   7.090  1.2557 -1.0287  1.8332
   69CHL1  H19B 7554   2.114   0.967   6.982  0.2347 -1.9044 -0.6030
   69CHL1  H19C 7555   2.066   0.964   7.156  0.7321  1.4126 -0.1995
   69CHL1    C1 7556   2.295   0.723   7.022  0.1782  0.0017  0.0290
   69CHL1   H1A 7557   2.372   0.781   7.077 -2.8167  2.0413  2.2766
   69CHL1   H1B 7558   2.296   0.612   7.035  2.8324  0.1465  1.3810
   69CHL1    C2 7559   2.294   0.744   6.867  0.2982 -0.1190 -0.2556
   69CHL1   H2A 7560   2.387   0.713   6.815  1.4758  0.0506  1.7001
   69CHL1   H2B 7561   2.280   0.853   6.852  0.2586 -0.1909 -0.7470
   69CHL1   C20 7562   2.195   0.790   7.808 -0.5037  0.1563  0.4756
   69CHL1   H20 7563   2.138   0.885   7.818 -1.6310 -0.5200  0.4558
   69CHL1   C21 7564   2.339   0.846   7.804  0.8263 -0.5429  0.1519
   69CHL1  H21A 7565   2.411   0.761   7.804  1.4845 -0.0480 -2.9271
   69CHL1  H21B 7566   2.351   0.913   7.893 -2.7726  1.0681 -0.4772
   69CHL1  H21C 7567   2.361   0.904   7.712  0.1822 -1.4953 -0.6068
   69CHL1   C22 7568   2.159   0.718   7.950 -0.3360 -0.1283 -0.1118
   69CHL1  H22A 7569   2.071   0.651   7.944 -0.9539  0.7569 -1.0268
   69CHL1  H22B 7570   2.255   0.663   7.963 -0.2141  0.4658  1.6931
   69CHL1   C23 7571   2.153   0.809   8.081 -0.1674 -0.3664 -0.7152
   69CHL1  H23A 7572   2.170   0.745   8.170 -1.1926  2.8944  1.9304
   69CHL1  H23B 7573   2.240   0.877   8.069 -0.5639 -0.0849 -2.2109
   69CHL1   C24 7574   2.018   0.885   8.096  0.7530 -0.1726 -1.0875
   69CHL1  H24A 7575   2.002   0.944   8.004 -2.8007 -1.9905 -1.7191
   69CHL1  H24B 7576   1.925   0.827   8.115  0.8162  0.2217  0.5255
   69CHL1   C25 7577   2.015   0.977   8.219  0.3566 -0.2476 -0.4966
   69CHL1   H25 7578   2.058   0.917   8.303 -1.7647 -0.4488  0.4821
   69CHL1   C26 7579   2.096   1.098   8.185  0.4938  0.0311 -0.0776
   69CHL1  H26A 7580   2.092   1.166   8.272  2.2275 -1.7425  1.4630
   69CHL1  H26B 7581   2.203   1.088   8.157  0.6300  1.4946 -0.0721
   69CHL1  H26C 7582   2.041   1.143   8.100 -2.5214 -0.9300  1.2814
   69CHL1   C27 7583   1.878   1.006   8.274 -0.3688 -0.4241  0.3849
   69CHL1  H27A 7584   1.901   1.047   8.375  0.9355 -0.9206  0.3018
   69CHL1  H27B 7585   1.823   1.081   8.213  2.0572  0.0481 -1.2700
   69CHL1  H27C 7586   1.816   0.915   8.288  1.8419 -2.1580 -0.7185
   70CHL1    C3 7587   1.203   3.967   7.057 -0.3002 -0.5068 -0.0634
   70CHL1    H3 7588   1.121   3.966   7.131  2.1479  0.7038  2.7397
   70CHL1    O3 7589   1.162   4.066   6.963  0.2589  0.2239  0.3788
   70CHL1   H3' 7590   1.067   4.052   6.954  0.1679  0.0212  1.5993
   70CHL1    C4 7591   1.328   4.025   7.115  0.2158 -0.2273 -0.2043
   70CHL1   H4A 7592   1.409   4.052   7.044 -0.1844  1.2618 -0.0946
   70CHL1   H4B 7593   1.299   4.120   7.165  1.7609 -0.0693  0.4149
   70CHL1    C5 7594   1.377   3.924   7.212 -0.1720  0.3602 -0.1224
   70CHL1    C6 7595   1.382   3.962   7.344  0.4457 -1.2592  0.5163
   70CHL1    H6 7596   1.350   4.063   7.372 -0.2419 -0.7878 -1.8258
   70CHL1    C7 7597   1.444   3.881   7.449  0.5765 -0.5174 -0.6671
   70CHL1   H7A 7598   1.509   3.946   7.512  0.5595 -2.1372  1.0871
   70CHL1   H7B 7599   1.366   3.828   7.510 -0.5581  1.4748 -0.3571
   70CHL1    C8 7600   1.524   3.769   7.388 -0.2963  0.0402 -0.2923
   70CHL1    H8 7601   1.622   3.801   7.347 -0.2666  0.0449 -0.2178
   70CHL1   C14 7602   1.551   3.669   7.502  0.1453  0.0481 -0.3442
   70CHL1   H14 7603   1.454   3.634   7.543  0.2457  0.2393  0.0581
   70CHL1   C15 7604   1.630   3.718   7.626  0.0577 -0.5140 -0.0696
   70CHL1  H15A 7605   1.720   3.772   7.590 -0.6819  1.3334  0.7983
   70CHL1  H15B 7606   1.579   3.789   7.695 -0.4704 -0.4423 -0.5368
   70CHL1   C16 7607   1.673   3.595   7.699  0.0377  0.9372 -0.1755
   70CHL1  H16A 7608   1.782   3.591   7.719 -0.1371 -1.8635  0.3114
   70CHL1  H16B 7609   1.625   3.569   7.796 -2.3753  2.1096 -0.9887
   70CHL1   C17 7610   1.633   3.474   7.601 -0.3299  0.2915 -0.2650
   70CHL1   H17 7611   1.528   3.444   7.621  0.2858 -2.1777 -0.5267
   70CHL1   C13 7612   1.625   3.539   7.458 -0.5154 -0.8594  0.6742
   70CHL1   C18 7613   1.774   3.566   7.408  0.5836  0.3324  0.2054
   70CHL1  H18A 7614   1.808   3.467   7.372  0.9796  0.0048  1.4549
   70CHL1  H18B 7615   1.772   3.635   7.321  2.4355  0.8591  0.5649
   70CHL1  H18C 7616   1.841   3.609   7.486 -0.2595  5.5450 -1.7636
   70CHL1   C12 7617   1.534   3.469   7.350  0.7493  0.0663  0.0424
   70CHL1  H12A 7618   1.580   3.380   7.300  1.7740  1.2085 -1.0850
   70CHL1  H12B 7619   1.439   3.432   7.394  0.8359  0.1966  0.3442
   70CHL1   C11 7620   1.514   3.559   7.232 -0.4277  0.3520  0.2971
   70CHL1  H11A 7621   1.614   3.579   7.188 -0.5880  0.8786  0.1667
   70CHL1  H11B 7622   1.443   3.515   7.159  0.2174 -0.2392  0.0248
   70CHL1    C9 7623   1.443   3.692   7.279  0.3497  0.2926 -0.4832
   70CHL1    H9 7624   1.346   3.665   7.326 -0.7065  0.2040 -2.6395
   70CHL1   C10 7625   1.411   3.789   7.163 -0.1961  0.0568  0.3959
   70CHL1   C19 7626   1.529   3.803   7.071  0.0931 -0.2766 -0.6343
   70CHL1  H19A 7627   1.622   3.822   7.128  0.6124  1.8530 -2.1429
   70CHL1  H19B 7628   1.532   3.706   7.017 -1.5596  0.1417 -1.5291
   70CHL1  H19C 7629   1.509   3.879   6.992  2.3909  0.4349 -0.5664
   70CHL1    C1 7630   1.280   3.732   7.095  0.3428 -0.8294 -0.2170
   70CHL1   H1A 7631   1.291   3.634   7.044 -0.0166 -0.7122 -0.5223
   70CHL1   H1B 7632   1.205   3.719   7.176 -0.6283  0.3289 -0.9104
   70CHL1    C2 7633   1.223   3.834   6.988 -0.0396 -0.1719  0.3095
   70CHL1   H2A 7634   1.132   3.793   6.939  0.8302 -1.1573 -0.4979
   70CHL1   H2B 7635   1.298   3.843   6.907  0.4799 -1.2771  0.6563
   70CHL1   C20 7636   1.713   3.350   7.628  0.3244 -0.0725 -0.2575
   70CHL1   H20 7637   1.816   3.370   7.592  0.7706 -0.5082  0.7572
   70CHL1   C21 7638   1.671   3.225   7.550  0.7457 -0.2293  0.3629
   70CHL1  H21A 7639   1.733   3.141   7.586 -0.5531 -0.9792  0.8993
   70CHL1  H21B 7640   1.679   3.242   7.440 -0.2671 -1.4298  0.0979
   70CHL1  H21C 7641   1.562   3.208   7.561  0.2969  2.2032 -0.0148
   70CHL1   C22 7642   1.733   3.313   7.781  0.7347  0.1952  0.1670
   70CHL1  H22A 7643   1.804   3.229   7.791 -0.2577 -0.5881  0.7525
   70CHL1  H22B 7644   1.786   3.394   7.836  0.5899 -0.9331  2.0198
   70CHL1   C23 7645   1.597   3.267   7.848  0.6163 -0.8561  0.2743
   70CHL1  H23A 7646   1.548   3.361   7.879  0.4486 -0.8603  0.0210
   70CHL1  H23B 7647   1.532   3.203   7.784 -1.4491  0.2815  1.2154
   70CHL1   C24 7648   1.624   3.189   7.976 -0.5478 -0.7223 -0.5304
   70CHL1  H24A 7649   1.529   3.172   8.031  0.0336  1.1313  1.0931
   70CHL1  H24B 7650   1.671   3.093   7.943 -0.0643 -0.9313  0.7228
   70CHL1   C25 7651   1.716   3.255   8.082  0.0704 -0.0539 -0.5917
   70CHL1   H25 7652   1.808   3.300   8.039 -0.4047  0.5760 -0.9644
   70CHL1   C26 7653   1.642   3.373   8.146 -0.6203  0.2919  0.7458
   70CHL1  H26A 7654   1.548   3.342   8.197 -0.9637  2.5930  1.5550
   70CHL1  H26B 7655   1.713   3.407   8.224 -0.1959 -0.5432  0.7375
   70CHL1  H26C 7656   1.625   3.460   8.079  1.4130  0.2413  0.1247
   70CHL1   C27 7657   1.775   3.155   8.177 -0.2827  0.6621  0.6483
   70CHL1  H27A 7658   1.693   3.089   8.214  0.4700 -0.4114  0.4118
   70CHL1  H27B 7659   1.840   3.082   8.125 -1.3975  1.1210 -1.4109
   70CHL1  H27C 7660   1.819   3.205   8.266  2.4975  1.5762 -1.1868
   71CHL1    C3 7661   1.493   5.845   6.795 -0.0929 -0.0416  0.1216
   71CHL1    H3 7662   1.393   5.797   6.790  0.1170 -0.8321  2.8934
   71CHL1    O3 7663   1.540   5.874   6.661  0.6847 -0.0884  0.0242
   71CHL1   H3' 7664   1.463   5.919   6.626  0.1392 -0.4072  0.8153
   71CHL1    C4 7665   1.487   5.972   6.882  0.6549 -0.3259  0.8054
   71CHL1   H4A 7666   1.588   6.017   6.894  1.2283 -1.6129  0.9167
   71CHL1   H4B 7667   1.411   6.036   6.832  0.8067 -2.0882 -1.8279
   71CHL1    C5 7668   1.440   5.933   7.019  0.6513 -0.4374 -0.0790
   71CHL1    C6 7669   1.325   5.977   7.076 -0.2090  0.9040  0.5496
   71CHL1    H6 7670   1.251   6.029   7.014 -0.6637  0.6044  0.8389
   71CHL1    C7 7671   1.279   5.948   7.214  0.2131 -0.2447 -0.5014
   71CHL1   H7A 7672   1.253   6.038   7.273  1.0078  0.4008 -1.1393
   71CHL1   H7B 7673   1.188   5.885   7.227  1.3893 -1.7326  0.6727
   71CHL1    C8 7674   1.390   5.874   7.302  0.0319 -0.2620 -0.2041
   71CHL1    H8 7675   1.468   5.947   7.335 -2.0021  2.2419 -0.7349
   71CHL1   C14 7676   1.333   5.814   7.430  0.2304  0.1248 -0.5369
   71CHL1   H14 7677   1.267   5.733   7.394 -0.0322  0.9556 -1.9599
   71CHL1   C15 7678   1.246   5.899   7.530 -0.3697 -0.3212  0.2020
   71CHL1  H15A 7679   1.288   6.000   7.543  1.3699 -0.7647 -1.6975
   71CHL1  H15B 7680   1.146   5.897   7.482 -0.2450  2.8908 -0.2587
   71CHL1   C16 7681   1.253   5.826   7.658  0.2544 -0.0112 -0.0804
   71CHL1  H16A 7682   1.301   5.890   7.736 -1.0306 -0.5476  1.1767
   71CHL1  H16B 7683   1.146   5.803   7.679  0.2608  0.7920  0.8824
   71CHL1   C17 7684   1.338   5.696   7.631 -0.1215  0.0132 -0.0728
   71CHL1   H17 7685   1.269   5.619   7.591 -1.7174  1.4348 -0.1002
   71CHL1   C13 7686   1.429   5.736   7.512 -0.4922 -0.0324  0.3833
   71CHL1   C18 7687   1.538   5.828   7.571 -0.5987 -1.2415  0.2374
   71CHL1  H18A 7688   1.602   5.764   7.635 -1.2354  1.3859  3.6243
   71CHL1  H18B 7689   1.601   5.876   7.493 -0.6035 -0.5752  0.6496
   71CHL1  H18C 7690   1.500   5.911   7.633  1.4969  0.6370 -0.9315
   71CHL1   C12 7691   1.482   5.625   7.434 -0.5592  0.3052 -0.3154
   71CHL1  H12A 7692   1.561   5.570   7.490 -0.1576  0.1382 -1.0405
   71CHL1  H12B 7693   1.399   5.558   7.405  0.3386 -0.4473 -1.2072
   71CHL1   C11 7694   1.549   5.681   7.309  0.4399  0.1710 -0.2810
   71CHL1  H11A 7695   1.637   5.740   7.342  1.0144 -1.1483  0.5524
   71CHL1  H11B 7696   1.592   5.597   7.250  2.5341  0.8590  0.2327
   71CHL1    C9 7697   1.462   5.774   7.216 -0.6680 -0.3538 -0.3594
   71CHL1    H9 7698   1.382   5.706   7.180 -1.6342  1.2540 -1.2797
   71CHL1   C10 7699   1.535   5.831   7.094  0.3657  0.0572 -0.3776
   71CHL1   C19 7700   1.663   5.905   7.138 -0.2102  0.2907  0.6262
   71CHL1  H19A 7701   1.729   5.833   7.192 -0.0336  0.5961  0.8141
   71CHL1  H19B 7702   1.722   5.922   7.045 -4.1404 -1.8063 -2.3600
   71CHL1  H19C 7703   1.638   5.997   7.194 -3.1652 -1.0722  1.6252
   71CHL1    C1 7704   1.558   5.712   7.004  0.1889  0.0275 -0.7141
   71CHL1   H1A 7705   1.643   5.651   7.043  0.1158  0.8245  0.7312
   71CHL1   H1B 7706   1.468   5.648   7.009 -0.6489  1.2883  0.8473
   71CHL1    C2 7707   1.583   5.745   6.854 -0.8578  0.2832 -0.7046
   71CHL1   H2A 7708   1.572   5.649   6.798  0.1206 -1.3936  1.8773
   71CHL1   H2B 7709   1.684   5.791   6.858 -1.2858  1.4735 -2.9103
   71CHL1   C20 7710   1.393   5.638   7.762  0.2420  0.3490  0.8300
   71CHL1   H20 7711   1.451   5.720   7.808  0.9364  1.0012 -1.1505
   71CHL1   C21 7712   1.474   5.510   7.745  0.5376  0.9757  0.3454
   71CHL1  H21A 7713   1.569   5.524   7.689  1.2793 -0.4334  1.2169
   71CHL1  H21B 7714   1.411   5.428   7.706 -0.9812  1.5379  1.5369
   71CHL1  H21C 7715   1.515   5.491   7.847  0.7694  1.0393  0.2632
   71CHL1   C22 7716   1.283   5.594   7.864  0.9120  0.4251  0.0380
   71CHL1  H22A 7717   1.201   5.668   7.857  0.8708  0.4176  0.4901
   71CHL1  H22B 7718   1.247   5.490   7.845 -2.2484  1.8766 -2.4442
   71CHL1   C23 7719   1.330   5.587   8.005  0.4706 -0.7081 -0.3218
   71CHL1  H23A 7720   1.412   5.517   8.031 -0.1379 -0.9286  0.9912
   71CHL1  H23B 7721   1.363   5.687   8.042  1.1347 -1.8677  2.3307
   71CHL1   C24 7722   1.213   5.550   8.108  0.4589  0.0357 -0.0161
   71CHL1  H24A 7723   1.139   5.633   8.099 -0.0398 -0.4768 -0.6648
   71CHL1  H24B 7724   1.177   5.453   8.068 -0.1587  0.8419 -1.4463
   71CHL1   C25 7725   1.254   5.539   8.255  0.3943 -0.5380  0.5965
   71CHL1   H25 7726   1.292   5.640   8.282  0.0566 -0.6192  1.3735
   71CHL1   C26 7727   1.125   5.527   8.345 -0.0645 -0.7779 -0.1877
   71CHL1  H26A 7728   1.061   5.440   8.317 -1.3954  0.5313 -1.2987
   71CHL1  H26B 7729   1.147   5.525   8.454 -0.7217  4.4511  0.1279
   71CHL1  H26C 7730   1.058   5.613   8.324  1.9982  0.4045 -2.0978
   71CHL1   C27 7731   1.359   5.423   8.272 -0.5945  0.8512  0.1544
   71CHL1  H27A 7732   1.457   5.462   8.238 -2.0022  1.7072 -3.0510
   71CHL1  H27B 7733   1.362   5.395   8.380  0.7366 -0.3101 -0.1576
   71CHL1  H27C 7734   1.336   5.334   8.210 -0.4144 -0.4292  1.8846
   72CHL1    C3 7735   1.550   4.420   7.074  0.0747 -0.1453  0.4459
   72CHL1    H3 7736   1.526   4.323   7.120  0.1462 -0.0983  0.5820
   72CHL1    O3 7737   1.550   4.398   6.939 -0.0096 -0.4101  0.3658
   72CHL1   H3' 7738   1.636   4.360   6.918  0.0119  0.2485 -0.7935
   72CHL1    C4 7739   1.441   4.526   7.104 -0.3668  0.3244  0.4555
   72CHL1   H4A 7740   1.479   4.616   7.052  1.3823 -0.0329  1.0729
   72CHL1   H4B 7741   1.335   4.503   7.079  0.1512 -1.7558  0.0834
   72CHL1    C5 7742   1.448   4.563   7.250  0.2515 -0.6162 -0.9279
   72CHL1    C6 7743   1.334   4.573   7.322  0.6182 -0.1864  0.3322
   72CHL1    H6 7744   1.238   4.552   7.273 -0.4223 -0.8640  2.5694
   72CHL1    C7 7745   1.327   4.614   7.469 -0.1184  0.2284  0.0170
   72CHL1   H7A 7746   1.244   4.686   7.484  1.0573  1.0202  2.9810
   72CHL1   H7B 7747   1.295   4.525   7.527 -3.2285  1.0412 -0.3466
   72CHL1    C8 7748   1.464   4.667   7.526  0.3395 -0.3089 -0.8955
   72CHL1    H8 7749   1.482   4.771   7.491 -0.0349  0.5860  1.4547
   72CHL1   C14 7750   1.456   4.655   7.676 -0.5699 -0.1895 -0.7631
   72CHL1   H14 7751   1.448   4.547   7.700  0.6820 -0.3645 -1.0914
   72CHL1   C15 7752   1.337   4.719   7.742  0.0933  0.3188 -0.2393
   72CHL1  H15A 7753   1.327   4.826   7.713  3.6470  0.9635  0.7869
   72CHL1  H15B 7754   1.239   4.668   7.727  0.6042 -0.2164 -1.7700
   72CHL1   C16 7755   1.381   4.717   7.888 -0.2679  0.0209 -0.1101
   72CHL1  H16A 7756   1.354   4.815   7.934  2.6950 -0.8967  3.9541
   72CHL1  H16B 7757   1.332   4.633   7.941 -0.2137 -0.7614 -1.2896
   72CHL1   C17 7758   1.535   4.693   7.888 -0.6560 -0.2066 -0.5775
   72CHL1   H17 7759   1.539   4.583   7.905  2.6590 -0.3336 -1.8847
   72CHL1   C13 7760   1.578   4.709   7.750  0.6753 -0.1325 -0.0839
   72CHL1   C18 7761   1.605   4.855   7.716 -0.5198 -0.1713  0.1156
   72CHL1  H18A 7762   1.618   4.863   7.606 -0.4583  0.5318  0.1706
   72CHL1  H18B 7763   1.528   4.927   7.752  2.2609  2.1350  1.6613
   72CHL1  H18C 7764   1.702   4.890   7.756  0.8777 -1.6152 -1.9161
   72CHL1   C12 7765   1.703   4.627   7.703 -0.1810  0.6514  0.8043
   72CHL1  H12A 7766   1.794   4.670   7.750 -0.4457  1.3834  0.6511
   72CHL1  H12B 7767   1.699   4.518   7.727  0.2180  0.2487 -0.8488
   72CHL1   C11 7768   1.716   4.622   7.548 -0.1893  0.0171 -0.0715
   72CHL1  H11A 7769   1.754   4.717   7.507  1.7711 -0.5476  0.3776
   72CHL1  H11B 7770   1.794   4.551   7.512 -2.8093 -2.0772 -1.8633
   72CHL1    C9 7771   1.585   4.584   7.468  0.0092  0.7401 -0.6070
   72CHL1    H9 7772   1.567   4.478   7.494 -2.5509  1.6668  1.6845
   72CHL1   C10 7773   1.585   4.589   7.314 -0.0691  0.4505  0.8160
   72CHL1   C19 7774   1.631   4.729   7.258 -0.4149  0.0021  0.3891
   72CHL1  H19A 7775   1.734   4.757   7.290 -0.7215  2.2204 -0.4691
   72CHL1  H19B 7776   1.637   4.734   7.147  0.1463 -0.1384  0.4111
   72CHL1  H19C 7777   1.561   4.812   7.282 -2.2947 -0.5137 -3.1555
   72CHL1    C1 7778   1.690   4.486   7.266 -0.5113  0.1115  0.5165
   72CHL1   H1A 7779   1.791   4.515   7.302  0.1087 -0.4605 -0.7151
   72CHL1   H1B 7780   1.678   4.391   7.324  2.4874 -0.6503  0.0062
   72CHL1    C2 7781   1.693   4.453   7.117 -0.8260 -0.2048  0.3621
   72CHL1   H2A 7782   1.765   4.369   7.100  0.6423  0.7404  1.7125
   72CHL1   H2B 7783   1.730   4.544   7.064 -0.3649 -0.2893  0.5306
   72CHL1   C20 7784   1.607   4.758   8.010  0.0971  0.4908 -0.1980
   72CHL1   H20 7785   1.635   4.864   7.990 -2.3237  1.0059 -1.0780
   72CHL1   C21 7786   1.743   4.678   8.018  0.0312  0.5396  0.5203
   72CHL1  H21A 7787   1.789   4.679   8.119 -0.6655 -1.6436  0.8931
   72CHL1  H21B 7788   1.814   4.724   7.946  0.5252  0.2032  0.7933
   72CHL1  H21C 7789   1.728   4.569   8.001 -0.9906  0.5335  1.3822
   72CHL1   C22 7790   1.518   4.760   8.136 -0.7958 -0.1117 -0.0530
   72CHL1  H22A 7791   1.428   4.820   8.113 -0.7389  0.0379  0.1161
   72CHL1  H22B 7792   1.479   4.659   8.164 -1.9999  0.1401 -0.7867
   72CHL1   C23 7793   1.595   4.817   8.256  0.3729  0.1085 -0.4262
   72CHL1  H23A 7794   1.680   4.754   8.292 -0.2877 -1.1179 -1.0006
   72CHL1  H23B 7795   1.643   4.912   8.221  1.4395 -1.3381 -3.0157
   72CHL1   C24 7796   1.504   4.856   8.382 -0.3961  0.5120  0.5899
   72CHL1  H24A 7797   1.406   4.853   8.329  1.3087  2.6093 -2.9210
   72CHL1  H24B 7798   1.500   4.760   8.437 -1.1296 -1.6890 -3.1150
   72CHL1   C25 7799   1.531   4.984   8.457 -0.4520 -0.3409  0.1236
   72CHL1   H25 7800   1.636   5.006   8.483 -0.6937  0.8674  0.1146
   72CHL1   C26 7801   1.481   5.103   8.378 -0.6148  0.4135  0.0480
   72CHL1  H26A 7802   1.371   5.123   8.382 -0.8498 -0.6334 -1.0141
   72CHL1  H26B 7803   1.531   5.198   8.409 -0.1224  0.5682 -1.2123
   72CHL1  H26C 7804   1.499   5.088   8.270  2.6300 -1.0524  0.7383
   72CHL1   C27 7805   1.448   4.975   8.581 -0.4188  0.3364 -0.1578
   72CHL1  H27A 7806   1.467   4.883   8.640  2.1748  1.7667  1.3416
   72CHL1  H27B 7807   1.472   5.061   8.647 -0.2962  0.1739  0.0097
   72CHL1  H27C 7808   1.339   4.989   8.561 -0.1463  2.3955 -0.3250
   73CHL1    C3 7809   1.521   6.526   7.050  0.3850 -0.2965 -0.2964
   73CHL1    H3 7810   1.420   6.566   7.027  1.5918  2.3759 -1.1506
   73CHL1    O3 7811   1.574   6.476   6.933 -0.4537  0.2851  0.1849
   73CHL1   H3' 7812   1.613   6.555   6.895  0.1261 -0.3246 -0.4954
   73CHL1    C4 7813   1.599   6.636   7.112 -0.1691 -0.0306 -0.2097
   73CHL1   H4A 7814   1.702   6.605   7.139 -1.1821 -1.9367  1.6411
   73CHL1   H4B 7815   1.597   6.723   7.042 -3.2290 -0.2987 -0.5221
   73CHL1    C5 7816   1.514   6.678   7.230  0.2711 -0.2641 -0.2100
   73CHL1    C6 7817   1.447   6.796   7.231 -0.1654 -0.4723 -0.4957
   73CHL1    H6 7818   1.452   6.861   7.143 -0.3939 -0.0451 -0.1967
   73CHL1    C7 7819   1.380   6.851   7.356 -0.2051 -0.1193 -0.2658
   73CHL1   H7A 7820   1.404   6.959   7.368 -2.0686  0.2864 -0.0707
   73CHL1   H7B 7821   1.270   6.836   7.351 -0.0282 -2.7804  2.5439
   73CHL1    C8 7822   1.429   6.772   7.487  0.0241 -0.3443  0.4423
   73CHL1    H8 7823   1.533   6.802   7.510  0.6355 -0.4791 -1.9572
   73CHL1   C14 7824   1.350   6.833   7.605 -0.2111  0.7554  0.2456
   73CHL1   H14 7825   1.242   6.820   7.587 -0.1249  2.1171 -1.3890
   73CHL1   C15 7826   1.370   6.982   7.629  0.1492 -0.8689  0.5070
   73CHL1  H15A 7827   1.471   7.024   7.609  1.2767 -2.4426  2.6096
   73CHL1  H15B 7828   1.291   7.042   7.580  0.7375  0.5291  1.2462
   73CHL1   C16 7829   1.347   6.991   7.782  0.4080  0.8070 -0.8710
   73CHL1  H16A 7830   1.443   7.024   7.826 -0.6218  0.0424  2.0734
   73CHL1  H16B 7831   1.259   7.052   7.812  1.7380  1.1132  2.6397
   73CHL1   C17 7832   1.307   6.849   7.830 -0.0558  0.3349  0.4187
   73CHL1   H17 7833   1.204   6.811   7.812  0.9871 -0.8263 -3.7808
   73CHL1   C13 7834   1.384   6.751   7.733  1.0297  0.0023 -0.8465
   73CHL1   C18 7835   1.538   6.756   7.767  0.4845  0.3867 -0.8677
   73CHL1  H18A 7836   1.553   6.704   7.864 -1.7295 -1.8743 -1.7004
   73CHL1  H18B 7837   1.588   6.698   7.687  0.1737  1.6327 -1.9938
   73CHL1  H18C 7838   1.588   6.856   7.767 -1.0820  1.2097  0.6478
   73CHL1   C12 7839   1.336   6.606   7.707 -0.5271 -0.3356 -1.0206
   73CHL1  H12A 7840   1.357   6.543   7.796  0.5411  1.9026  0.3815
   73CHL1  H12B 7841   1.226   6.597   7.702 -0.8443  1.6077  1.5345
   73CHL1   C11 7842   1.404   6.533   7.593  0.2931 -0.0384  0.0223
   73CHL1  H11A 7843   1.510   6.518   7.623  0.7042 -0.3398 -1.5358
   73CHL1  H11B 7844   1.359   6.434   7.568 -0.9327  0.2098  1.1893
   73CHL1    C9 7845   1.409   6.621   7.463 -0.5583  0.0752 -0.7777
   73CHL1    H9 7846   1.307   6.616   7.421 -0.8188 -3.6062  0.1782
   73CHL1   C10 7847   1.497   6.577   7.344 -0.0734 -0.1145 -0.1579
   73CHL1   C19 7848   1.640   6.567   7.399  0.2985 -0.1744 -0.1282
   73CHL1  H19A 7849   1.643   6.485   7.474  0.9392  0.5432  0.6389
   73CHL1  H19B 7850   1.711   6.536   7.319 -0.0233  1.2226 -0.9643
   73CHL1  H19C 7851   1.678   6.652   7.460  2.2874 -1.6382  0.7519
   73CHL1    C1 7852   1.441   6.452   7.274  0.7170 -0.2172  0.0498
   73CHL1   H1A 7853   1.431   6.373   7.351  1.4568  0.3747  0.7604
   73CHL1   H1B 7854   1.336   6.469   7.241  1.2051 -0.8255 -1.9294
   73CHL1    C2 7855   1.515   6.405   7.148 -0.5252  0.7671  0.3534
   73CHL1   H2A 7856   1.450   6.322   7.111 -1.1733  0.4607  2.1531
   73CHL1   H2B 7857   1.616   6.360   7.162 -0.8011  0.1901  0.5220
   73CHL1   C20 7858   1.328   6.818   7.982 -0.5387 -0.3779  0.6936
   73CHL1   H20 7859   1.437   6.822   8.004 -0.2906  0.7095 -0.7039
   73CHL1   C21 7860   1.282   6.673   8.013  0.3174  0.4276  0.1439
   73CHL1  H21A 7861   1.356   6.603   7.970  1.9083  1.1980  1.5601
   73CHL1  H21B 7862   1.175   6.662   7.986  0.1574 -0.7382  1.1656
   73CHL1  H21C 7863   1.292   6.652   8.122 -3.4250  2.2490  0.8984
   73CHL1   C22 7864   1.259   6.929   8.061 -0.1346 -0.3022 -0.6123
   73CHL1  H22A 7865   1.273   6.913   8.170 -0.1864  1.8680 -0.2555
   73CHL1  H22B 7866   1.305   7.025   8.028  0.5705 -1.2113 -2.2879
   73CHL1   C23 7867   1.107   6.941   8.044  0.0549  0.1724 -0.2613
   73CHL1  H23A 7868   1.085   6.967   7.938 -3.0659 -0.1041  0.2958
   73CHL1  H23B 7869   1.058   6.846   8.071  1.7316 -0.2387  1.4478
   73CHL1   C24 7870   1.057   7.056   8.133  0.2869  0.0561  0.0823
   73CHL1  H24A 7871   1.069   7.017   8.236 -1.4931 -0.5917  0.0507
   73CHL1  H24B 7872   1.124   7.144   8.122  1.5868 -0.8467  0.6375
   73CHL1   C25 7873   0.909   7.104   8.106 -0.4587  0.6435 -0.5157
   73CHL1   H25 7874   0.901   7.136   8.000  0.9571  1.3435 -0.4353
   73CHL1   C26 7875   0.820   6.979   8.133 -0.7172  0.0586  0.4258
   73CHL1  H26A 7876   0.851   6.903   8.059 -0.4709  0.2445  0.3359
   73CHL1  H26B 7877   0.841   6.934   8.232 -0.2010 -0.1795  0.2147
   73CHL1  H26C 7878   0.712   7.000   8.120 -0.9745 -1.0503  0.7706
   73CHL1   C27 7879   0.870   7.206   8.209 -0.2863  0.1325 -0.5622
   73CHL1  H27A 7880   0.764   7.233   8.195  0.4005  1.7224 -2.8688
   73CHL1  H27B 7881   0.899   7.155   8.304  0.2862 -0.5780 -1.1054
   73CHL1  H27C 7882   0.934   7.296   8.210  2.0885 -1.4856  1.6116
   74CHL1    C3 7883   6.762   6.529   7.026  0.5718  0.1218  0.9732
   74CHL1    H3 7884   6.675   6.590   7.056  1.0826  0.8267  1.0346
   74CHL1    O3 7885   6.793   6.557   6.890  0.0112  0.0744 -0.1197
   74CHL1   H3' 7886   6.855   6.488   6.865  1.7081  1.6968 -0.5062
   74CHL1    C4 7887   6.881   6.561   7.110  0.2565  0.0177 -0.6925
   74CHL1   H4A 7888   6.968   6.503   7.072 -0.4574 -0.0673 -2.2382
   74CHL1   H4B 7889   6.908   6.667   7.095 -0.3917  0.2706 -0.1071
   74CHL1    C5 7890   6.861   6.531   7.256  0.4086 -0.6738 -0.4501
   74CHL1    C6 7891   6.869   6.638   7.341 -0.2322 -0.3282 -0.5533
   74CHL1    H6 7892   6.906   6.734   7.301 -0.0023  0.4711  1.5413
   74CHL1    C7 7893   6.843   6.613   7.489 -0.4047  0.8519 -0.5604
   74CHL1   H7A 7894   6.911   6.673   7.553  2.6111 -1.2129 -1.7063
   74CHL1   H7B 7895   6.743   6.648   7.522 -0.5995 -0.6132  0.4646
   74CHL1    C8 7896   6.849   6.469   7.536  0.1112  0.3858  0.1076
   74CHL1    H8 7897   6.952   6.426   7.534 -0.0330 -0.4433  4.7888
   74CHL1   C14 7898   6.782   6.452   7.668 -1.1544  0.1420 -1.0432
   74CHL1   H14 7899   6.676   6.480   7.650 -0.6325  1.8741 -1.5482
   74CHL1   C15 7900   6.831   6.537   7.790  0.5788 -0.5810  0.1769
   74CHL1  H15A 7901   6.941   6.534   7.775  0.6885 -1.9057  1.1090
   74CHL1  H15B 7902   6.797   6.642   7.782  0.0712 -0.6294  1.5033
   74CHL1   C16 7903   6.768   6.463   7.907 -0.6708 -0.1619 -0.3306
   74CHL1  H16A 7904   6.846   6.425   7.976  1.1700  0.0728 -2.2183
   74CHL1  H16B 7905   6.692   6.524   7.961 -2.2723 -0.7146 -1.8996
   74CHL1   C17 7906   6.690   6.333   7.857 -0.1683 -0.0264 -0.1284
   74CHL1   H17 7907   6.584   6.356   7.832  0.1461  1.6539 -0.0283
   74CHL1   C13 7908   6.766   6.316   7.724 -0.1102 -0.3522  0.3822
   74CHL1   C18 7909   6.904   6.242   7.746 -0.6253 -0.3248 -0.2424
   74CHL1  H18A 7910   6.869   6.139   7.772  1.4240 -1.6413 -2.5033
   74CHL1  H18B 7911   6.970   6.229   7.658 -0.9533 -0.2340 -0.5008
   74CHL1  H18C 7912   6.956   6.285   7.834  0.1168 -0.4898 -0.6011
   74CHL1   C12 7913   6.693   6.233   7.619  0.2202  0.1130  0.7801
   74CHL1  H12A 7914   6.689   6.128   7.656 -0.0152  0.4055  1.6026
   74CHL1  H12B 7915   6.589   6.270   7.602  1.3858  3.2714  0.3052
   74CHL1   C11 7916   6.751   6.237   7.478 -1.0207  0.1038 -0.1972
   74CHL1  H11A 7917   6.851   6.188   7.485 -1.2614 -0.4075 -0.3162
   74CHL1  H11B 7918   6.686   6.171   7.416 -1.6546  1.0050 -0.5000
   74CHL1    C9 7919   6.773   6.379   7.425 -0.0933  0.2986  0.1581
   74CHL1    H9 7920   6.669   6.418   7.421 -0.1136  0.1314 -1.3894
   74CHL1   C10 7921   6.816   6.390   7.278 -0.1643  0.5506 -0.0731
   74CHL1   C19 7922   6.941   6.307   7.252 -0.4892  0.0331  0.8228
   74CHL1  H19A 7923   6.964   6.294   7.144  2.2660 -2.5726  1.6373
   74CHL1  H19B 7924   7.033   6.339   7.304 -0.0338 -0.4235  0.3021
   74CHL1  H19C 7925   6.930   6.201   7.284  0.9780 -0.6723 -0.9545
   74CHL1    C1 7926   6.697   6.357   7.183  0.5924 -0.3263  0.2831
   74CHL1   H1A 7927   6.657   6.258   7.213 -1.0454 -0.0588 -0.9642
   74CHL1   H1B 7928   6.616   6.423   7.220 -1.4698 -1.2542 -2.4861
   74CHL1    C2 7929   6.721   6.380   7.037 -0.2052 -0.1617 -0.2325
   74CHL1   H2A 7930   6.634   6.361   6.971 -0.1036  0.5520 -0.5785
   74CHL1   H2B 7931   6.806   6.318   7.000  0.7281  1.0084 -0.0813
   74CHL1   C20 7932   6.692   6.225   7.963  0.0258  0.4426  0.2944
   74CHL1   H20 7933   6.792   6.217   8.011  0.8122  0.3294 -1.3250
   74CHL1   C21 7934   6.638   6.089   7.905 -0.0341  0.1297 -0.3251
   74CHL1  H21A 7935   6.540   6.112   7.858  0.4107 -2.3376 -2.6343
   74CHL1  H21B 7936   6.627   6.017   7.990  1.5066 -1.1084 -1.1539
   74CHL1  H21C 7937   6.700   6.035   7.831 -0.0566  1.2843 -1.1893
   74CHL1   C22 7938   6.600   6.259   8.086  0.0516  0.5580  0.4836
   74CHL1  H22A 7939   6.613   6.368   8.102  2.2702  0.6903 -1.7771
   74CHL1  H22B 7940   6.495   6.241   8.054  0.7508  1.0011 -2.2434
   74CHL1   C23 7941   6.634   6.195   8.211  0.5794  0.4050 -0.1313
   74CHL1  H23A 7942   6.620   6.086   8.196 -2.9962  0.9446 -1.2947
   74CHL1  H23B 7943   6.739   6.212   8.242  0.7840  2.4401 -1.7970
   74CHL1   C24 7944   6.549   6.245   8.328 -0.1019 -0.2737  0.0083
   74CHL1  H24A 7945   6.519   6.349   8.301  0.4489  0.0106  0.4588
   74CHL1  H24B 7946   6.450   6.196   8.339  0.6029 -1.8587 -0.6047
   74CHL1   C25 7947   6.621   6.266   8.465  0.6953  0.4606  0.0768
   74CHL1   H25 7948   6.683   6.178   8.493  2.3550  1.6939  0.3758
   74CHL1   C26 7949   6.706   6.396   8.461  0.1180  0.4115  0.9895
   74CHL1  H26A 7950   6.768   6.412   8.551  0.6434  1.8985  0.3757
   74CHL1  H26B 7951   6.759   6.399   8.364 -2.8150 -2.4572 -0.8420
   74CHL1  H26C 7952   6.634   6.480   8.476  0.6554  1.2342 -0.9453
   74CHL1   C27 7953   6.514   6.296   8.577 -0.3085  0.2000 -0.0245
   74CHL1  H27A 7954   6.562   6.285   8.676  0.0787 -0.5672 -0.2933
   74CHL1  H27B 7955   6.460   6.393   8.568 -1.7630 -0.5530  0.3428
   74CHL1  H27C 7956   6.434   6.218   8.574 -0.4226  0.3637 -2.0099
   75CHL1    C3 7957   3.502   0.676   6.765 -0.7087 -0.0337 -0.2435
   75CHL1    H3 7958   3.557   0.584   6.739 -1.7018 -1.0164  1.0860
   75CHL1    O3 7959   3.449   0.729   6.641  0.3561  0.3298 -0.2821
   75CHL1   H3' 7960   3.520   0.772   6.594  0.5870 -0.0778 -0.3082
   75CHL1    C4 7961   3.391   0.662   6.875 -0.5286 -0.7838  0.1372
   75CHL1   H4A 7962   3.350   0.764   6.889  0.0926 -0.4722 -0.2850
   75CHL1   H4B 7963   3.301   0.604   6.848 -0.2135 -1.7372  1.0984
   75CHL1    C5 7964   3.448   0.604   6.999 -0.4163 -0.1927  0.2612
   75CHL1    C6 7965   3.409   0.481   7.036  0.1553  0.1230  0.3506
   75CHL1    H6 7966   3.335   0.424   6.979  0.4775 -0.1343  0.1869
   75CHL1    C7 7967   3.459   0.422   7.164  0.0373  0.2130  0.3891
   75CHL1   H7A 7968   3.373   0.383   7.224 -0.5617  1.9400  0.6948
   75CHL1   H7B 7969   3.535   0.352   7.126 -0.3320  0.2416 -0.4157
   75CHL1    C8 7970   3.521   0.522   7.258 -0.7677 -0.6353 -0.0082
   75CHL1    H8 7971   3.444   0.584   7.309  1.1770  2.6962 -0.9544
   75CHL1   C14 7972   3.595   0.436   7.357 -0.8639  0.1741  0.1405
   75CHL1   H14 7973   3.661   0.368   7.299  0.4866 -0.1570  2.0077
   75CHL1   C15 7974   3.524   0.332   7.453  0.4227 -0.7491 -0.1951
   75CHL1  H15A 7975   3.445   0.390   7.506  0.8641  1.2566 -1.6611
   75CHL1  H15B 7976   3.484   0.247   7.393  0.5060  0.2133 -1.6587
   75CHL1   C16 7977   3.635   0.295   7.545 -0.5740  0.4800 -0.2274
   75CHL1  H16A 7978   3.593   0.285   7.647 -1.2470 -3.6294 -0.8136
   75CHL1  H16B 7979   3.676   0.194   7.522 -0.7470  0.0194  1.4396
   75CHL1   C17 7980   3.742   0.405   7.551 -0.0486 -0.2852  0.2320
   75CHL1   H17 7981   3.830   0.371   7.493  0.8310 -0.2006  1.4915
   75CHL1   C13 7982   3.684   0.515   7.458  0.0565 -0.0711  0.1283
   75CHL1   C18 7983   3.597   0.604   7.546 -0.3590 -0.3060 -0.1253
   75CHL1  H18A 7984   3.516   0.653   7.489 -1.4880 -0.1043  1.6210
   75CHL1  H18B 7985   3.548   0.545   7.626  1.4836 -0.6315  0.7852
   75CHL1  H18C 7986   3.660   0.682   7.595 -1.7728 -0.6365  2.2936
   75CHL1   C12 7987   3.782   0.600   7.377  0.5233  0.5202  0.1113
   75CHL1  H12A 7988   3.837   0.666   7.447 -1.1521  2.4647 -0.3627
   75CHL1  H12B 7989   3.859   0.535   7.328  0.2832  0.6461 -0.4408
   75CHL1   C11 7990   3.711   0.698   7.274  0.7072  0.5351  0.6434
   75CHL1  H11A 7991   3.651   0.764   7.339 -1.6623 -1.5046  0.6054
   75CHL1  H11B 7992   3.799   0.748   7.229  2.7099 -2.0539  1.5412
   75CHL1    C9 7993   3.627   0.611   7.180 -0.3007  0.0587 -0.1857
   75CHL1    H9 7994   3.697   0.539   7.132 -1.6612 -1.4805  0.1164
   75CHL1   C10 7995   3.564   0.685   7.062 -0.1343  0.4864 -1.1330
   75CHL1   C19 7996   3.484   0.807   7.111  0.0677  0.0884 -0.8687
   75CHL1  H19A 7997   3.553   0.872   7.169  1.0612  2.8442 -4.9138
   75CHL1  H19B 7998   3.457   0.874   7.026 -0.7081 -0.1781 -0.8392
   75CHL1  H19C 7999   3.405   0.782   7.185  1.1736 -1.6039 -0.2526
   75CHL1    C1 8000   3.670   0.711   6.953 -0.5837 -0.2160 -0.3714
   75CHL1   H1A 8001   3.730   0.789   7.005 -0.4841  0.3041 -1.2614
   75CHL1   H1B 8002   3.725   0.615   6.938  1.1447  0.6638  0.1311
   75CHL1    C2 8003   3.607   0.765   6.823  0.4714  0.1884  0.2173
   75CHL1   H2A 8004   3.691   0.772   6.751  0.6831 -0.5843  0.3772
   75CHL1   H2B 8005   3.559   0.861   6.852  0.8314  0.8375 -1.3367
   75CHL1   C20 8006   3.803   0.446   7.687 -0.0429 -0.3705 -0.1506
   75CHL1   H20 8007   3.742   0.522   7.741  2.7545  1.1067  1.0564
   75CHL1   C21 8008   3.936   0.515   7.655  0.3594  0.0321 -0.0181
   75CHL1  H21A 8009   3.999   0.518   7.747  0.0964  1.8884  0.1153
   75CHL1  H21B 8010   3.929   0.618   7.615  0.1853 -0.8684 -2.3993
   75CHL1  H21C 8011   3.997   0.465   7.576  2.0913  3.3293 -0.8560
   75CHL1   C22 8012   3.817   0.319   7.787  0.9840  0.4241  0.1729
   75CHL1  H22A 8013   3.753   0.231   7.763  1.1727  0.6245 -1.0738
   75CHL1  H22B 8014   3.924   0.289   7.784  0.8701  0.0978 -0.8909
   75CHL1   C23 8015   3.761   0.352   7.931 -0.1066 -0.1616 -0.0366
   75CHL1  H23A 8016   3.674   0.419   7.916  0.1641  0.5734  1.6220
   75CHL1  H23B 8017   3.725   0.263   7.986 -0.0577 -0.5323 -0.5978
   75CHL1   C24 8018   3.876   0.421   8.013  0.1123 -0.2316 -0.0631
   75CHL1  H24A 8019   3.959   0.350   8.026 -1.5044 -2.0971  0.3204
   75CHL1  H24B 8020   3.915   0.505   7.952  1.1093 -1.0728 -0.5954
   75CHL1   C25 8021   3.815   0.488   8.138 -0.1456 -0.6253  0.1906
   75CHL1   H25 8022   3.733   0.541   8.086 -0.9493 -1.1742  0.8909
   75CHL1   C26 8023   3.759   0.390   8.246  0.4128  0.4424 -0.3440
   75CHL1  H26A 8024   3.706   0.447   8.325 -2.4127  1.3469 -2.8090
   75CHL1  H26B 8025   3.693   0.309   8.209  0.9844 -1.9470  3.5745
   75CHL1  H26C 8026   3.844   0.331   8.287  0.2965 -0.6843 -1.6778
   75CHL1   C27 8027   3.918   0.579   8.198 -0.1409  0.3150  0.0118
   75CHL1  H27A 8028   4.014   0.523   8.206  0.2725  0.7265 -1.9347
   75CHL1  H27B 8029   3.935   0.668   8.134  0.0463 -0.8344 -1.5740
   75CHL1  H27C 8030   3.887   0.611   8.300 -0.1194  1.7626 -0.4273
   76CHL1    C3 8031   0.470   3.194   7.312  0.1992  0.6457 -0.7203
   76CHL1    H3 8032   0.457   3.304   7.305  2.3849  0.9283 -0.6625
   76CHL1    O3 8033   0.456   3.136   7.181  0.4392  0.6347 -0.4508
   76CHL1   H3' 8034   0.488   3.046   7.195  1.3542  1.0087 -0.1044
   76CHL1    C4 8035   0.603   3.151   7.373  0.2352 -0.3988 -0.9573
   76CHL1   H4A 8036   0.607   3.040   7.371 -1.2541 -0.4634 -1.1634
   76CHL1   H4B 8037   0.686   3.181   7.306  0.7842 -0.5055 -0.3282
   76CHL1    C5 8038   0.617   3.202   7.517 -0.1847 -0.0274 -0.2235
   76CHL1    C6 8039   0.711   3.298   7.539 -0.2269  1.1104 -0.0784
   76CHL1    H6 8040   0.775   3.339   7.459 -0.1121  0.7423 -0.1786
   76CHL1    C7 8041   0.733   3.353   7.676  0.6767 -0.1960 -0.0457
   76CHL1   H7A 8042   0.843   3.359   7.692  0.6836  1.3289 -0.5534
   76CHL1   H7B 8043   0.692   3.456   7.683 -0.3268 -0.6196  0.4258
   76CHL1    C8 8044   0.670   3.266   7.791 -0.0640  0.0731  0.0714
   76CHL1    H8 8045   0.730   3.172   7.798  3.3912  2.3475  2.6715
   76CHL1   C14 8046   0.680   3.337   7.924 -0.1268 -0.0933  0.3256
   76CHL1   H14 8047   0.625   3.428   7.891 -0.0663 -0.2952 -0.3513
   76CHL1   C15 8048   0.815   3.388   7.977 -0.1680 -0.2440  0.6236
   76CHL1  H15A 8049   0.877   3.297   7.990 -0.4809 -0.6845 -0.8744
   76CHL1  H15B 8050   0.870   3.461   7.913 -1.0481 -0.2489 -0.1454
   76CHL1   C16 8051   0.780   3.440   8.112  1.0333 -0.2420 -0.0070
   76CHL1  H16A 8052   0.856   3.394   8.178  1.0469  1.1097  0.9343
   76CHL1  H16B 8053   0.782   3.550   8.127  0.8030 -0.0417 -1.3705
   76CHL1   C17 8054   0.646   3.371   8.156 -0.4881  0.5773  0.5784
   76CHL1   H17 8055   0.568   3.450   8.166 -0.5238  0.8965 -1.9280
   76CHL1   C13 8056   0.611   3.271   8.036 -0.2787  0.2384  0.0334
   76CHL1   C18 8057   0.684   3.142   8.066 -0.8364  0.2900 -0.2595
   76CHL1  H18A 8058   0.714   3.074   7.983  0.4523  0.8188 -0.2402
   76CHL1  H18B 8059   0.769   3.157   8.136  0.0145  1.0282 -1.4479
   76CHL1  H18C 8060   0.603   3.086   8.118 -0.5963 -0.0913 -0.2964
   76CHL1   C12 8061   0.462   3.269   8.002  0.5004 -0.2615  0.0219
   76CHL1  H12A 8062   0.396   3.255   8.090  0.5178  1.6706  0.3707
   76CHL1  H12B 8063   0.437   3.377   7.991 -0.9128 -0.2558  2.8587
   76CHL1   C11 8064   0.436   3.190   7.873  0.2425 -0.5750  0.0967
   76CHL1  H11A 8065   0.460   3.083   7.889 -1.5690 -0.9200  0.6536
   76CHL1  H11B 8066   0.327   3.198   7.852  0.7007  0.9011 -1.9006
   76CHL1    C9 8067   0.521   3.234   7.751 -0.3001 -0.1722  0.1443
   76CHL1    H9 8068   0.484   3.334   7.721  1.9037  0.4022 -0.7725
   76CHL1   C10 8069   0.515   3.154   7.622  0.5649 -0.0939  0.0983
   76CHL1   C19 8070   0.539   3.012   7.661  0.0258 -0.6788  0.2344
   76CHL1  H19A 8071   0.639   2.991   7.704  0.0772 -1.6866 -0.3502
   76CHL1  H19B 8072   0.462   2.983   7.736 -1.1578  1.8323  0.0467
   76CHL1  H19C 8073   0.518   2.954   7.569  0.3631  1.1703 -1.0404
   76CHL1    C1 8074   0.373   3.179   7.561 -0.3547  0.4631 -0.5841
   76CHL1   H1A 8075   0.295   3.130   7.624  0.5268 -1.5815 -1.0597
   76CHL1   H1B 8076   0.359   3.286   7.534  1.5500  0.7095 -0.6126
   76CHL1    C2 8077   0.361   3.126   7.414 -0.0925 -0.2446  0.5525
   76CHL1   H2A 8078   0.260   3.154   7.377  0.5485 -1.3173 -2.1715
   76CHL1   H2B 8079   0.377   3.017   7.406 -0.0663 -0.1752 -0.4925
   76CHL1   C20 8080   0.641   3.326   8.302  0.0154  0.7747  0.8447
   76CHL1   H20 8081   0.711   3.240   8.315  0.8815  0.7796 -3.2970
   76CHL1   C21 8082   0.500   3.267   8.336 -0.4683  0.6457 -0.0654
   76CHL1  H21A 8083   0.486   3.170   8.283 -1.3757  1.3830 -1.1846
   76CHL1  H21B 8084   0.425   3.340   8.302 -1.4859 -0.3340  0.0507
   76CHL1  H21C 8085   0.485   3.241   8.443 -0.9872 -0.2038 -0.3413
   76CHL1   C22 8086   0.683   3.437   8.395 -0.0603  0.0970 -0.7909
   76CHL1  H22A 8087   0.779   3.480   8.361  0.5033  0.2113  0.9403
   76CHL1  H22B 8088   0.609   3.519   8.403  1.2189  1.0420  1.6090
   76CHL1   C23 8089   0.719   3.407   8.536 -0.0751  0.5286  0.1368
   76CHL1  H23A 8090   0.780   3.494   8.568 -1.0413  1.1071  0.3950
   76CHL1  H23B 8091   0.633   3.410   8.606  1.7458  0.5426  2.4432
   76CHL1   C24 8092   0.797   3.275   8.555  0.1770  0.1973 -0.4081
   76CHL1  H24A 8093   0.742   3.198   8.496 -1.5889  0.1438  1.2469
   76CHL1  H24B 8094   0.898   3.290   8.511  0.7180  2.5037  1.5157
   76CHL1   C25 8095   0.800   3.244   8.711 -0.3497 -0.7377  0.1976
   76CHL1   H25 8096   0.698   3.255   8.755 -1.3791  1.0937 -2.4924
   76CHL1   C26 8097   0.857   3.100   8.741 -0.7513 -0.0680  0.2624
   76CHL1  H26A 8098   0.964   3.094   8.714  0.1232  2.2737  2.9691
   76CHL1  H26B 8099   0.835   3.082   8.848 -0.1905 -1.8301  0.0955
   76CHL1  H26C 8100   0.803   3.019   8.687  0.5045  0.5068 -1.9221
   76CHL1   C27 8101   0.912   3.327   8.780  0.4681 -0.5995  0.6213
   76CHL1  H27A 8102   0.888   3.435   8.781  1.4669 -0.3514 -0.4144
   76CHL1  H27B 8103   0.938   3.279   8.877  1.8724  0.1329  0.6260
   76CHL1  H27C 8104   1.001   3.310   8.715 -0.6845  1.7271 -1.6435
   77CHL1    C3 8105   1.651   0.965   7.023 -0.7562 -0.3647  0.7501
   77CHL1    H3 8106   1.723   0.883   7.009  1.3519  1.8606 -1.9733
   77CHL1    O3 8107   1.643   1.029   6.893 -0.3110 -0.2629 -0.1124
   77CHL1   H3' 8108   1.587   1.104   6.914 -0.0824  0.4338 -1.8744
   77CHL1    C4 8109   1.518   0.905   7.054  0.1328 -0.3315  0.6296
   77CHL1   H4A 8110   1.442   0.986   7.058  2.2133  1.6335  1.7876
   77CHL1   H4B 8111   1.483   0.827   6.984  0.0209 -0.2169  0.5591
   77CHL1    C5 8112   1.530   0.838   7.187  0.3444 -0.2469 -0.5177
   77CHL1    C6 8113   1.510   0.704   7.195  0.2461  0.2671 -0.8601
   77CHL1    H6 8114   1.486   0.646   7.105 -1.2515 -1.8092  0.8108
   77CHL1    C7 8115   1.506   0.634   7.327 -0.2558  0.5162 -0.5462
   77CHL1   H7A 8116   1.416   0.571   7.342  0.8555 -0.6015  1.7097
   77CHL1   H7B 8117   1.592   0.566   7.340  0.0860  0.8307 -1.1022
   77CHL1    C8 8118   1.496   0.728   7.453 -0.3280  0.3966 -0.1578
   77CHL1    H8 8119   1.394   0.771   7.443 -1.1727 -1.8361 -1.4408
   77CHL1   C14 8120   1.530   0.650   7.584 -0.2818  0.5142 -0.9578
   77CHL1   H14 8121   1.639   0.629   7.577 -0.0082  1.5097 -0.0039
   77CHL1   C15 8122   1.448   0.530   7.609 -0.0652  0.4599 -0.8615
   77CHL1  H15A 8123   1.343   0.557   7.583 -0.0060  1.5769  0.0504
   77CHL1  H15B 8124   1.474   0.443   7.545 -4.0700  0.5022 -2.6831
   77CHL1   C16 8125   1.456   0.502   7.763  0.0602  0.7744  0.0825
   77CHL1  H16A 8126   1.348   0.509   7.788 -0.3829  1.7848 -1.9117
   77CHL1  H16B 8127   1.496   0.403   7.793  1.0970  0.6474 -1.6371
   77CHL1   C17 8128   1.540   0.620   7.822 -0.2535  0.3484  0.2382
   77CHL1   H17 8129   1.640   0.574   7.805 -1.7539 -1.7186 -3.7712
   77CHL1   C13 8130   1.516   0.733   7.718  0.3418  0.5360  0.4868
   77CHL1   C18 8131   1.372   0.790   7.732  0.2643 -0.9086 -0.1907
   77CHL1  H18A 8132   1.375   0.861   7.818  1.5176  0.5169 -1.3809
   77CHL1  H18B 8133   1.339   0.854   7.648 -0.2955  0.1348  0.8079
   77CHL1  H18C 8134   1.296   0.713   7.757 -2.1221  1.0005 -1.3667
   77CHL1   C12 8135   1.617   0.848   7.702  0.1117  0.5274 -0.5437
   77CHL1  H12A 8136   1.615   0.918   7.788  1.5707 -0.4724  0.3191
   77CHL1  H12B 8137   1.717   0.801   7.700  1.2756  2.8983 -0.7006
   77CHL1   C11 8138   1.604   0.930   7.568  0.0935  0.0139 -0.8758
   77CHL1  H11A 8139   1.509   0.984   7.589 -1.5845 -2.4267 -1.8490
   77CHL1  H11B 8140   1.691   0.999   7.565 -0.4980  0.7939 -0.3020
   77CHL1    C9 8141   1.594   0.846   7.434  0.6804 -0.3546 -0.1271
   77CHL1    H9 8142   1.696   0.804   7.422  0.5040 -1.1136  0.9167
   77CHL1   C10 8143   1.570   0.926   7.305 -0.3163 -0.2822 -0.6749
   77CHL1   C19 8144   1.445   1.025   7.331  1.1838 -0.5872 -0.2133
   77CHL1  H19A 8145   1.463   1.103   7.408  0.0889 -1.3716  0.8644
   77CHL1  H19B 8146   1.419   1.075   7.236 -1.2630 -2.5276 -0.6231
   77CHL1  H19C 8147   1.355   0.971   7.369  0.7410  0.1595 -0.2017
   77CHL1    C1 8148   1.697   1.007   7.264  0.2734 -0.1509 -0.2678
   77CHL1   H1A 8149   1.711   1.094   7.333 -1.4185 -0.3425  0.3364
   77CHL1   H1B 8150   1.786   0.941   7.267  0.5984  0.1512 -2.7506
   77CHL1    C2 8151   1.697   1.069   7.121  0.2166 -0.5510 -0.3012
   77CHL1   H2A 8152   1.801   1.091   7.086  0.4468  0.5920  1.0673
   77CHL1   H2B 8153   1.639   1.163   7.121  1.1814  0.0532 -0.4723
   77CHL1   C20 8154   1.509   0.651   7.976  0.2265 -0.0289  0.7149
   77CHL1   H20 8155   1.406   0.691   7.973 -0.4695 -1.7779  0.3862
   77CHL1   C21 8156   1.595   0.764   8.034 -0.5184 -0.1897  0.2478
   77CHL1  H21A 8157   1.561   0.863   7.995 -0.1724 -0.8599 -1.8057
   77CHL1  H21B 8158   1.703   0.749   8.012 -0.4212 -2.0724  1.8876
   77CHL1  H21C 8159   1.586   0.777   8.144  0.0688  2.1858  0.0520
   77CHL1   C22 8160   1.514   0.527   8.069  1.1091  0.9103 -0.4265
   77CHL1  H22A 8161   1.493   0.426   8.027 -0.1894  1.0777 -0.2149
   77CHL1  H22B 8162   1.620   0.512   8.097  0.5755  1.8673  2.3033
   77CHL1   C23 8163   1.426   0.551   8.195 -0.1737 -0.4232  0.4336
   77CHL1  H23A 8164   1.448   0.658   8.215  0.9384 -0.3791 -0.9438
   77CHL1  H23B 8165   1.318   0.530   8.174  0.8099 -1.3815 -4.2709
   77CHL1   C24 8166   1.477   0.477   8.316 -0.2292  0.3376  0.1728
   77CHL1  H24A 8167   1.481   0.370   8.286  0.0174 -0.3271  2.4794
   77CHL1  H24B 8168   1.584   0.501   8.330  0.0587  0.5192 -2.0897
   77CHL1   C25 8169   1.396   0.482   8.454  0.3481  0.3446 -0.0801
   77CHL1   H25 8170   1.386   0.590   8.480 -0.7970  0.6299 -1.6740
   77CHL1   C26 8171   1.253   0.427   8.427 -0.6644  0.2447 -0.3819
   77CHL1  H26A 8172   1.272   0.325   8.386  0.5591  0.2397  0.1749
   77CHL1  H26B 8173   1.203   0.410   8.524 -1.6433 -1.5674 -1.1681
   77CHL1  H26C 8174   1.192   0.484   8.354 -0.1142 -0.6531 -1.5664
   77CHL1   C27 8175   1.479   0.396   8.545 -0.0243  0.2980 -0.5006
   77CHL1  H27A 8176   1.490   0.293   8.505 -0.8135  0.4104 -1.0321
   77CHL1  H27B 8177   1.580   0.442   8.552 -0.5209  1.3333  0.0873
   77CHL1  H27C 8178   1.434   0.402   8.647  1.8510  2.5233  0.2595
   78CHL1    C3 8179   3.797   2.583   6.682 -0.4660 -0.1150 -1.0675
   78CHL1    H3 8180   3.908   2.584   6.695 -0.5147  1.5560 -0.6413
   78CHL1    O3 8181   3.764   2.551   6.545 -0.8515 -0.1305 -0.0118
   78CHL1   H3' 8182   3.695   2.616   6.529  0.1164  1.0875  0.6302
   78CHL1    C4 8183   3.730   2.465   6.771  0.4023  0.1393  0.0191
   78CHL1   H4A 8184   3.635   2.437   6.722 -0.1975  1.7346  0.2560
   78CHL1   H4B 8185   3.805   2.385   6.750 -1.0794 -1.5841  1.2055
   78CHL1    C5 8186   3.696   2.499   6.917  0.0651 -0.1813  0.9021
   78CHL1    C6 8187   3.742   2.413   7.001 -0.0158  0.7536  0.3188
   78CHL1    H6 8188   3.803   2.329   6.966  3.5444  2.4057  2.2614
   78CHL1    C7 8189   3.707   2.423   7.148  0.0375  0.4739  0.5206
   78CHL1   H7A 8190   3.656   2.329   7.178  1.7596  0.1587  2.5943
   78CHL1   H7B 8191   3.792   2.433   7.219  1.4190 -1.0790 -0.8627
   78CHL1    C8 8192   3.605   2.541   7.180  0.2155  0.0759  0.7816
   78CHL1    H8 8193   3.503   2.514   7.146 -0.0258  3.1912 -1.2032
   78CHL1   C14 8194   3.592   2.569   7.328 -0.3399 -0.2365  0.3964
   78CHL1   H14 8195   3.691   2.610   7.358 -0.1340 -0.2739 -0.2283
   78CHL1   C15 8196   3.559   2.449   7.418  0.9296  0.2959  0.3402
   78CHL1  H15A 8197   3.473   2.389   7.380 -0.5441  1.5792  1.5788
   78CHL1  H15B 8198   3.654   2.392   7.429 -0.3067 -1.6824  1.2547
   78CHL1   C16 8199   3.517   2.521   7.549 -0.3597  0.7299 -0.2665
   78CHL1  H16A 8200   3.423   2.483   7.593  1.2662 -1.0346  1.7635
   78CHL1  H16B 8201   3.594   2.497   7.625 -0.1450 -0.1450 -0.7560
   78CHL1   C17 8202   3.514   2.680   7.526 -0.7226  0.9365 -0.4490
   78CHL1   H17 8203   3.616   2.717   7.552 -0.8379 -0.3805  2.1015
   78CHL1   C13 8204   3.498   2.681   7.374  0.5605 -0.7390 -0.2033
   78CHL1   C18 8205   3.351   2.640   7.336  0.8745  0.0306  0.2707
   78CHL1  H18A 8206   3.313   2.553   7.393 -0.6492 -0.1025 -0.9299
   78CHL1  H18B 8207   3.282   2.723   7.362  0.6785  0.2427 -0.8930
   78CHL1  H18C 8208   3.347   2.613   7.229 -0.6082 -1.6544  0.7425
   78CHL1   C12 8209   3.541   2.813   7.293  0.0457  0.3295 -0.0716
   78CHL1  H12A 8210   3.471   2.896   7.314  0.8937  0.7665  1.1059
   78CHL1  H12B 8211   3.645   2.839   7.324 -1.2407  2.8999  2.2284
   78CHL1   C11 8212   3.546   2.787   7.138  0.1779  0.0130 -0.2201
   78CHL1  H11A 8213   3.443   2.761   7.105 -1.0466  1.8504  1.9886
   78CHL1  H11B 8214   3.575   2.879   7.084  0.6482  0.9010  1.5105
   78CHL1    C9 8215   3.635   2.667   7.103 -0.4479 -0.4720  0.2952
   78CHL1    H9 8216   3.737   2.695   7.136 -0.0572  0.7891 -1.8599
   78CHL1   C10 8217   3.636   2.633   6.944 -0.0049  0.4860 -0.3235
   78CHL1   C19 8218   3.488   2.624   6.887 -0.4029  0.1533  0.4997
   78CHL1  H19A 8219   3.421   2.563   6.951 -1.3516  0.0413 -0.5925
   78CHL1  H19B 8220   3.445   2.727   6.884 -0.6033  0.0202 -1.5905
   78CHL1  H19C 8221   3.498   2.580   6.786 -0.3811  0.7940  0.2242
   78CHL1    C1 8222   3.715   2.736   6.862  0.6000  0.0245  0.7253
   78CHL1   H1A 8223   3.654   2.829   6.870 -1.7903 -1.4045 -0.3872
   78CHL1   H1B 8224   3.815   2.737   6.910  0.8741 -0.9379  0.1922
   78CHL1    C2 8225   3.730   2.711   6.707  0.6184  0.1675 -0.2267
   78CHL1   H2A 8226   3.780   2.801   6.665  0.0788  0.5407 -0.0840
   78CHL1   H2B 8227   3.627   2.713   6.665  0.2374 -0.4298  0.6583
   78CHL1   C20 8228   3.417   2.758   7.613 -0.2378 -0.0635  0.3105
   78CHL1   H20 8229   3.322   2.701   7.618  0.4414 -1.0559  2.3222
   78CHL1   C21 8230   3.389   2.900   7.573  0.0322 -0.1899  0.4445
   78CHL1  H21A 8231   3.482   2.962   7.574 -0.4019  0.5493 -1.8458
   78CHL1  H21B 8232   3.309   2.945   7.635  1.3061  1.2873  1.0610
   78CHL1  H21C 8233   3.349   2.904   7.469 -1.7623 -0.0204  1.1286
   78CHL1   C22 8234   3.462   2.759   7.762 -0.5659 -0.7490  0.0419
   78CHL1  H22A 8235   3.369   2.799   7.807 -0.2294 -1.6799  1.6075
   78CHL1  H22B 8236   3.473   2.655   7.800  1.7380 -0.4400  0.2778
   78CHL1   C23 8237   3.593   2.823   7.797 -0.5544  0.4730  0.2874
   78CHL1  H23A 8238   3.686   2.783   7.751  1.0464  2.6391  1.5123
   78CHL1  H23B 8239   3.584   2.928   7.761  2.5751  0.2812 -1.2902
   78CHL1   C24 8240   3.619   2.828   7.950  0.7522 -0.2152  0.1903
   78CHL1  H24A 8241   3.532   2.871   8.004  1.5397  2.7466 -0.7622
   78CHL1  H24B 8242   3.638   2.727   7.991 -0.8315 -2.0975 -3.4999
   78CHL1   C25 8243   3.735   2.928   7.983  0.2471  0.4814 -0.2510
   78CHL1   H25 8244   3.717   3.015   7.917  1.2406  1.8028  1.1912
   78CHL1   C26 8245   3.730   2.966   8.126  0.8208  0.1250 -1.0047
   78CHL1  H26A 8246   3.635   3.004   8.168  0.8784 -1.4206  0.6319
   78CHL1  H26B 8247   3.745   2.872   8.184 -0.4931  0.8688  0.5786
   78CHL1  H26C 8248   3.806   3.045   8.143 -1.3268  1.8532  0.7883
   78CHL1   C27 8249   3.875   2.868   7.954 -0.0904  0.2990  0.1236
   78CHL1  H27A 8250   3.899   2.843   7.848  1.4504 -0.2477  0.6003
   78CHL1  H27B 8251   3.956   2.938   7.980 -0.1780  0.5845 -0.3678
   78CHL1  H27C 8252   3.869   2.770   8.007 -1.0674  0.2924  0.0240
   79CHL1    C3 8253   1.492   2.299   7.153  0.1616 -0.3048  0.5003
   79CHL1    H3 8254   1.404   2.231   7.155  0.0472 -0.2657 -1.7738
   79CHL1    O3 8255   1.498   2.347   7.021  0.3531  0.3705 -0.5046
   79CHL1   H3' 8256   1.407   2.347   6.990  0.0042  1.4108  0.5037
   79CHL1    C4 8257   1.475   2.420   7.244  0.0624  0.4183  0.9148
   79CHL1   H4A 8258   1.558   2.491   7.225 -0.9405  0.7349 -2.6895
   79CHL1   H4B 8259   1.388   2.482   7.215 -0.0902  0.8572  2.2794
   79CHL1    C5 8260   1.478   2.381   7.393 -1.2019 -0.2943 -0.2720
   79CHL1    C6 8261   1.380   2.401   7.476 -0.0948  0.9541  0.0194
   79CHL1    H6 8262   1.295   2.461   7.439 -1.8694  0.0424  2.4270
   79CHL1    C7 8263   1.396   2.376   7.624 -0.0732 -0.0647 -0.0942
   79CHL1   H7A 8264   1.339   2.456   7.675  0.3589 -0.1288  0.4859
   79CHL1   H7B 8265   1.339   2.283   7.646 -2.9282  1.7007  0.2727
   79CHL1    C8 8266   1.540   2.350   7.670  0.1178  0.5858  0.7695
   79CHL1    H8 8267   1.601   2.443   7.665 -0.6157  1.0264 -0.4880
   79CHL1   C14 8268   1.540   2.297   7.818 -0.1389  0.2517 -0.4006
   79CHL1   H14 8269   1.490   2.199   7.804 -0.9682  0.4708  0.9983
   79CHL1   C15 8270   1.458   2.362   7.931  0.9043 -0.2818 -0.5093
   79CHL1  H15A 8271   1.476   2.472   7.926 -2.1229  0.3341  1.2469
   79CHL1  H15B 8272   1.353   2.327   7.931  0.4752  0.9348  1.2679
   79CHL1   C16 8273   1.521   2.315   8.062  0.2944  1.0551  0.4939
   79CHL1  H16A 8274   1.563   2.395   8.126  1.3637 -0.8706  2.2700
   79CHL1  H16B 8275   1.451   2.249   8.117  2.4364 -0.6016  1.2921
   79CHL1   C17 8276   1.638   2.216   8.024  0.1798  0.4992 -0.9915
   79CHL1   H17 8277   1.587   2.118   8.024  0.4320  0.3696 -0.4711
   79CHL1   C13 8278   1.674   2.256   7.876 -0.0432  0.2760  0.2173
   79CHL1   C18 8279   1.753   2.387   7.894 -0.5271  0.0997 -0.0080
   79CHL1  H18A 8280   1.782   2.422   7.793  3.1113 -1.2411  0.4890
   79CHL1  H18B 8281   1.698   2.467   7.948  1.0306  0.5666  0.9069
   79CHL1  H18C 8282   1.849   2.375   7.948  0.2517  0.5658 -1.2718
   79CHL1   C12 8283   1.731   2.141   7.780 -0.1810 -0.1418 -0.4933
   79CHL1  H12A 8284   1.836   2.116   7.809  0.4563  1.7798 -1.0544
   79CHL1  H12B 8285   1.658   2.058   7.785  0.3664 -0.5935  0.2167
   79CHL1   C11 8286   1.746   2.207   7.637  0.2303  0.4606 -0.1768
   79CHL1  H11A 8287   1.824   2.286   7.643 -0.0903  0.8355 -0.8700
   79CHL1  H11B 8288   1.780   2.126   7.569  1.0680  0.6227  0.0437
   79CHL1    C9 8289   1.606   2.252   7.576 -0.8858  0.2399  0.1913
   79CHL1    H9 8290   1.544   2.160   7.574  1.0289 -1.0807 -0.3134
   79CHL1   C10 8291   1.611   2.308   7.433 -0.0048 -0.3596  0.2908
   79CHL1   C19 8292   1.736   2.403   7.432  0.1697 -0.2600  0.7056
   79CHL1  H19A 8293   1.736   2.495   7.493  0.2157 -1.0859  1.9599
   79CHL1  H19B 8294   1.830   2.344   7.437  1.5063  1.6236 -1.3594
   79CHL1  H19C 8295   1.743   2.443   7.328  1.9326 -2.9972 -0.2991
   79CHL1    C1 8296   1.631   2.188   7.333  0.3449 -0.1017  0.2289
   79CHL1   H1A 8297   1.729   2.142   7.359  0.4549  0.6705  1.2284
   79CHL1   H1B 8298   1.558   2.107   7.357 -0.4250  0.5763  0.2085
   79CHL1    C2 8299   1.620   2.225   7.182  0.2078 -0.4600 -0.0309
   79CHL1   H2A 8300   1.636   2.142   7.109 -2.0462 -0.7164 -0.2858
   79CHL1   H2B 8301   1.696   2.303   7.163  0.8960 -1.5805 -1.9535
   79CHL1   C20 8302   1.753   2.203   8.125 -0.2687 -0.1695 -0.2475
   79CHL1   H20 8303   1.801   2.303   8.137 -2.4021  0.7941  0.4933
   79CHL1   C21 8304   1.867   2.109   8.094  0.4431 -0.4862  0.1343
   79CHL1  H21A 8305   1.930   2.156   8.016 -0.3742 -2.1092 -1.5262
   79CHL1  H21B 8306   1.839   2.006   8.063 -0.5948 -0.6607  1.5914
   79CHL1  H21C 8307   1.938   2.095   8.179 -0.2936 -0.0883  0.8192
   79CHL1   C22 8308   1.704   2.164   8.266 -0.8807 -0.0025  0.4031
   79CHL1  H22A 8309   1.642   2.250   8.297 -1.1393 -0.3342  0.8035
   79CHL1  H22B 8310   1.644   2.071   8.264  1.1834 -1.4125  1.9682
   79CHL1   C23 8311   1.805   2.148   8.379 -0.3121  0.4567  0.9550
   79CHL1  H23A 8312   1.861   2.054   8.361 -0.9842  0.1547  0.4028
   79CHL1  H23B 8313   1.876   2.233   8.380  0.7576 -0.4428  3.1235
   79CHL1   C24 8314   1.734   2.150   8.517 -0.3598 -1.0510 -0.8600
   79CHL1  H24A 8315   1.692   2.250   8.542 -1.0704 -1.8263  1.1501
   79CHL1  H24B 8316   1.651   2.077   8.504 -0.8137 -0.3600 -1.9560
   79CHL1   C25 8317   1.821   2.099   8.641 -0.6440  0.1283  0.3377
   79CHL1   H25 8318   1.921   2.147   8.639 -0.5023 -0.1717  0.1294
   79CHL1   C26 8319   1.767   2.150   8.778  0.0501  0.3810  0.6079
   79CHL1  H26A 8320   1.836   2.119   8.859  0.9478  0.4774 -0.1178
   79CHL1  H26B 8321   1.766   2.261   8.779 -0.7148  0.3733  2.0459
   79CHL1  H26C 8322   1.665   2.110   8.801 -0.6612  2.3407  0.9141
   79CHL1   C27 8323   1.823   1.945   8.634  0.7697  0.6302  0.4449
   79CHL1  H27A 8324   1.890   1.913   8.551 -0.4972 -2.7183  0.6168
   79CHL1  H27B 8325   1.864   1.893   8.723  0.5547 -1.1655 -0.4801
   79CHL1  H27C 8326   1.725   1.898   8.611  2.3234 -3.2911  1.4049
   80CHL1    C3 8327   0.292   0.102   7.010 -0.4760 -0.1972  0.9166
   80CHL1    H3 8328   0.188   0.075   7.040 -0.5465 -1.4104 -0.3782
   80CHL1    O3 8329   0.294   0.130   6.872  0.4923 -0.5509  1.1851
   80CHL1   H3' 8330   0.383   0.162   6.860  0.6292  0.1295  3.8432
   80CHL1    C4 8331   0.320   0.235   7.084 -0.4560  0.4968  0.5404
   80CHL1   H4A 8332   0.418   0.277   7.053 -1.2136  1.1417 -1.0191
   80CHL1   H4B 8333   0.253   0.313   7.040 -0.8414  1.0323  2.0213
   80CHL1    C5 8334   0.312   0.210   7.233  0.0471  0.6161 -0.1127
   80CHL1    C6 8335   0.223   0.278   7.305 -0.0994  0.0571  0.1485
   80CHL1    H6 8336   0.162   0.354   7.254 -0.3132  0.4367  0.9491
   80CHL1    C7 8337   0.206   0.248   7.446 -0.0137 -0.1812 -0.6474
   80CHL1   H7A 8338   0.191   0.341   7.505 -1.4628 -0.5954 -0.3554
   80CHL1   H7B 8339   0.127   0.172   7.466  0.3178  0.1204  2.0442
   80CHL1    C8 8340   0.327   0.184   7.515  0.2897  0.0813  0.0232
   80CHL1    H8 8341   0.412   0.257   7.517  1.7514 -1.6165  1.3751
   80CHL1   C14 8342   0.285   0.136   7.657  0.0118 -0.3537 -0.6834
   80CHL1   H14 8343   0.195   0.077   7.632 -0.6686 -0.3979  1.7856
   80CHL1   C15 8344   0.226   0.230   7.766 -1.0600 -0.0019  0.1612
   80CHL1  H15A 8345   0.284   0.324   7.770 -1.7997  0.4096  1.1965
   80CHL1  H15B 8346   0.119   0.249   7.744 -1.8412  1.7695  4.9942
   80CHL1   C16 8347   0.259   0.154   7.898  0.5025  0.2960 -0.3470
   80CHL1  H16A 8348   0.335   0.215   7.952  1.6150 -2.0731  0.8399
   80CHL1  H16B 8349   0.180   0.135   7.975 -0.4224  1.4969 -0.9888
   80CHL1   C17 8350   0.326   0.023   7.858  0.8584  0.6130 -0.4087
   80CHL1   H17 8351   0.245  -0.046   7.828 -1.7151  2.3687  2.2271
   80CHL1   C13 8352   0.396   0.050   7.722 -0.5213 -0.4440  0.0662
   80CHL1   C18 8353   0.524   0.131   7.746  0.6947  0.4162 -0.3750
   80CHL1  H18A 8354   0.596   0.063   7.796  1.3794  0.7951 -0.8506
   80CHL1  H18B 8355   0.561   0.177   7.653 -0.1033  0.3562 -0.7284
   80CHL1  H18C 8356   0.505   0.221   7.807  0.6503  1.2759 -1.6517
   80CHL1   C12 8357   0.426  -0.076   7.637  0.0684 -0.3147  0.0763
   80CHL1  H12A 8358   0.502  -0.143   7.683 -0.8873 -0.0619  2.0859
   80CHL1  H12B 8359   0.339  -0.145   7.636 -1.0613  1.0902 -1.8554
   80CHL1   C11 8360   0.477  -0.034   7.499 -0.2642 -0.0026  0.0305
   80CHL1  H11A 8361   0.572   0.024   7.507 -1.4020  2.0723 -0.9393
   80CHL1  H11B 8362   0.501  -0.129   7.447  1.8427 -0.3524  1.5721
   80CHL1    C9 8363   0.378   0.065   7.433  0.1049  0.2769 -0.0096
   80CHL1    H9 8364   0.284   0.007   7.421  0.3160 -0.0496 -0.0913
   80CHL1   C10 8365   0.409   0.094   7.285  0.6088 -0.0542 -0.0481
   80CHL1   C19 8366   0.553   0.152   7.278  0.4752  0.2826  0.2153
   80CHL1  H19A 8367   0.629   0.073   7.290 -0.6811 -0.6459  1.7109
   80CHL1  H19B 8368   0.573   0.208   7.184 -0.0467 -0.9700 -0.6679
   80CHL1  H19C 8369   0.566   0.228   7.358 -0.1933  0.8629 -0.2124
   80CHL1    C1 8370   0.381  -0.035   7.208 -0.0682 -0.5557  0.5951
   80CHL1   H1A 8371   0.444  -0.125   7.226  0.6703 -0.2475 -0.4240
   80CHL1   H1B 8372   0.280  -0.077   7.228  0.2265 -1.9133 -0.7027
   80CHL1    C2 8373   0.393  -0.011   7.051  0.1975 -0.2891  0.4026
   80CHL1   H2A 8374   0.364  -0.103   6.996 -3.0697  2.4721 -2.8017
   80CHL1   H2B 8375   0.497   0.016   7.023  0.5105 -1.3884  0.4816
   80CHL1   C20 8376   0.408  -0.052   7.967  0.0135 -0.0735  0.3158
   80CHL1   H20 8377   0.517  -0.051   7.944  0.2380  0.2180  1.3737
   80CHL1   C21 8378   0.358  -0.202   7.965 -0.0963 -0.2534 -0.4372
   80CHL1  H21A 8379   0.352  -0.228   7.857  0.9642  0.0309 -0.5689
   80CHL1  H21B 8380   0.251  -0.213   7.993 -0.1380 -0.5317 -0.7010
   80CHL1  H21C 8381   0.417  -0.272   8.027  0.0654  0.8645  0.6981
   80CHL1   C22 8382   0.412   0.003   8.114 -0.5100 -0.1018 -0.1810
   80CHL1  H22A 8383   0.437   0.111   8.108 -0.1252 -0.2479 -1.2732
   80CHL1  H22B 8384   0.304   0.011   8.140 -0.3340 -0.3266  0.6407
   80CHL1   C23 8385   0.480  -0.081   8.218  1.0066  0.3491 -0.1591
   80CHL1  H23A 8386   0.433  -0.182   8.221  0.6805  0.5334  1.9296
   80CHL1  H23B 8387   0.587  -0.088   8.191  0.9204  1.5396 -0.8304
   80CHL1   C24 8388   0.455  -0.028   8.357  1.0240  0.0373  0.1754
   80CHL1  H24A 8389   0.522   0.060   8.366  0.5521  0.3381  0.8623
   80CHL1  H24B 8390   0.352   0.006   8.383  0.8873 -0.5089  0.3555
   80CHL1   C25 8391   0.506  -0.130   8.457 -0.3277  0.1387  0.0353
   80CHL1   H25 8392   0.584  -0.192   8.410 -1.8159 -0.8485 -1.1974
   80CHL1   C26 8393   0.580  -0.051   8.572 -0.0999 -0.0454  0.5332
   80CHL1  H26A 8394   0.620  -0.128   8.641 -0.8137  1.5183  2.7399
   80CHL1  H26B 8395   0.669  -0.005   8.525  1.7920 -2.5850  1.5356
   80CHL1  H26C 8396   0.513   0.012   8.635  1.3659 -0.0187  2.0799
   80CHL1   C27 8397   0.395  -0.224   8.508  0.2693 -0.1520  0.2483
   80CHL1  H27A 8398   0.365  -0.296   8.429  2.3615  0.5604 -1.2521
   80CHL1  H27B 8399   0.433  -0.276   8.599 -0.1508 -0.4667  0.2463
   80CHL1  H27C 8400   0.299  -0.178   8.541  0.2168 -0.3861  0.4233
   81CHL1    C3 8401   4.726   6.750   6.866  0.6548  0.5046  0.7394
   81CHL1    H3 8402   4.701   6.642   6.872 -1.2645  0.7904 -1.4356
   81CHL1    O3 8403   4.750   6.782   6.735  0.3919 -0.7225 -0.3938
   81CHL1   H3' 8404   4.796   6.867   6.734 -2.5255  0.9746  1.2083
   81CHL1    C4 8405   4.614   6.843   6.911 -0.6714  0.0039 -0.2261
   81CHL1   H4A 8406   4.640   6.947   6.879  1.6269 -0.9533 -1.6266
   81CHL1   H4B 8407   4.532   6.801   6.850 -0.4925  0.5389 -0.8423
   81CHL1    C5 8408   4.606   6.816   7.065 -0.3255  0.1236 -0.2695
   81CHL1    C6 8409   4.492   6.780   7.115 -0.2859 -0.5090 -0.4082
   81CHL1    H6 8410   4.407   6.769   7.046 -3.7578 -0.2480  3.6543
   81CHL1    C7 8411   4.468   6.737   7.259 -0.2319 -0.7354 -0.5921
   81CHL1   H7A 8412   4.364   6.766   7.287 -0.1729  0.8809 -1.9915
   81CHL1   H7B 8413   4.477   6.626   7.254  3.3328 -0.4683 -1.1431
   81CHL1    C8 8414   4.568   6.785   7.360 -0.2241 -0.5233 -0.2249
   81CHL1    H8 8415   4.533   6.888   7.383 -0.3802 -1.0840  2.2243
   81CHL1   C14 8416   4.570   6.720   7.501 -0.1193  0.1021 -0.0187
   81CHL1   H14 8417   4.584   6.611   7.481  2.8542  0.4674 -0.2131
   81CHL1   C15 8418   4.441   6.730   7.584 -0.1233 -0.8248 -0.0309
   81CHL1  H15A 8419   4.403   6.834   7.587 -0.0970 -0.8309  0.5194
   81CHL1  H15B 8420   4.365   6.667   7.533  0.0602 -0.9528 -0.1461
   81CHL1   C16 8421   4.480   6.682   7.723  0.0659 -0.3975 -0.4041
   81CHL1  H16A 8422   4.428   6.738   7.804 -0.1092 -3.4043  1.6147
   81CHL1  H16B 8423   4.443   6.579   7.738 -1.5030  0.5632  3.0985
   81CHL1   C17 8424   4.640   6.686   7.731  0.0716 -0.0022 -0.1586
   81CHL1   H17 8425   4.661   6.579   7.707  0.8793 -0.1220  1.0513
   81CHL1   C13 8426   4.676   6.774   7.607 -0.2219  0.4964  0.2165
   81CHL1   C18 8427   4.653   6.923   7.647 -0.1467  0.5873 -0.2103
   81CHL1  H18A 8428   4.662   6.992   7.560  0.8555  2.4968  1.3753
   81CHL1  H18B 8429   4.558   6.944   7.700 -1.1514 -0.2576 -1.6305
   81CHL1  H18C 8430   4.730   6.963   7.716  0.3458  0.0139 -0.4212
   81CHL1   C12 8431   4.809   6.754   7.545 -0.9497  0.3792 -0.6276
   81CHL1  H12A 8432   4.889   6.800   7.607 -1.1351 -1.4413  1.0190
   81CHL1  H12B 8433   4.827   6.645   7.533  2.3092  1.0137 -2.0645
   81CHL1   C11 8434   4.812   6.821   7.403 -0.1310  0.4365 -0.2129
   81CHL1  H11A 8435   4.800   6.930   7.420 -0.7543  0.0833  1.6917
   81CHL1  H11B 8436   4.912   6.816   7.357  0.3606  2.0625  0.6429
   81CHL1    C9 8437   4.707   6.776   7.299 -0.0188 -0.0462  0.0344
   81CHL1    H9 8438   4.728   6.667   7.292  1.2457  0.2310 -0.7656
   81CHL1   C10 8439   4.729   6.835   7.152 -0.4300 -0.1038 -0.2330
   81CHL1   C19 8440   4.742   6.987   7.161  0.1782 -0.1926  0.6780
   81CHL1  H19A 8441   4.818   7.022   7.234  0.6150  1.5828 -0.5955
   81CHL1  H19B 8442   4.766   7.024   7.059  0.9663  0.5475  1.1232
   81CHL1  H19C 8443   4.647   7.031   7.196  1.0715  3.4404 -1.1656
   81CHL1    C1 8444   4.857   6.763   7.086 -0.3229 -0.0537  0.4831
   81CHL1   H1A 8445   4.944   6.814   7.132 -0.3233 -0.5984  1.0853
   81CHL1   H1B 8446   4.858   6.653   7.101  0.3018  0.1321  1.8384
   81CHL1    C2 8447   4.866   6.780   6.933 -0.0716 -0.6622  0.5412
   81CHL1   H2A 8448   4.946   6.710   6.902 -1.8270 -1.8791 -1.4741
   81CHL1   H2B 8449   4.890   6.887   6.917 -0.8403 -0.2516  2.0501
   81CHL1   C20 8450   4.689   6.724   7.874  0.2194 -0.3340  1.0974
   81CHL1   H20 8451   4.685   6.835   7.878 -0.0007 -0.3777  2.3000
   81CHL1   C21 8452   4.844   6.693   7.893  0.3431 -1.1868 -0.5954
   81CHL1  H21A 8453   4.872   6.719   7.998  0.8711 -3.8728 -0.0447
   81CHL1  H21B 8454   4.907   6.748   7.820 -0.8156  1.2877  0.2098
   81CHL1  H21C 8455   4.864   6.584   7.884  1.3998 -1.3064  2.5266
   81CHL1   C22 8456   4.619   6.648   7.990 -0.0305  0.0930 -0.1073
   81CHL1  H22A 8457   4.509   6.661   7.984 -0.0974 -0.9916 -1.6061
   81CHL1  H22B 8458   4.632   6.538   7.983 -0.4455  0.0048  0.4709
   81CHL1   C23 8459   4.667   6.682   8.135  0.1821 -0.0988  0.4648
   81CHL1  H23A 8460   4.762   6.640   8.175  0.9569  0.6594 -0.5485
   81CHL1  H23B 8461   4.675   6.791   8.155  0.1589  0.0010 -0.0679
   81CHL1   C24 8462   4.567   6.614   8.232 -0.1475 -0.3700 -0.6793
   81CHL1  H24A 8463   4.471   6.668   8.219  0.7500  1.8599  1.5153
   81CHL1  H24B 8464   4.541   6.513   8.193  2.4090 -0.5172 -2.0622
   81CHL1   C25 8465   4.591   6.630   8.386 -0.6099 -0.2205  0.4248
   81CHL1   H25 8466   4.659   6.546   8.412  0.2722  0.2691 -0.2915
   81CHL1   C26 8467   4.659   6.763   8.425  0.6911  0.3419 -0.0744
   81CHL1  H26A 8468   4.752   6.772   8.365 -0.2606  1.0192 -1.4713
   81CHL1  H26B 8469   4.593   6.849   8.402  1.1939  1.1762  1.5850
   81CHL1  H26C 8470   4.690   6.769   8.531  1.7146 -0.1315 -0.3363
   81CHL1   C27 8471   4.457   6.612   8.466 -0.0493  1.3574  0.6485
   81CHL1  H27A 8472   4.407   6.521   8.424  1.2086  0.3147  1.3912
   81CHL1  H27B 8473   4.472   6.609   8.576 -1.3103 -0.3129  0.7997
   81CHL1  H27C 8474   4.402   6.705   8.439 -0.5307  0.7422 -0.5624
   82CHL1    C3 8475   5.484   0.949   6.973 -0.1393  0.2254 -0.5602
   82CHL1    H3 8476   5.418   1.028   6.930 -0.5975 -0.1927 -0.6167
   82CHL1    O3 8477   5.539   0.883   6.858  0.4149  0.1900  0.1670
   82CHL1   H3' 8478   5.484   0.804   6.848 -0.7185  0.5724  2.8577
   82CHL1    C4 8479   5.598   1.003   7.067  0.1514  0.5200  0.6735
   82CHL1   H4A 8480   5.667   0.917   7.078 -1.0438 -0.6926 -0.9940
   82CHL1   H4B 8481   5.640   1.090   7.012  0.1187 -0.1346 -0.3836
   82CHL1    C5 8482   5.558   1.026   7.212  0.3279 -0.1735 -0.1005
   82CHL1    C6 8483   5.587   1.145   7.263  0.7977  0.0113 -0.0967
   82CHL1    H6 8484   5.647   1.221   7.212  0.5918  0.2925  0.0721
   82CHL1    C7 8485   5.549   1.172   7.404  0.3304  0.6574 -0.3493
   82CHL1   H7A 8486   5.622   1.233   7.461 -0.4967 -0.5462  2.1008
   82CHL1   H7B 8487   5.462   1.241   7.397  0.7861  1.0344 -2.3798
   82CHL1    C8 8488   5.507   1.054   7.499 -0.6116 -0.3426 -0.2478
   82CHL1    H8 8489   5.604   1.007   7.525  0.4994  0.6837 -2.4866
   82CHL1   C14 8490   5.433   1.098   7.628  0.6887  0.4363  0.5646
   82CHL1   H14 8491   5.341   1.157   7.608  0.0163  0.3306  3.1655
   82CHL1   C15 8492   5.519   1.186   7.720 -0.1662  0.7049  0.0033
   82CHL1  H15A 8493   5.620   1.141   7.725 -0.7757 -0.6461  0.5516
   82CHL1  H15B 8494   5.519   1.289   7.678 -0.1111  0.9408  0.5840
   82CHL1   C16 8495   5.451   1.172   7.856 -0.2264 -0.4293  0.3461
   82CHL1  H16A 8496   5.520   1.129   7.932  0.9055  0.9547  0.1186
   82CHL1  H16B 8497   5.397   1.262   7.891  1.9240  1.9402 -2.2670
   82CHL1   C17 8498   5.337   1.064   7.837 -0.3432  0.7294  0.1073
   82CHL1   H17 8499   5.248   1.120   7.801 -1.1296  0.1517  1.1013
   82CHL1   C13 8500   5.378   0.985   7.708  0.1293 -0.0305 -0.1974
   82CHL1   C18 8501   5.489   0.886   7.755  1.0336  0.1257 -0.1784
   82CHL1  H18A 8502   5.532   0.849   7.659  0.5334  1.3401 -0.8982
   82CHL1  H18B 8503   5.573   0.933   7.810 -0.8913  0.8248  2.2267
   82CHL1  H18C 8504   5.450   0.803   7.816 -0.8828  1.3932  0.3796
   82CHL1   C12 8505   5.271   0.919   7.622  0.5127 -0.2776  0.4808
   82CHL1  H12A 8506   5.227   0.833   7.676  0.0766  0.7952  1.8837
   82CHL1  H12B 8507   5.191   0.992   7.600 -0.5035 -1.7611 -0.7618
   82CHL1   C11 8508   5.330   0.856   7.496 -0.0192 -0.8230  0.7389
   82CHL1  H11A 8509   5.400   0.771   7.513 -0.1324 -1.3006 -1.0679
   82CHL1  H11B 8510   5.248   0.816   7.433 -0.7028 -0.3679  1.3361
   82CHL1    C9 8511   5.413   0.963   7.414 -0.7214 -0.3092  0.0826
   82CHL1    H9 8512   5.344   1.045   7.385  1.6362  2.0098  0.8230
   82CHL1   C10 8513   5.475   0.916   7.279  0.1600  0.3707 -0.3808
   82CHL1   C19 8514   5.554   0.787   7.302 -0.1972  0.4646 -0.2872
   82CHL1  H19A 8515   5.614   0.753   7.215  2.5636  1.3073  1.2421
   82CHL1  H19B 8516   5.629   0.800   7.383  1.7456  0.6127 -2.0692
   82CHL1  H19C 8517   5.493   0.695   7.319  0.5007  0.0087 -0.2032
   82CHL1    C1 8518   5.360   0.890   7.181  0.0425  0.0945  0.0955
   82CHL1   H1A 8519   5.289   0.809   7.208  3.0208 -2.2959  1.0331
   82CHL1   H1B 8520   5.299   0.982   7.172 -0.3129  0.0496  1.9201
   82CHL1    C2 8521   5.400   0.841   7.039  0.4513 -0.1361  0.3903
   82CHL1   H2A 8522   5.312   0.811   6.978 -0.6971 -0.1868  2.0667
   82CHL1   H2B 8523   5.455   0.746   7.054  2.0373  0.2091 -2.8038
   82CHL1   C20 8524   5.286   0.996   7.973  0.1539  0.1532 -0.6258
   82CHL1   H20 8525   5.366   0.940   8.027 -0.3553 -1.5277 -1.5813
   82CHL1   C21 8526   5.168   0.891   7.951 -0.4399 -0.0295  0.2326
   82CHL1  H21A 8527   5.192   0.804   7.886 -2.0654  0.1872 -0.6699
   82CHL1  H21B 8528   5.080   0.941   7.906 -0.0473  0.2540 -0.2149
   82CHL1  H21C 8529   5.140   0.856   8.053  0.3111  0.2578  0.5346
   82CHL1   C22 8530   5.244   1.109   8.072  0.5313 -0.6276  0.0254
   82CHL1  H22A 8531   5.325   1.183   8.091 -1.1221  1.2593 -0.1291
   82CHL1  H22B 8532   5.164   1.168   8.023  0.4523  1.0538  2.0573
   82CHL1   C23 8533   5.179   1.085   8.216  0.4782 -0.5694 -0.8733
   82CHL1  H23A 8534   5.104   1.005   8.198 -0.2851  0.0183 -0.3208
   82CHL1  H23B 8535   5.256   1.049   8.288  0.6457  0.9801 -0.2580
   82CHL1   C24 8536   5.133   1.218   8.268  0.2430  0.1735 -0.6658
   82CHL1  H24A 8537   5.209   1.298   8.255  0.0529  0.6787  1.2219
   82CHL1  H24B 8538   5.041   1.242   8.210  0.7365 -1.2182 -2.0632
   82CHL1   C25 8539   5.104   1.221   8.419 -0.2333 -0.2045  0.2157
   82CHL1   H25 8540   5.199   1.184   8.461  1.4719  1.4353 -2.0605
   82CHL1   C26 8541   5.088   1.362   8.472  0.0644 -0.4434 -1.2502
   82CHL1  H26A 8542   5.081   1.367   8.582 -0.4412 -0.3249 -1.2906
   82CHL1  H26B 8543   5.179   1.423   8.453  1.5336 -1.9901  0.5926
   82CHL1  H26C 8544   4.995   1.411   8.437  0.8662  1.4716 -0.7538
   82CHL1   C27 8545   4.991   1.123   8.463 -0.3415 -0.0625 -1.0092
   82CHL1  H27A 8546   5.012   1.020   8.429 -2.8523 -1.8738  2.5453
   82CHL1  H27B 8547   4.983   1.120   8.574 -1.2436  0.2144 -1.0578
   82CHL1  H27C 8548   4.893   1.135   8.412 -0.2763 -0.6178 -1.2678
   83CHL1    C3 8549   1.293   1.965   7.066  0.5410 -0.0159  0.8715
   83CHL1    H3 8550   1.386   2.026   7.057  2.4692 -2.8155  1.0388
   83CHL1    O3 8551   1.245   1.924   6.935  0.0816  0.4846 -0.5387
   83CHL1   H3' 8552   1.203   1.838   6.948  3.1627 -0.8408  1.1583
   83CHL1    C4 8553   1.353   1.837   7.137 -0.0326  0.0298  0.3063
   83CHL1   H4A 8554   1.282   1.752   7.134  0.9686 -0.7921 -0.0502
   83CHL1   H4B 8555   1.438   1.809   7.071 -1.1652 -0.4754 -0.9639
   83CHL1    C5 8556   1.383   1.842   7.287 -0.0684  0.0475 -0.0193
   83CHL1    C6 8557   1.509   1.817   7.338 -0.0283 -0.2250  0.0148
   83CHL1    H6 8558   1.590   1.785   7.272  0.2840 -1.5963  1.0308
   83CHL1    C7 8559   1.543   1.824   7.487  0.3468 -0.0803  0.3822
   83CHL1   H7A 8560   1.607   1.743   7.529 -1.1814 -2.5691 -1.8953
   83CHL1   H7B 8561   1.607   1.913   7.507 -1.0705  0.7955  1.1093
   83CHL1    C8 8562   1.422   1.833   7.582  0.4916 -0.3766  0.4945
   83CHL1    H8 8563   1.384   1.728   7.579 -1.8448  0.4213  0.8604
   83CHL1   C14 8564   1.452   1.861   7.723 -0.1696  0.0076 -0.1700
   83CHL1   H14 8565   1.476   1.969   7.727  0.6425 -0.1843  0.1738
   83CHL1   C15 8566   1.570   1.799   7.793  0.8006 -0.2694  0.1693
   83CHL1  H15A 8567   1.561   1.691   7.768  0.1129 -0.1879  0.0525
   83CHL1  H15B 8568   1.670   1.828   7.754 -0.0300 -0.0841 -1.8808
   83CHL1   C16 8569   1.548   1.829   7.944 -0.2363 -0.1965  0.2949
   83CHL1  H16A 8570   1.543   1.731   7.996 -1.1750 -0.0219  0.5429
   83CHL1  H16B 8571   1.626   1.900   7.976  0.9010 -1.2237 -0.1623
   83CHL1   C17 8572   1.395   1.889   7.951 -0.0846  0.0134  0.0792
   83CHL1   H17 8573   1.401   1.999   7.948 -1.4049  0.0926  0.1377
   83CHL1   C13 8574   1.329   1.853   7.814 -0.5184  0.4404 -0.3097
   83CHL1   C18 8575   1.265   1.712   7.808 -0.4378  0.1940 -0.3681
   83CHL1  H18A 8576   1.343   1.634   7.825 -0.6390 -0.3812 -1.9884
   83CHL1  H18B 8577   1.200   1.698   7.897 -1.2812  1.0717 -0.8430
   83CHL1  H18C 8578   1.213   1.686   7.713  0.4582 -1.3189 -0.4650
   83CHL1   C12 8579   1.234   1.968   7.779 -0.1716 -0.1281 -1.0389
   83CHL1  H12A 8580   1.146   1.977   7.846 -0.3628  1.1899 -1.4530
   83CHL1  H12B 8581   1.287   2.065   7.777 -0.8454  0.2600 -0.3830
   83CHL1   C11 8582   1.199   1.954   7.631 -0.3645  0.0068  0.4923
   83CHL1  H11A 8583   1.119   1.878   7.622  0.5973 -0.8282 -1.2004
   83CHL1  H11B 8584   1.151   2.049   7.601  0.9705  0.9173  1.1877
   83CHL1    C9 8585   1.317   1.930   7.523 -0.1416  0.3370 -0.7922
   83CHL1    H9 8586   1.374   2.025   7.527 -2.4359  1.7099  0.2704
   83CHL1   C10 8587   1.275   1.907   7.375 -0.0230 -0.1044 -0.0538
   83CHL1   C19 8588   1.153   1.809   7.387  0.5418  0.2093  0.7868
   83CHL1  H19A 8589   1.131   1.746   7.298 -0.8863 -2.4166  2.9372
   83CHL1  H19B 8590   1.158   1.732   7.467  0.1944  1.2181  1.7929
   83CHL1  H19C 8591   1.061   1.869   7.402  0.5377  0.3797  0.1129
   83CHL1    C1 8592   1.231   2.038   7.299  0.4503  0.5327 -0.1885
   83CHL1   H1A 8593   1.155   2.081   7.366  0.0178  0.0299 -0.3525
   83CHL1   H1B 8594   1.324   2.099   7.306  1.7254 -1.5089  1.1896
   83CHL1    C2 8595   1.183   2.009   7.156 -0.1224  0.0440  0.0821
   83CHL1   H2A 8596   1.148   2.104   7.111  2.5715  1.0689  0.0637
   83CHL1   H2B 8597   1.110   1.926   7.144 -0.0825  0.0841 -0.4419
   83CHL1   C20 8598   1.335   1.844   8.089 -0.1326  0.5214 -1.0712
   83CHL1   H20 8599   1.329   1.733   8.090 -0.3135  0.5353 -0.1951
   83CHL1   C21 8600   1.187   1.896   8.104  0.3489 -0.0944 -0.1318
   83CHL1  H21A 8601   1.146   1.864   8.202  0.5721  0.2287  0.0692
   83CHL1  H21B 8602   1.124   1.860   8.020  1.7702  0.0720 -1.3007
   83CHL1  H21C 8603   1.199   2.006   8.094  1.4566 -0.2976 -1.1737
   83CHL1   C22 8604   1.419   1.895   8.207  0.0854 -0.1394 -0.6096
   83CHL1  H22A 8605   1.528   1.892   8.188 -0.1601 -0.1878 -2.0351
   83CHL1  H22B 8606   1.375   1.995   8.225 -0.0305 -0.6810  2.3579
   83CHL1   C23 8607   1.392   1.815   8.334 -0.5296  0.0014 -0.6509
   83CHL1  H23A 8608   1.429   1.877   8.419  0.5390 -1.3424 -0.1146
   83CHL1  H23B 8609   1.282   1.808   8.339 -0.5190 -0.1843 -0.6575
   83CHL1   C24 8610   1.460   1.676   8.336 -0.7389 -0.0072 -0.5534
   83CHL1  H24A 8611   1.447   1.617   8.243 -0.9168 -0.9998  0.0929
   83CHL1  H24B 8612   1.569   1.694   8.322 -1.2275  0.9616 -3.4464
   83CHL1   C25 8613   1.426   1.582   8.453 -0.0467  0.0849  0.5658
   83CHL1   H25 8614   1.316   1.576   8.443  0.1250 -2.3395  0.0451
   83CHL1   C26 8615   1.494   1.454   8.442 -1.1579  0.5532 -0.1955
   83CHL1  H26A 8616   1.435   1.381   8.383  0.0350 -0.9704  0.4680
   83CHL1  H26B 8617   1.599   1.460   8.405 -0.6521 -0.4344  1.0700
   83CHL1  H26C 8618   1.500   1.406   8.542 -1.6074  1.4811  0.2792
   83CHL1   C27 8619   1.457   1.642   8.591  0.7012 -0.3003  0.3773
   83CHL1  H27A 8620   1.419   1.571   8.667 -2.1044 -0.0422 -0.7468
   83CHL1  H27B 8621   1.562   1.678   8.602  1.1622 -1.3355 -0.6248
   83CHL1  H27C 8622   1.408   1.742   8.596  1.0334 -0.1008 -0.3889
   84CHL1    C3 8623   4.138   4.984   6.839 -0.1604  0.0429 -0.8877
   84CHL1    H3 8624   4.242   5.019   6.860 -0.3836 -0.1240  0.4825
   84CHL1    O3 8625   4.135   4.962   6.695  0.7207 -0.1250 -0.1841
   84CHL1   H3' 8626   4.046   4.932   6.677  0.8424  1.1278 -3.3347
   84CHL1    C4 8627   4.093   4.856   6.904 -0.6723  0.2685  0.0217
   84CHL1   H4A 8628   3.994   4.827   6.862 -0.6590  0.6675 -0.2836
   84CHL1   H4B 8629   4.171   4.783   6.876 -1.1645 -0.8998  1.5895
   84CHL1    C5 8630   4.072   4.879   7.051 -0.4341  0.2667 -0.3502
   84CHL1    C6 8631   4.137   4.795   7.136 -0.3116 -0.6797 -0.2575
   84CHL1    H6 8632   4.203   4.721   7.089  0.0805  1.1071 -2.6096
   84CHL1    C7 8633   4.117   4.806   7.288  0.5545  0.6495 -0.8036
   84CHL1   H7A 8634   4.109   4.705   7.333 -0.5435 -0.0099 -2.4093
   84CHL1   H7B 8635   4.214   4.840   7.329 -0.5211 -0.6368  2.9993
   84CHL1    C8 8636   4.005   4.890   7.336  0.3643  0.0403 -0.2268
   84CHL1    H8 8637   3.912   4.830   7.323 -0.1801  0.6613  0.7373
   84CHL1   C14 8638   4.016   4.909   7.482  0.3014  0.2167 -0.0079
   84CHL1   H14 8639   4.101   4.981   7.490  1.0753 -0.6256 -0.5430
   84CHL1   C15 8640   4.032   4.795   7.582 -0.7126 -0.7907  0.3610
   84CHL1  H15A 8641   3.967   4.708   7.559 -1.7074 -0.4657  1.8429
   84CHL1  H15B 8642   4.137   4.761   7.586 -0.8111 -1.1909 -0.3659
   84CHL1   C16 8643   3.990   4.855   7.709  0.2613  0.0028 -0.2114
   84CHL1  H16A 8644   3.929   4.775   7.757  1.7889 -1.9442 -1.4738
   84CHL1  H16B 8645   4.077   4.865   7.777  0.5150  2.2815 -0.8298
   84CHL1   C17 8646   3.918   4.991   7.690  0.2076 -0.3785 -0.1244
   84CHL1   H17 8647   3.994   5.066   7.718 -0.7215  1.0068 -1.2022
   84CHL1   C13 8648   3.888   4.986   7.540  0.8079  0.0318  0.1596
   84CHL1   C18 8649   3.753   4.905   7.508 -0.4744 -0.0416 -0.0872
   84CHL1  H18A 8650   3.732   4.903   7.399 -2.6330 -0.2703  0.3105
   84CHL1  H18B 8651   3.755   4.801   7.545 -0.1167 -0.6178 -1.6809
   84CHL1  H18C 8652   3.663   4.963   7.539  0.2862  0.8282  0.5192
   84CHL1   C12 8653   3.884   5.120   7.468  0.3956  0.0962  0.7607
   84CHL1  H12A 8654   3.792   5.171   7.502 -0.2973 -1.0066  0.5626
   84CHL1  H12B 8655   3.980   5.169   7.497  0.5219 -0.1579  0.7724
   84CHL1   C11 8656   3.888   5.103   7.313  0.2674 -0.4835 -0.3285
   84CHL1  H11A 8657   3.790   5.063   7.277 -0.2265  0.2779  0.1580
   84CHL1  H11B 8658   3.898   5.205   7.272 -0.2512  0.0760  0.9189
   84CHL1    C9 8659   4.000   5.016   7.253  0.6639  0.5854 -0.6359
   84CHL1    H9 8660   4.099   5.064   7.266  1.4865 -1.1229 -0.4258
   84CHL1   C10 8661   3.984   4.994   7.101 -0.0770  0.6882  0.2503
   84CHL1   C19 8662   3.839   4.948   7.071 -0.6052  1.1618 -0.0164
   84CHL1  H19A 8663   3.768   5.033   7.072 -3.7366 -1.3605  1.0680
   84CHL1  H19B 8664   3.833   4.911   6.966  3.6463 -1.5969  0.5841
   84CHL1  H19C 8665   3.810   4.868   7.143 -2.6575  1.4487 -0.4889
   84CHL1    C1 8666   4.019   5.123   7.021  0.2288 -0.1799  0.3571
   84CHL1   H1A 8667   3.932   5.189   7.039 -0.0977 -0.7090  0.7344
   84CHL1   H1B 8668   4.107   5.175   7.065  1.1047 -0.6524 -0.8066
   84CHL1    C2 8669   4.039   5.101   6.868 -0.0254  0.6927  0.1155
   84CHL1   H2A 8670   4.074   5.199   6.827 -0.3662  0.9678  0.4780
   84CHL1   H2B 8671   3.941   5.074   6.825  0.0751 -1.3458  1.1149
   84CHL1   C20 8672   3.803   5.027   7.788  1.3553 -0.0215 -0.2851
   84CHL1   H20 8673   3.704   4.982   7.765 -0.1421  2.8226  0.2886
   84CHL1   C21 8674   3.802   5.187   7.800  0.3342  0.1970 -0.0188
   84CHL1  H21A 8675   3.714   5.218   7.862 -0.0674  0.4073 -0.6930
   84CHL1  H21B 8676   3.792   5.243   7.704  1.9718  0.6237  0.0512
   84CHL1  H21C 8677   3.887   5.235   7.852  0.6049 -2.0023  1.6216
   84CHL1   C22 8678   3.834   4.969   7.931  0.4937  0.8759  0.1894
   84CHL1  H22A 8679   3.837   4.858   7.927  0.5513  0.7664  2.6625
   84CHL1  H22B 8680   3.934   5.008   7.960  0.7477  0.3360  0.0295
   84CHL1   C23 8681   3.726   5.005   8.036  0.0737 -0.0574 -0.7367
   84CHL1  H23A 8682   3.726   5.113   8.065  4.5237 -0.0042 -0.5857
   84CHL1  H23B 8683   3.634   4.974   7.982  0.2088 -0.5685 -0.6732
   84CHL1   C24 8684   3.739   4.915   8.157 -0.4812 -0.7663  0.2910
   84CHL1  H24A 8685   3.657   4.935   8.229 -3.0338 -1.6801 -2.2404
   84CHL1  H24B 8686   3.730   4.811   8.118  2.7122 -0.6508 -0.8799
   84CHL1   C25 8687   3.863   4.942   8.243  0.1615  0.2069 -0.0973
   84CHL1   H25 8688   3.947   4.914   8.176 -0.6711 -3.0676  0.1665
   84CHL1   C26 8689   3.874   5.085   8.297 -1.4135  0.2714  0.1068
   84CHL1  H26A 8690   3.797   5.116   8.371 -0.2725 -0.7267  1.7397
   84CHL1  H26B 8691   3.974   5.098   8.342 -2.1471  1.0750  1.5343
   84CHL1  H26C 8692   3.881   5.158   8.213 -1.5797  1.1324  0.8337
   84CHL1   C27 8693   3.871   4.850   8.368  0.2262 -0.2458  0.0786
   84CHL1  H27A 8694   3.976   4.850   8.404  0.2749  0.7533 -0.0391
   84CHL1  H27B 8695   3.811   4.895   8.450 -1.4387 -1.2748 -0.5470
   84CHL1  H27C 8696   3.834   4.746   8.353  2.3058 -0.8738 -1.0528
   85CHL1    C3 8697   4.303   2.335   6.749 -0.7775 -0.4887  0.3356
   85CHL1    H3 8698   4.350   2.236   6.732 -2.4174 -1.4271  1.1382
   85CHL1    O3 8699   4.328   2.416   6.633 -0.6053  0.3396  0.5291
   85CHL1   H3' 8700   4.422   2.426   6.618 -0.8637  2.1529  0.0135
   85CHL1    C4 8701   4.149   2.313   6.769  0.1512  0.1919 -0.3444
   85CHL1   H4A 8702   4.111   2.417   6.773  0.9847  0.4832  0.0701
   85CHL1   H4B 8703   4.104   2.269   6.677 -0.9867 -2.2110  1.2852
   85CHL1    C5 8704   4.116   2.244   6.896 -0.2201 -0.3730  0.3222
   85CHL1    C6 8705   4.047   2.135   6.890  0.7754 -0.1986 -0.0296
   85CHL1    H6 8706   4.003   2.106   6.794 -0.0600 -1.2162  0.6501
   85CHL1    C7 8707   4.004   2.059   7.005 -0.1980  0.6719 -0.0334
   85CHL1   H7A 8708   3.901   2.019   6.995  0.0647 -0.1566  0.5405
   85CHL1   H7B 8709   4.060   1.962   7.005  2.4926  2.1473 -1.9307
   85CHL1    C8 8710   4.034   2.135   7.140 -0.6711  0.3074  0.1508
   85CHL1    H8 8711   3.950   2.208   7.147 -0.8942 -0.0492  1.4416
   85CHL1   C14 8712   4.019   2.033   7.258 -0.3643  0.1068 -0.4672
   85CHL1   H14 8713   4.100   1.959   7.243 -0.8970 -1.0903  2.2550
   85CHL1   C15 8714   3.885   1.949   7.266 -0.3955  0.0907 -0.0516
   85CHL1  H15A 8715   3.800   2.015   7.235  1.7799  1.9596 -2.2074
   85CHL1  H15B 8716   3.881   1.863   7.197 -2.6958 -0.9177  1.2832
   85CHL1   C16 8717   3.878   1.911   7.412  0.0041 -0.2913  0.4624
   85CHL1  H16A 8718   3.788   1.956   7.459 -1.2585 -2.1676 -0.0951
   85CHL1  H16B 8719   3.884   1.802   7.433  1.9489 -0.8230 -2.4721
   85CHL1   C17 8720   3.997   1.981   7.485  0.2270  0.8013 -0.0797
   85CHL1   H17 8721   4.084   1.912   7.475  1.5145  2.4783 -0.7607
   85CHL1   C13 8722   4.042   2.099   7.397 -0.7228  0.3820  0.2012
   85CHL1   C18 8723   3.943   2.213   7.418 -0.1867 -0.0975  0.1147
   85CHL1  H18A 8724   3.956   2.296   7.345  0.6876  1.8100  2.3854
   85CHL1  H18B 8725   3.837   2.182   7.412  0.3195 -2.3138  2.0418
   85CHL1  H18C 8726   3.954   2.260   7.518  2.8990  1.1282 -0.7439
   85CHL1   C12 8727   4.184   2.149   7.401  0.4768 -0.2615 -0.8595
   85CHL1  H12A 8728   4.228   2.203   7.487  1.2583  0.4286 -1.6921
   85CHL1  H12B 8729   4.237   2.053   7.383  1.9838  0.8719 -2.6872
   85CHL1   C11 8730   4.208   2.253   7.284 -0.3089 -0.1107 -0.0506
   85CHL1  H11A 8731   4.148   2.343   7.313  3.2788  3.2185 -2.4105
   85CHL1  H11B 8732   4.313   2.291   7.291  0.0068 -1.1573  1.0287
   85CHL1    C9 8733   4.174   2.193   7.140 -0.3127 -0.1241  0.1287
   85CHL1    H9 8734   4.249   2.114   7.122 -0.2411  0.5254 -2.6707
   85CHL1   C10 8735   4.191   2.300   7.023  0.2937 -0.3953  0.4712
   85CHL1   C19 8736   4.137   2.439   7.069 -0.5874 -0.0445 -0.9946
   85CHL1  H19A 8737   4.032   2.441   7.104  0.0205 -1.5983  1.0086
   85CHL1  H19B 8738   4.196   2.494   7.145 -2.0201  1.4486 -0.9361
   85CHL1  H19C 8739   4.131   2.506   6.980  0.3979  0.2746 -0.8229
   85CHL1    C1 8740   4.344   2.318   6.993 -0.6627 -0.5296  0.6292
   85CHL1   H1A 8741   4.387   2.378   7.076 -0.2326  0.0301  0.0116
   85CHL1   H1B 8742   4.393   2.221   6.969 -0.2025 -0.1749  0.0956
   85CHL1    C2 8743   4.366   2.409   6.867  0.6601 -0.0654 -1.0926
   85CHL1   H2A 8744   4.477   2.408   6.854  0.9545  2.6355  0.6967
   85CHL1   H2B 8745   4.346   2.518   6.878 -0.2739 -0.4158  0.8793
   85CHL1   C20 8746   3.972   1.999   7.638  0.4896  1.3383  0.1919
   85CHL1   H20 8747   3.887   2.065   7.664 -0.5981  0.2248 -0.4779
   85CHL1   C21 8748   4.098   2.076   7.682  0.9438  0.5769  0.0311
   85CHL1  H21A 8749   4.187   2.025   7.638  0.8607 -2.0579  2.7757
   85CHL1  H21B 8750   4.114   2.061   7.791 -2.0188 -1.8779  0.2023
   85CHL1  H21C 8751   4.100   2.183   7.651  0.0107  0.8749  0.9576
   85CHL1   C22 8752   3.945   1.872   7.725  0.2319  0.2182 -0.1534
   85CHL1  H22A 8753   3.867   1.801   7.689  0.9202 -0.8408  0.3919
   85CHL1  H22B 8754   4.045   1.822   7.732  0.7251  1.0952 -0.8707
   85CHL1   C23 8755   3.914   1.907   7.873 -0.2915  0.6497 -0.3041
   85CHL1  H23A 8756   4.000   1.964   7.916 -1.3072  1.4425  0.7119
   85CHL1  H23B 8757   3.832   1.982   7.880  0.4773  1.4343  0.5089
   85CHL1   C24 8758   3.899   1.790   7.962  0.1012  0.2583 -0.2041
   85CHL1  H24A 8759   3.856   1.711   7.896 -0.5008  0.4502 -0.0461
   85CHL1  H24B 8760   4.004   1.754   7.972 -0.1592  0.3182  3.0395
   85CHL1   C25 8761   3.817   1.820   8.092 -0.3466  0.2425 -0.1961
   85CHL1   H25 8762   3.861   1.897   8.159  0.8164 -1.3011  0.8478
   85CHL1   C26 8763   3.672   1.850   8.055  0.9306  0.0598  0.0133
   85CHL1  H26A 8764   3.619   1.818   8.148  0.1617 -2.1564 -1.1498
   85CHL1  H26B 8765   3.674   1.958   8.027 -0.8061 -0.0602 -0.6044
   85CHL1  H26C 8766   3.625   1.781   7.982 -1.4073  1.2072  0.3725
   85CHL1   C27 8767   3.830   1.684   8.168 -0.1723  0.0382 -0.6271
   85CHL1  H27A 8768   3.771   1.691   8.262  0.8466  0.1095  0.0069
   85CHL1  H27B 8769   3.790   1.603   8.102 -0.9102  0.3835 -0.6115
   85CHL1  H27C 8770   3.934   1.653   8.188 -0.3899  0.3856  1.1227
   86CHL1    C3 8771   5.956   6.698   6.921  0.4172  0.4189 -0.0318
   86CHL1    H3 8772   5.891   6.622   6.874  0.8325 -0.5513  0.9347
   86CHL1    O3 8773   6.022   6.753   6.816 -0.1951 -0.2247  0.1532
   86CHL1   H3' 8774   6.102   6.789   6.855 -0.6853  1.2234 -0.1261
   86CHL1    C4 8775   5.871   6.809   7.000  1.0002  0.5613 -0.1283
   86CHL1   H4A 8776   5.924   6.903   7.026 -0.1333  0.7380  1.6419
   86CHL1   H4B 8777   5.791   6.839   6.929  1.5680 -2.0582 -1.9530
   86CHL1    C5 8778   5.815   6.755   7.128  0.0575 -0.7728  0.2872
   86CHL1    C6 8779   5.684   6.745   7.150  0.5350 -0.2252 -0.3845
   86CHL1    H6 8780   5.609   6.784   7.079  1.1885 -0.2459 -1.0938
   86CHL1    C7 8781   5.624   6.687   7.277  0.2799 -0.1277  0.1168
   86CHL1   H7A 8782   5.527   6.737   7.299 -1.0914 -1.7927 -1.8475
   86CHL1   H7B 8783   5.593   6.582   7.258  0.1138  0.1876 -1.4134
   86CHL1    C8 8784   5.723   6.690   7.392  0.2281  0.8492  0.8258
   86CHL1    H8 8785   5.733   6.793   7.430 -0.4579  0.0279  3.3169
   86CHL1   C14 8786   5.663   6.608   7.508 -0.2506 -0.0966 -0.5918
   86CHL1   H14 8787   5.673   6.501   7.480  0.4237  0.0491 -0.9054
   86CHL1   C15 8788   5.521   6.635   7.550  0.2470 -0.7176 -0.3767
   86CHL1  H15A 8789   5.499   6.743   7.560 -1.7532 -1.1402  0.1013
   86CHL1  H15B 8790   5.444   6.592   7.482  1.3748 -0.8776 -1.5687
   86CHL1   C16 8791   5.515   6.563   7.688  0.4014  0.3484  0.4217
   86CHL1  H16A 8792   5.456   6.625   7.760  0.3636 -0.8774  1.4648
   86CHL1  H16B 8793   5.459   6.468   7.679  0.3505  0.5417 -1.4562
   86CHL1   C17 8794   5.663   6.529   7.734  0.1222  0.1983 -0.1925
   86CHL1   H17 8795   5.677   6.424   7.701  3.3892 -0.0683  1.7720
   86CHL1   C13 8796   5.752   6.614   7.638  0.5039  0.1111  0.0917
   86CHL1   C18 8797   5.762   6.763   7.680  0.9308 -0.3764 -0.2240
   86CHL1  H18A 8798   5.843   6.816   7.626  1.2385 -1.2463 -0.6263
   86CHL1  H18B 8799   5.667   6.819   7.668  0.2422 -1.5298 -0.1673
   86CHL1  H18C 8800   5.796   6.771   7.785  1.2737  1.2430 -0.4364
   86CHL1   C12 8801   5.888   6.565   7.596 -0.5497 -0.5646  0.8620
   86CHL1  H12A 8802   5.963   6.584   7.676  1.0334  0.2468 -0.7798
   86CHL1  H12B 8803   5.887   6.457   7.572 -0.7633 -0.3206 -0.2504
   86CHL1   C11 8804   5.957   6.637   7.481  0.4348 -0.5464  0.0971
   86CHL1  H11A 8805   5.987   6.739   7.510  1.3392 -0.8902  0.3812
   86CHL1  H11B 8806   6.050   6.587   7.446  1.1891  0.4152  0.7147
   86CHL1    C9 8807   5.861   6.632   7.351 -0.2998  1.0600  0.7699
   86CHL1    H9 8808   5.830   6.526   7.338 -2.1919  1.4460  1.9144
   86CHL1   C10 8809   5.922   6.698   7.226  1.0269  0.3780  0.7091
   86CHL1   C19 8810   6.024   6.808   7.267  0.0334 -0.1119 -0.0997
   86CHL1  H19A 8811   5.964   6.890   7.312 -1.7012 -1.6494  0.4786
   86CHL1  H19B 8812   6.103   6.769   7.334 -0.3829 -0.2585  0.3072
   86CHL1  H19C 8813   6.080   6.854   7.183 -0.2685 -1.6450 -1.1568
   86CHL1    C1 8814   5.993   6.585   7.150  0.1140  0.5261  1.0883
   86CHL1   H1A 8815   6.071   6.540   7.216  1.1259  0.8214  0.1224
   86CHL1   H1B 8816   5.911   6.511   7.134 -0.2552  0.2769  4.0198
   86CHL1    C2 8817   6.058   6.637   7.021 -0.3686  0.2991 -0.3309
   86CHL1   H2A 8818   6.122   6.563   6.968  0.1218 -0.5414  1.4040
   86CHL1   H2B 8819   6.129   6.719   7.045 -3.0147  2.3266  0.8660
   86CHL1   C20 8820   5.674   6.535   7.886  0.5009  0.5257  0.4551
   86CHL1   H20 8821   5.636   6.634   7.916 -3.0087 -0.0596 -1.8256
   86CHL1   C21 8822   5.823   6.518   7.924 -0.0736 -0.5676  0.0782
   86CHL1  H21A 8823   5.831   6.551   8.030  0.0613  0.2712 -0.1866
   86CHL1  H21B 8824   5.887   6.588   7.866 -0.5873  0.4659  0.7308
   86CHL1  H21C 8825   5.838   6.408   7.919 -0.5996 -0.7081  1.3999
   86CHL1   C22 8826   5.589   6.441   7.975 -0.1018 -0.7679  0.3477
   86CHL1  H22A 8827   5.496   6.418   7.918 -0.9292  1.6771  0.6791
   86CHL1  H22B 8828   5.637   6.341   7.964 -2.9299 -2.1733  0.1033
   86CHL1   C23 8829   5.558   6.494   8.119  0.1078  0.6388  0.3659
   86CHL1  H23A 8830   5.657   6.515   8.165  1.9834 -2.8043 -1.8819
   86CHL1  H23B 8831   5.496   6.585   8.101 -1.3182 -0.1370  1.2404
   86CHL1   C24 8832   5.479   6.395   8.208  0.0638 -0.6315  0.3460
   86CHL1  H24A 8833   5.381   6.368   8.164  0.7546 -1.7402 -0.5536
   86CHL1  H24B 8834   5.522   6.293   8.217 -0.6000 -0.8598  0.9964
   86CHL1   C25 8835   5.463   6.440   8.351  0.2178 -0.3220 -0.1412
   86CHL1   H25 8836   5.567   6.458   8.385 -0.2785  0.6641  0.8832
   86CHL1   C26 8837   5.375   6.568   8.368 -0.6776  0.8777 -0.3806
   86CHL1  H26A 8838   5.404   6.652   8.302 -0.8485  1.7470  0.6333
   86CHL1  H26B 8839   5.272   6.545   8.334 -0.6627  0.3187 -0.0661
   86CHL1  H26C 8840   5.379   6.615   8.469  0.9804  1.6950 -0.8192
   86CHL1   C27 8841   5.413   6.332   8.444  0.1246 -0.3876 -0.1332
   86CHL1  H27A 8842   5.305   6.319   8.424 -0.0977 -3.4630  2.6361
   86CHL1  H27B 8843   5.463   6.235   8.423 -0.9631 -0.1960 -3.8108
   86CHL1  H27C 8844   5.434   6.370   8.547 -1.8810 -2.9358  1.2873
   87CHL1    C3 8845   5.745   5.802   6.989 -0.3399 -0.0348  0.8176
   87CHL1    H3 8846   5.830   5.860   7.029  0.3136 -0.2117 -0.3061
   87CHL1    O3 8847   5.726   5.820   6.847 -0.2290 -0.4620  0.3646
   87CHL1   H3' 8848   5.812   5.805   6.807  0.6566 -1.2489  2.4452
   87CHL1    C4 8849   5.763   5.652   7.020 -0.0854  0.0791  0.3901
   87CHL1   H4A 8850   5.683   5.591   6.974  0.5086 -1.0528  0.8330
   87CHL1   H4B 8851   5.858   5.613   6.977  1.0767  1.4184  1.6945
   87CHL1    C5 8852   5.756   5.645   7.172 -0.1735  0.2475 -0.4677
   87CHL1    C6 8853   5.861   5.588   7.234  0.2549  1.0938 -0.6029
   87CHL1    H6 8854   5.947   5.553   7.175  1.7372  2.5620  0.6350
   87CHL1    C7 8855   5.864   5.551   7.378  0.4504 -0.2778  0.2518
   87CHL1   H7A 8856   5.895   5.444   7.373  1.3703  0.0867 -4.5510
   87CHL1   H7B 8857   5.944   5.608   7.430  2.7130 -1.5386 -1.7003
   87CHL1    C8 8858   5.728   5.565   7.448  0.1916 -0.2785 -0.6573
   87CHL1    H8 8859   5.663   5.477   7.425 -0.8519  0.0897  0.7693
   87CHL1   C14 8860   5.740   5.564   7.601 -0.3079  0.9604 -0.8144
   87CHL1   H14 8861   5.790   5.660   7.630  0.1799  0.5319 -0.2272
   87CHL1   C15 8862   5.831   5.458   7.664  0.9851 -0.2592 -0.1331
   87CHL1  H15A 8863   5.806   5.356   7.626 -2.0632  1.0278 -1.7346
   87CHL1  H15B 8864   5.941   5.475   7.659  0.7539  0.6886 -2.9042
   87CHL1   C16 8865   5.789   5.467   7.818  0.0553 -0.5540  0.0201
   87CHL1  H16A 8866   5.752   5.371   7.862 -0.4934  0.2030  1.2442
   87CHL1  H16B 8867   5.874   5.508   7.877 -0.7468  1.4111 -0.1731
   87CHL1   C17 8868   5.669   5.563   7.825  0.3304  0.0132 -0.5380
   87CHL1   H17 8869   5.695   5.670   7.843  1.8082 -0.6115  1.2706
   87CHL1   C13 8870   5.610   5.576   7.678 -0.3518  0.3139 -0.3578
   87CHL1   C18 8871   5.525   5.448   7.641 -0.5609 -0.2015 -0.7329
   87CHL1  H18A 8872   5.497   5.454   7.534  1.3775 -1.2640 -1.3220
   87CHL1  H18B 8873   5.580   5.352   7.646 -0.2629 -0.1337 -2.4364
   87CHL1  H18C 8874   5.433   5.447   7.703 -1.0574  1.9322 -1.3868
   87CHL1   C12 8875   5.540   5.710   7.640  0.3545 -0.1475  0.5101
   87CHL1  H12A 8876   5.443   5.714   7.694 -1.5910 -1.6021 -2.6959
   87CHL1  H12B 8877   5.597   5.794   7.685 -0.4772  1.1880 -0.8708
   87CHL1   C11 8878   5.520   5.721   7.488 -0.0607 -0.0109  0.8871
   87CHL1  H11A 8879   5.441   5.647   7.462  1.4110 -1.5227  0.6908
   87CHL1  H11B 8880   5.484   5.825   7.467  0.3739  0.1120  0.7445
   87CHL1    C9 8881   5.656   5.690   7.403  0.1899 -0.0818  0.1210
   87CHL1    H9 8882   5.730   5.767   7.432 -0.0690  0.5698 -0.9370
   87CHL1   C10 8883   5.636   5.701   7.247  0.1575  0.5815 -0.5275
   87CHL1   C19 8884   5.519   5.614   7.205  0.2872 -0.2951 -0.0582
   87CHL1  H19A 8885   5.524   5.518   7.259  0.1639 -0.3505 -0.1467
   87CHL1  H19B 8886   5.423   5.660   7.236  1.2175  1.4198  0.3929
   87CHL1  H19C 8887   5.519   5.596   7.095  0.2537 -0.4484 -0.0321
   87CHL1    C1 8888   5.603   5.846   7.203 -0.4292  0.2497  0.6023
   87CHL1   H1A 8889   5.511   5.885   7.251  1.1887  2.7877  1.7238
   87CHL1   H1B 8890   5.683   5.916   7.236  0.9399 -0.7811 -0.4750
   87CHL1    C2 8891   5.616   5.864   7.048 -0.0541  0.5098 -0.0063
   87CHL1   H2A 8892   5.599   5.970   7.018  0.1742  0.8020  0.8738
   87CHL1   H2B 8893   5.542   5.809   6.986 -1.7272  0.3108  2.0979
   87CHL1   C20 8894   5.566   5.515   7.928 -0.3812 -0.3111 -0.5920
   87CHL1   H20 8895   5.522   5.418   7.896  1.5740 -1.3260 -0.2591
   87CHL1   C21 8896   5.437   5.604   7.940 -0.3371  0.3755 -0.0695
   87CHL1  H21A 8897   5.370   5.569   8.021  0.0260 -1.3828 -0.4931
   87CHL1  H21B 8898   5.371   5.586   7.852  1.0347  0.9718 -1.2490
   87CHL1  H21C 8899   5.462   5.709   7.965  1.2514 -0.1644  0.6642
   87CHL1   C22 8900   5.627   5.477   8.074 -0.3691 -0.2174  0.0680
   87CHL1  H22A 8901   5.698   5.393   8.057  1.9442  1.9183 -1.1861
   87CHL1  H22B 8902   5.702   5.554   8.103  0.6631 -1.5016  0.8566
   87CHL1   C23 8903   5.544   5.440   8.191  0.1740  0.3531 -0.2886
   87CHL1  H23A 8904   5.463   5.514   8.206  0.7862  1.4336 -2.1022
   87CHL1  H23B 8905   5.483   5.352   8.163 -0.4518 -0.1222  2.4198
   87CHL1   C24 8906   5.621   5.406   8.315 -0.0895 -0.4672  0.3694
   87CHL1  H24A 8907   5.673   5.308   8.305  3.4553  1.4309 -0.6895
   87CHL1  H24B 8908   5.697   5.483   8.342  0.6150 -1.2990  0.8190
   87CHL1   C25 8909   5.527   5.397   8.434 -0.2906  0.5978 -0.4225
   87CHL1   H25 8910   5.439   5.340   8.398 -1.8677  2.9947 -0.4395
   87CHL1   C26 8911   5.590   5.319   8.557 -1.4113  1.0403 -0.1560
   87CHL1  H26A 8912   5.511   5.314   8.634 -1.3648 -0.6825 -0.2074
   87CHL1  H26B 8913   5.619   5.215   8.529 -0.5855  0.8149  1.4676
   87CHL1  H26C 8914   5.673   5.377   8.603 -0.0315  0.4965 -1.8702
   87CHL1   C27 8915   5.470   5.532   8.479 -0.6081 -0.1620  0.7506
   87CHL1  H27A 8916   5.552   5.602   8.508  0.4227 -1.8587  2.0208
   87CHL1  H27B 8917   5.416   5.585   8.398  0.0795  0.4682  0.6979
   87CHL1  H27C 8918   5.400   5.527   8.565 -0.3418  1.1212  1.0631
   88CHL1    C3 8919   3.545   3.148   6.885 -0.2424 -0.2995  0.4267
   88CHL1    H3 8920   3.506   3.050   6.919  0.1342 -1.6181 -2.7446
   88CHL1    O3 8921   3.485   3.170   6.758  0.7395 -0.1909  0.0575
   88CHL1   H3' 8922   3.517   3.257   6.733 -0.7191  0.3221 -0.1226
   88CHL1    C4 8923   3.486   3.270   6.976  0.0964 -0.3132  0.3501
   88CHL1   H4A 8924   3.510   3.356   6.910  0.0284 -0.2469  0.4119
   88CHL1   H4B 8925   3.375   3.263   6.978  0.0434 -0.2128 -1.6714
   88CHL1    C5 8926   3.543   3.277   7.113  0.6131 -0.5492 -0.2547
   88CHL1    C6 8927   3.466   3.286   7.221  0.0883  0.1770  0.3475
   88CHL1    H6 8928   3.357   3.295   7.207  0.2899 -1.7452 -3.1500
   88CHL1    C7 8929   3.521   3.291   7.362 -0.2125  0.0041  0.4995
   88CHL1   H7A 8930   3.462   3.354   7.431 -1.6978  0.6090 -1.2978
   88CHL1   H7B 8931   3.493   3.192   7.404 -0.6697 -0.7826 -1.6029
   88CHL1    C8 8932   3.672   3.313   7.377  0.3907  0.2055 -0.3184
   88CHL1    H8 8933   3.679   3.424   7.367 -0.5641  0.1172 -2.0740
   88CHL1   C14 8934   3.716   3.275   7.526 -0.1466  0.4472  0.4268
   88CHL1   H14 8935   3.706   3.166   7.544  0.2956  0.9812  4.2545
   88CHL1   C15 8936   3.654   3.331   7.652 -0.4221  0.0872  0.4138
   88CHL1  H15A 8937   3.615   3.434   7.644 -2.2881 -0.2115  4.3804
   88CHL1  H15B 8938   3.567   3.266   7.679  0.6113 -1.5638 -0.1405
   88CHL1   C16 8939   3.764   3.315   7.757 -0.0739 -0.4614  0.5689
   88CHL1  H16A 8940   3.802   3.419   7.773 -2.7281  0.9634 -2.0416
   88CHL1  H16B 8941   3.721   3.271   7.849 -0.3403  0.1001  0.7196
   88CHL1   C17 8942   3.877   3.248   7.692  0.3082  0.2633  0.4547
   88CHL1   H17 8943   3.854   3.139   7.697  0.6392  0.0404 -2.2053
   88CHL1   C13 8944   3.867   3.288   7.542 -0.2998 -0.1935 -0.2178
   88CHL1   C18 8945   3.910   3.437   7.519 -0.4224  0.0327  0.3019
   88CHL1  H18A 8946   3.906   3.476   7.415 -0.1670 -0.3262  0.1580
   88CHL1  H18B 8947   3.857   3.511   7.584 -0.3781 -0.2834  0.7022
   88CHL1  H18C 8948   4.016   3.441   7.553 -0.0837 -0.5650 -0.6776
   88CHL1   C12 8949   3.946   3.205   7.447  0.1586 -0.3245  0.1888
   88CHL1  H12A 8950   4.054   3.229   7.452 -0.1119  0.7278  1.1111
   88CHL1  H12B 8951   3.933   3.096   7.462  1.2577 -0.7893 -2.0097
   88CHL1   C11 8952   3.904   3.231   7.295 -0.2100  0.2647  0.9708
   88CHL1  H11A 8953   3.944   3.331   7.269 -1.7493  0.6122 -0.1446
   88CHL1  H11B 8954   3.943   3.154   7.225  0.1672  2.4473 -1.2894
   88CHL1    C9 8955   3.747   3.231   7.270 -0.0328  0.0108 -0.6370
   88CHL1    H9 8956   3.706   3.130   7.292 -1.0811  0.0867 -2.1509
   88CHL1   C10 8957   3.697   3.256   7.126 -0.3091  0.0705 -0.5388
   88CHL1   C19 8958   3.764   3.384   7.074 -0.1244  0.0379 -0.6858
   88CHL1  H19A 8959   3.873   3.364   7.076 -0.3540 -1.1245  2.8720
   88CHL1  H19B 8960   3.739   3.396   6.967  3.4909 -1.4862 -1.7668
   88CHL1  H19C 8961   3.736   3.477   7.128  1.3499  0.7494 -1.1275
   88CHL1    C1 8962   3.742   3.132   7.044 -0.1557 -0.2075  0.0433
   88CHL1   H1A 8963   3.853   3.133   7.040 -0.1299  0.4461  0.8000
   88CHL1   H1B 8964   3.699   3.043   7.096 -0.2551  0.1486  0.5711
   88CHL1    C2 8965   3.702   3.138   6.901 -0.7206 -1.0995  0.1128
   88CHL1   H2A 8966   3.737   3.041   6.860 -1.0488 -0.8900 -0.6721
   88CHL1   H2B 8967   3.751   3.217   6.841 -0.6068 -0.6185  0.8385
   88CHL1   C20 8968   4.010   3.266   7.768  0.4874 -0.1718 -0.1685
   88CHL1   H20 8969   4.070   3.352   7.733 -1.0908  1.0636  0.1179
   88CHL1   C21 8970   4.090   3.139   7.747 -0.4775 -0.2843 -0.8734
   88CHL1  H21A 8971   4.095   3.100   7.643 -1.1886 -2.6372 -0.0477
   88CHL1  H21B 8972   4.061   3.060   7.820  1.2800  1.2775  1.6064
   88CHL1  H21C 8973   4.195   3.151   7.781 -0.8164  0.8561 -0.2265
   88CHL1   C22 8974   4.005   3.287   7.925 -0.0619 -0.8003  0.1508
   88CHL1  H22A 8975   3.955   3.381   7.955  0.4203 -0.6165  0.3838
   88CHL1  H22B 8976   3.938   3.205   7.961 -0.9044 -0.6747 -1.1196
   88CHL1   C23 8977   4.137   3.291   8.009 -0.3800  0.1043  0.1300
   88CHL1  H23A 8978   4.206   3.207   7.983 -1.1492  0.0301 -1.7517
   88CHL1  H23B 8979   4.191   3.387   7.996  1.5185 -1.1025 -1.2516
   88CHL1   C24 8980   4.110   3.304   8.159  0.3442 -0.2172  0.0223
   88CHL1  H24A 8981   4.052   3.397   8.180  1.9879  0.4475  1.7837
   88CHL1  H24B 8982   4.052   3.213   8.185  1.4532 -1.2160 -0.9487
   88CHL1   C25 8983   4.239   3.327   8.253  0.1096 -0.4431  0.2724
   88CHL1   H25 8984   4.286   3.423   8.225  2.5028 -1.1064  1.8714
   88CHL1   C26 8985   4.198   3.330   8.399 -0.1564  0.2789  0.2631
   88CHL1  H26A 8986   4.136   3.421   8.410  2.1902  2.2083 -1.7007
   88CHL1  H26B 8987   4.137   3.242   8.427 -0.5649  0.3076 -0.5218
   88CHL1  H26C 8988   4.287   3.338   8.465  0.7084  0.4308 -0.9023
   88CHL1   C27 8989   4.343   3.227   8.215  0.1162 -0.2575 -0.0297
   88CHL1  H27A 8990   4.369   3.235   8.108  1.1341 -2.2143  0.0624
   88CHL1  H27B 8991   4.433   3.258   8.273 -0.7992  1.1445  0.6864
   88CHL1  H27C 8992   4.309   3.123   8.233 -0.6177 -0.1679 -0.8972
   89CHL1    C3 8993   6.265   6.003   7.060  0.8525  0.8373  0.0032
   89CHL1    H3 8994   6.282   5.903   7.105  0.3144  1.1058  0.8195
   89CHL1    O3 8995   6.273   5.990   6.917 -0.1187 -0.3102  0.4683
   89CHL1   H3' 8996   6.239   6.072   6.881  0.1075 -0.4320 -0.0326
   89CHL1    C4 8997   6.121   6.036   7.085 -0.0254 -0.4789  0.0839
   89CHL1   H4A 8998   6.104   6.136   7.040 -0.1656 -1.0742 -1.2045
   89CHL1   H4B 8999   6.054   5.966   7.031 -2.1096  0.2486  1.6672
   89CHL1    C5 9000   6.101   6.031   7.232 -0.0216  0.0162  0.2310
   89CHL1    C6 9001   6.011   5.943   7.287  0.6849  0.5738 -0.5357
   89CHL1    H6 9002   5.948   5.892   7.213  0.2744 -2.4830  1.7999
   89CHL1    C7 9003   5.984   5.926   7.440 -0.4190 -0.1610 -0.0168
   89CHL1   H7A 9004   5.875   5.914   7.459 -0.5541 -0.3369 -0.8849
   89CHL1   H7B 9005   6.046   5.837   7.463 -1.1219 -0.6231  0.1134
   89CHL1    C8 9006   6.050   6.040   7.520  0.1400  0.1529 -0.5309
   89CHL1    H8 9007   5.980   6.127   7.513 -1.2876 -0.9842 -0.7239
   89CHL1   C14 9008   6.063   5.996   7.667 -0.5019 -0.3298  0.7483
   89CHL1   H14 9009   6.144   5.920   7.659 -0.7406 -0.3980 -1.1927
   89CHL1   C15 9010   5.958   5.933   7.749 -0.1006 -0.5213 -0.3203
   89CHL1  H15A 9011   5.866   5.994   7.737  0.0114 -0.0901  0.9420
   89CHL1  H15B 9012   5.941   5.826   7.726  0.6869 -0.5600 -0.7185
   89CHL1   C16 9013   5.992   5.948   7.899  0.1778 -0.2497  0.5557
   89CHL1  H16A 9014   5.902   5.992   7.948 -0.2703 -0.6349  0.0958
   89CHL1  H16B 9015   6.001   5.852   7.955  0.6568 -0.5472 -0.0271
   89CHL1   C17 9016   6.117   6.040   7.888  0.0698  0.5168 -0.6234
   89CHL1   H17 9017   6.195   5.963   7.875  0.5128  0.9567 -0.6013
   89CHL1   C13 9018   6.114   6.109   7.757  0.5120 -0.6303 -0.2570
   89CHL1   C18 9019   6.010   6.228   7.761 -0.5914 -0.2252  0.4139
   89CHL1  H18A 9020   6.042   6.305   7.835  1.6098 -2.6665  2.0632
   89CHL1  H18B 9021   6.003   6.278   7.662 -0.4454  0.9171  0.9643
   89CHL1  H18C 9022   5.909   6.194   7.793 -1.0338  1.1845  0.5775
   89CHL1   C12 9023   6.249   6.168   7.709  0.1418  0.9133  0.5975
   89CHL1  H12A 9024   6.268   6.266   7.758  1.4213  0.2932  1.3902
   89CHL1  H12B 9025   6.336   6.104   7.739 -0.1463  0.3097  0.1462
   89CHL1   C11 9026   6.248   6.195   7.557  0.5015 -0.3545 -0.6115
   89CHL1  H11A 9027   6.199   6.295   7.560  0.6582 -0.2531 -1.3299
   89CHL1  H11B 9028   6.352   6.216   7.525  0.7020 -2.0811 -1.1359
   89CHL1    C9 9029   6.189   6.085   7.471  0.3261  0.2944  0.4825
   89CHL1    H9 9030   6.248   5.994   7.492 -1.6081 -1.1894 -0.3102
   89CHL1   C10 9031   6.197   6.116   7.319 -0.1184  0.2305  0.4460
   89CHL1   C19 9032   6.142   6.254   7.292  1.2347 -0.2566 -0.3029
   89CHL1  H19A 9033   6.203   6.330   7.344  2.2384 -0.2918 -1.3963
   89CHL1  H19B 9034   6.142   6.280   7.184 -2.0513 -1.0251 -0.5260
   89CHL1  H19C 9035   6.042   6.286   7.329  2.2153  0.8607  1.4398
   89CHL1    C1 9036   6.340   6.121   7.270 -0.0504  0.4033  0.5890
   89CHL1   H1A 9037   6.390   6.214   7.304 -0.2476  0.6693  0.1591
   89CHL1   H1B 9038   6.397   6.038   7.317 -1.9272 -1.1716  0.1406
   89CHL1    C2 9039   6.362   6.109   7.114 -0.0594  0.4998  0.1407
   89CHL1   H2A 9040   6.463   6.066   7.099 -0.0960  0.7342 -0.8138
   89CHL1   H2B 9041   6.357   6.205   7.058 -1.9605  0.1231 -0.3882
   89CHL1   C20 9042   6.156   6.124   8.010  0.4537  0.2379  0.4028
   89CHL1   H20 9043   6.204   6.220   7.981 -1.7068  1.3615  0.4343
   89CHL1   C21 9044   6.255   6.027   8.082  0.8565 -0.4191 -0.3466
   89CHL1  H21A 9045   6.347   6.005   8.023  2.4698 -0.3950  2.0613
   89CHL1  H21B 9046   6.207   5.931   8.110  0.0424  0.0839  0.0226
   89CHL1  H21C 9047   6.296   6.074   8.175  2.0835 -2.4702  0.1781
   89CHL1   C22 9048   6.033   6.169   8.088 -0.2370  0.0989 -0.5684
   89CHL1  H22A 9049   5.960   6.214   8.017  1.1064  1.7654 -0.9291
   89CHL1  H22B 9050   5.983   6.080   8.132  1.5195 -0.6223 -0.0012
   89CHL1   C23 9051   6.078   6.263   8.202  0.3362  0.2113  0.0401
   89CHL1  H23A 9052   6.160   6.228   8.270 -1.3689 -1.5062  1.2568
   89CHL1  H23B 9053   6.123   6.353   8.155  1.3714  1.4647  3.2673
   89CHL1   C24 9054   5.957   6.317   8.277 -0.4512  0.1487  0.8511
   89CHL1  H24A 9055   5.920   6.403   8.217 -1.3188 -1.2228 -0.6073
   89CHL1  H24B 9056   5.869   6.254   8.304 -1.3748  1.1356  0.1979
   89CHL1   C25 9057   5.981   6.389   8.415  0.6406 -0.5646 -0.1749
   89CHL1   H25 9058   5.885   6.428   8.456 -0.0930 -0.2265 -2.1515
   89CHL1   C26 9059   6.045   6.312   8.532 -0.0425 -0.9816 -0.3830
   89CHL1  H26A 9060   6.007   6.207   8.539 -2.2661 -0.0619  2.0046
   89CHL1  H26B 9061   6.155   6.319   8.522 -0.0293 -2.2562 -1.1834
   89CHL1  H26C 9062   6.024   6.362   8.629  1.4594  0.1392 -0.6248
   89CHL1   C27 9063   6.074   6.513   8.390  0.6670 -0.3449  0.0352
   89CHL1  H27A 9064   6.154   6.473   8.326 -0.0657  0.1269 -1.1905
   89CHL1  H27B 9065   6.015   6.590   8.336 -1.8157 -0.5609  2.2872
   89CHL1  H27C 9066   6.119   6.557   8.482  2.2235  0.9156 -1.3034
   90CHL1    C3 9067   0.044   1.400   7.118  0.2881  0.4512 -0.7548
   90CHL1    H3 9068   0.133   1.467   7.120  2.0246 -1.7662 -1.4192
   90CHL1    O3 9069   0.004   1.411   6.982 -0.8056  0.2272 -0.3849
   90CHL1   H3' 9070  -0.001   1.323   6.944 -0.5095  0.1632 -0.2737
   90CHL1    C4 9071   0.074   1.253   7.142  0.0666 -0.7421  0.1853
   90CHL1   H4A 9072  -0.014   1.188   7.122  1.0949 -2.0105 -0.2932
   90CHL1   H4B 9073   0.151   1.217   7.070  0.6715  2.2091 -0.7353
   90CHL1    C5 9074   0.110   1.225   7.285 -0.2440 -0.1573 -0.7600
   90CHL1    C6 9075   0.223   1.171   7.323  0.6999 -0.1201 -0.6535
   90CHL1    H6 9076   0.299   1.137   7.252  0.7250 -1.3173 -0.0830
   90CHL1    C7 9077   0.247   1.141   7.470  0.2868 -0.3989  0.7404
   90CHL1   H7A 9078   0.290   1.039   7.484  1.0761  0.0968  2.0400
   90CHL1   H7B 9079   0.309   1.222   7.514  1.4901 -0.1234 -1.4318
   90CHL1    C8 9080   0.118   1.139   7.568 -0.1195  0.4682  0.2891
   90CHL1    H8 9081   0.067   1.044   7.543 -0.0005  0.2691  0.8017
   90CHL1   C14 9082   0.156   1.134   7.716 -0.2825 -0.1901  0.1170
   90CHL1   H14 9083   0.206   1.229   7.745 -0.3700 -0.8231  2.4514
   90CHL1   C15 9084   0.255   1.027   7.745  0.6556  0.0793  0.8855
   90CHL1  H15A 9085   0.221   0.935   7.692 -1.5922 -0.5335  3.2894
   90CHL1  H15B 9086   0.359   1.052   7.716  0.1647 -0.5513 -1.5736
   90CHL1   C16 9087   0.244   1.016   7.895 -0.2923  0.1631 -0.7731
   90CHL1  H16A 9088   0.218   0.909   7.914 -0.6245  0.7184  2.0897
   90CHL1  H16B 9089   0.344   1.043   7.935 -0.6625 -0.8833  0.9142
   90CHL1   C17 9090   0.126   1.113   7.940 -0.4908  0.4583 -0.1196
   90CHL1   H17 9091   0.173   1.211   7.961  1.3132 -0.5411  0.6298
   90CHL1   C13 9092   0.044   1.125   7.812 -0.0188  0.1584  0.2957
   90CHL1   C18 9093  -0.045   1.002   7.786  0.0243  0.3828  0.3163
   90CHL1  H18A 9094  -0.122   1.004   7.866  0.7324  2.3208  1.0019
   90CHL1  H18B 9095  -0.094   1.018   7.688  1.7129 -0.0013 -0.6184
   90CHL1  H18C 9096   0.015   0.910   7.775  2.4814  1.8572  0.9360
   90CHL1   C12 9097  -0.038   1.250   7.782 -0.0845 -1.8476 -0.2250
   90CHL1  H12A 9098  -0.135   1.263   7.834 -0.5760 -2.6481 -0.9287
   90CHL1  H12B 9099   0.024   1.338   7.808 -1.0266 -1.1954 -0.1589
   90CHL1   C11 9100  -0.083   1.272   7.639 -1.0823  0.1862 -0.8132
   90CHL1  H11A 9101  -0.156   1.193   7.612 -1.1935 -0.8823  2.4007
   90CHL1  H11B 9102  -0.130   1.372   7.629 -3.0808 -0.3935  2.2449
   90CHL1    C9 9103   0.031   1.256   7.539 -0.0940 -0.5211  0.1798
   90CHL1    H9 9104   0.096   1.344   7.563 -1.4759  0.4229  0.5612
   90CHL1   C10 9105  -0.002   1.272   7.386 -0.3575  0.0875  0.6025
   90CHL1   C19 9106  -0.121   1.172   7.365 -0.0870 -0.6981 -0.4402
   90CHL1  H19A 9107  -0.162   1.169   7.262  1.7178 -4.3003 -1.1455
   90CHL1  H19B 9108  -0.081   1.069   7.381  2.1838 -0.0383 -1.5596
   90CHL1  H19C 9109  -0.215   1.187   7.422 -0.6220  1.1564 -1.7836
   90CHL1    C1 9110  -0.056   1.419   7.355 -0.2947 -0.1720 -0.0369
   90CHL1   H1A 9111  -0.147   1.443   7.415  0.7283  2.6237  0.4721
   90CHL1   H1B 9112   0.019   1.494   7.388 -0.7158 -0.4598  1.5990
   90CHL1    C2 9113  -0.075   1.435   7.210 -0.2500  0.4538  0.1441
   90CHL1   H2A 9114  -0.088   1.540   7.178 -3.1067  0.9926  2.8266
   90CHL1   H2B 9115  -0.155   1.368   7.170 -1.3009  1.4663  0.5418
   90CHL1   C20 9116   0.055   1.076   8.066  0.0646 -0.2299 -0.5050
   90CHL1   H20 9117  -0.006   0.984   8.050  0.4680 -0.2760 -1.7759
   90CHL1   C21 9118  -0.038   1.194   8.108 -0.5810  0.0474  0.4284
   90CHL1  H21A 9119  -0.101   1.165   8.195 -1.3839 -2.2424 -0.8735
   90CHL1  H21B 9120  -0.113   1.218   8.030 -0.5914 -0.4088  0.2984
   90CHL1  H21C 9121   0.024   1.278   8.147  0.2939  0.5188 -1.9221
   90CHL1   C22 9122   0.155   1.046   8.190  0.1558  0.0239  0.7352
   90CHL1  H22A 9123   0.245   0.987   8.161 -0.9908 -1.9084  1.0319
   90CHL1  H22B 9124   0.207   1.136   8.230  1.2047 -0.6376  0.8726
   90CHL1   C23 9125   0.089   0.965   8.309  0.9637  0.3966 -0.2771
   90CHL1  H23A 9126   0.021   1.041   8.352 -0.3681 -1.1180  0.3450
   90CHL1  H23B 9127   0.034   0.879   8.266 -1.3702  1.7674 -0.1256
   90CHL1   C24 9128   0.179   0.917   8.424 -0.2730  0.6461  0.0298
   90CHL1  H24A 9129   0.127   0.849   8.494  0.6680 -1.5235 -1.3247
   90CHL1  H24B 9130   0.253   0.854   8.369 -1.3214 -1.2892  0.7792
   90CHL1   C25 9131   0.245   1.026   8.506 -0.9055  0.1233 -0.2259
   90CHL1   H25 9132   0.267   1.114   8.442 -1.3649  1.1306  0.9920
   90CHL1   C26 9133   0.141   1.096   8.602 -0.0722  0.0818 -0.0165
   90CHL1  H26A 9134   0.183   1.199   8.608 -0.8591  0.3634  0.6825
   90CHL1  H26B 9135   0.037   1.098   8.564  0.3603  2.3512 -1.2486
   90CHL1  H26C 9136   0.139   1.050   8.703  0.4408  0.5730  0.2196
   90CHL1   C27 9137   0.374   0.978   8.579  0.4848 -1.3807  0.3638
   90CHL1  H27A 9138   0.447   0.960   8.498  1.3446 -1.8459  1.2287
   90CHL1  H27B 9139   0.425   1.057   8.638 -0.8123  1.0593 -1.6724
   90CHL1  H27C 9140   0.356   0.883   8.635  1.9351 -1.9494 -0.1211
   91CHL1    C3 9141   1.085   2.800   7.221  0.4442  0.1631  0.1254
   91CHL1    H3 9142   1.009   2.719   7.223 -2.3034  2.6974  2.0431
   91CHL1    O3 9143   1.105   2.825   7.085  0.0627  0.5418 -0.1824
   91CHL1   H3' 9144   1.052   2.900   7.056 -0.6450  0.0231 -0.2370
   91CHL1    C4 9145   1.031   2.922   7.303  0.4431 -0.1351 -0.1716
   91CHL1   H4A 9146   1.096   3.009   7.280  0.8905 -0.1491  0.9893
   91CHL1   H4B 9147   0.933   2.948   7.257 -0.6468  0.9352  2.6361
   91CHL1    C5 9148   1.024   2.887   7.451 -0.4748 -0.3245 -1.3376
   91CHL1    C6 9149   0.914   2.916   7.529 -0.6674  0.6267 -0.8049
   91CHL1    H6 9150   0.820   2.957   7.490 -0.5341  2.7942  0.9949
   91CHL1    C7 9151   0.914   2.913   7.678 -0.2924 -0.1391 -0.2231
   91CHL1   H7A 9152   0.873   3.008   7.720 -0.1449  0.4365 -1.3777
   91CHL1   H7B 9153   0.858   2.823   7.712 -0.3162 -0.9598 -2.3981
   91CHL1    C8 9154   1.052   2.903   7.744  0.8509  0.0125 -0.6303
   91CHL1    H8 9155   1.108   2.999   7.738 -0.1646  0.6527  0.1049
   91CHL1   C14 9156   1.043   2.850   7.889 -0.2707 -0.1929 -0.6206
   91CHL1   H14 9157   0.996   2.750   7.878 -2.7519  0.8419  0.3997
   91CHL1   C15 9158   0.952   2.929   7.988  1.0823 -0.0842 -0.2287
   91CHL1  H15A 9159   0.973   3.038   7.994 -1.3282  0.3765  0.0553
   91CHL1  H15B 9160   0.846   2.919   7.957  1.3714  0.9851 -1.6352
   91CHL1   C16 9161   0.975   2.868   8.126 -0.7146 -0.5352  0.4483
   91CHL1  H16A 9162   0.993   2.943   8.207  1.4341 -0.4245 -0.1052
   91CHL1  H16B 9163   0.893   2.799   8.157 -1.5171 -0.1957 -0.8832
   91CHL1   C17 9164   1.115   2.787   8.104  0.3156  0.1981  0.0345
   91CHL1   H17 9165   1.086   2.680   8.094  0.0471  0.4329 -1.8831
   91CHL1   C13 9166   1.174   2.835   7.966  0.0091  0.2694  0.2660
   91CHL1   C18 9167   1.252   2.966   7.985 -0.2459  0.4594 -0.7221
   91CHL1  H18A 9168   1.348   2.931   8.029 -0.8591  2.9429  2.8018
   91CHL1  H18B 9169   1.270   3.018   7.888  0.3608  2.8088  0.6086
   91CHL1  H18C 9170   1.214   3.038   8.061  0.7861 -1.7970  2.0144
   91CHL1   C12 9171   1.257   2.728   7.892  0.0009 -0.0347  0.1629
   91CHL1  H12A 9172   1.357   2.724   7.940  0.3145  1.4691 -0.3413
   91CHL1  H12B 9173   1.203   2.631   7.901 -1.3018  0.5832 -0.9415
   91CHL1   C11 9174   1.276   2.770   7.745 -0.3824 -0.2378  0.3743
   91CHL1  H11A 9175   1.342   2.859   7.745  1.1028 -1.3172 -1.5221
   91CHL1  H11B 9176   1.328   2.687   7.693  0.1414  1.3346 -1.6478
   91CHL1    C9 9177   1.143   2.805   7.668 -0.1333  0.1464  0.7117
   91CHL1    H9 9178   1.089   2.709   7.677 -0.2903  0.4390  3.2986
   91CHL1   C10 9179   1.152   2.845   7.517 -1.0818  0.0007  0.0608
   91CHL1   C19 9180   1.248   2.975   7.509  0.0293  0.6169 -0.4252
   91CHL1  H19A 9181   1.220   3.056   7.579  1.2158 -1.0254  2.0125
   91CHL1  H19B 9182   1.356   2.951   7.515 -0.3214 -0.5263  1.3287
   91CHL1  H19C 9183   1.252   3.037   7.416 -1.2892  0.2473 -0.7273
   91CHL1    C1 9184   1.201   2.727   7.432  0.2591  0.2404 -0.6777
   91CHL1   H1A 9185   1.295   2.695   7.481 -0.3406 -0.3054  0.1362
   91CHL1   H1B 9186   1.134   2.638   7.441  1.1254 -0.1730  2.1712
   91CHL1    C2 9187   1.218   2.747   7.281 -0.5695 -0.2584 -0.0581
   91CHL1   H2A 9188   1.246   2.649   7.236 -0.1590 -0.1921  0.0562
   91CHL1   H2B 9189   1.299   2.820   7.262 -1.3004  0.0058 -2.2547
   91CHL1   C20 9190   1.211   2.776   8.226  0.2698  0.7753  0.2155
   91CHL1   H20 9191   1.269   2.868   8.245  0.1843  0.3779  2.5150
   91CHL1   C21 9192   1.315   2.657   8.200 -0.7262 -0.2408  0.1645
   91CHL1  H21A 9193   1.271   2.573   8.143  0.0471 -0.8703  0.4760
   91CHL1  H21B 9194   1.354   2.614   8.295 -1.5311 -0.4883  0.3834
   91CHL1  H21C 9195   1.397   2.697   8.136  1.1187  0.7050  3.0090
   91CHL1   C22 9196   1.133   2.752   8.359  0.4411  0.1824 -0.1110
   91CHL1  H22A 9197   1.059   2.834   8.369  0.7695  0.4200  0.3957
   91CHL1  H22B 9198   1.080   2.654   8.355  1.9883 -0.6211 -1.2582
   91CHL1   C23 9199   1.218   2.765   8.488  0.0425 -0.4199  0.1341
   91CHL1  H23A 9200   1.255   2.663   8.510  1.5669  0.1019  0.0251
   91CHL1  H23B 9201   1.298   2.839   8.464 -1.2911  0.5423 -1.4241
   91CHL1   C24 9202   1.134   2.799   8.609  0.3909  0.1704 -0.4484
   91CHL1  H24A 9203   1.081   2.895   8.590 -1.6110 -1.1234 -1.5919
   91CHL1  H24B 9204   1.044   2.734   8.618  0.1400  0.3955 -1.2986
   91CHL1   C25 9205   1.219   2.796   8.740 -0.6069  0.0822 -0.5537
   91CHL1   H25 9206   1.275   2.700   8.741  0.5119  0.6916 -2.3767
   91CHL1   C26 9207   1.330   2.901   8.753  0.2133  0.5698 -0.8939
   91CHL1  H26A 9208   1.389   2.892   8.847  0.5294  0.9129 -1.0591
   91CHL1  H26B 9209   1.398   2.892   8.666  1.3762  0.2078  0.0339
   91CHL1  H26C 9210   1.296   3.007   8.747  1.3455  0.8871 -1.8875
   91CHL1   C27 9211   1.128   2.802   8.866 -0.6429  0.3660  0.1031
   91CHL1  H27A 9212   1.060   2.890   8.865 -0.7421  0.3032  1.0212
   91CHL1  H27B 9213   1.068   2.709   8.878 -1.0191  1.0184  3.7108
   91CHL1  H27C 9214   1.197   2.813   8.952 -0.9104  0.5487  0.2949
   92CHL1    C3 9215   3.899   4.326   6.761  0.6035  0.3011 -0.2176
   92CHL1    H3 9216   3.920   4.217   6.764 -1.9233 -0.2004  0.7945
   92CHL1    O3 9217   3.904   4.357   6.625  0.2944 -0.0930 -0.3802
   92CHL1   H3' 9218   3.897   4.453   6.622  0.6392 -0.0116  1.1381
   92CHL1    C4 9219   3.755   4.350   6.818 -0.2870 -0.2011 -0.2238
   92CHL1   H4A 9220   3.734   4.455   6.790  0.7812  0.2608  0.6671
   92CHL1   H4B 9221   3.677   4.284   6.774 -0.9809  0.9308 -0.7118
   92CHL1    C5 9222   3.757   4.344   6.974  0.9332  0.1828 -0.0266
   92CHL1    C6 9223   3.666   4.257   7.026 -0.5598 -0.1005  0.8203
   92CHL1    H6 9224   3.596   4.203   6.961  0.8021 -1.0035  0.0893
   92CHL1    C7 9225   3.658   4.222   7.173  0.0431 -0.0519  0.2424
   92CHL1   H7A 9226   3.557   4.209   7.218  0.1635  0.6327  0.7149
   92CHL1   H7B 9227   3.717   4.130   7.191  1.1979  0.5443 -0.4545
   92CHL1    C8 9228   3.736   4.332   7.258  0.2848  0.3638  0.8893
   92CHL1    H8 9229   3.674   4.424   7.268 -0.4459  0.1201 -1.1000
   92CHL1   C14 9230   3.752   4.275   7.395  0.4432 -0.1705 -0.1906
   92CHL1   H14 9231   3.827   4.194   7.380  1.4379  1.0319 -1.8904
   92CHL1   C15 9232   3.630   4.212   7.469  0.1874  0.1134 -0.4170
   92CHL1  H15A 9233   3.541   4.277   7.455  0.8047  0.7778 -1.2768
   92CHL1  H15B 9234   3.621   4.108   7.433  2.4882  0.1535 -1.1680
   92CHL1   C16 9235   3.673   4.207   7.616  0.3297 -0.2891  0.3485
   92CHL1  H16A 9236   3.605   4.277   7.669  2.4251  0.1426  2.5589
   92CHL1  H16B 9237   3.679   4.107   7.663 -0.8002 -0.2516  0.5942
   92CHL1   C17 9238   3.810   4.277   7.628  0.1988  0.5503  0.0323
   92CHL1   H17 9239   3.885   4.197   7.611 -0.5286 -0.1754  0.1846
   92CHL1   C13 9240   3.818   4.368   7.505  0.4179 -0.3328  0.2682
   92CHL1   C18 9241   3.746   4.506   7.529  0.1223 -0.1666 -0.5955
   92CHL1  H18A 9242   3.796   4.553   7.616 -0.8680 -1.9005  0.9452
   92CHL1  H18B 9243   3.744   4.576   7.443  0.0988  0.5367 -0.0195
   92CHL1  H18C 9244   3.644   4.490   7.569 -0.0824 -0.1066 -1.0888
   92CHL1   C12 9245   3.955   4.395   7.450  0.1439  0.2251 -0.2496
   92CHL1  H12A 9246   4.003   4.474   7.512  0.3481  1.8535 -2.4553
   92CHL1  H12B 9247   4.013   4.302   7.468 -0.3941 -0.3623 -1.4693
   92CHL1   C11 9248   3.951   4.451   7.301 -0.2076 -0.4137 -0.1735
   92CHL1  H11A 9249   3.913   4.555   7.296  0.6966 -0.0667  0.0933
   92CHL1  H11B 9250   4.056   4.459   7.263  0.2056 -1.4154  0.7211
   92CHL1    C9 9251   3.865   4.369   7.198 -0.1645  0.1038  0.5101
   92CHL1    H9 9252   3.916   4.270   7.194  0.3033  0.3859 -0.9043
   92CHL1   C10 9253   3.861   4.412   7.050  0.1662  1.1386  0.0510
   92CHL1   C19 9254   3.830   4.556   7.026 -0.0641 -0.0253  0.5477
   92CHL1  H19A 9255   3.887   4.620   7.097 -1.6408  1.3597  0.5891
   92CHL1  H19B 9256   3.851   4.591   6.923 -0.0286 -1.2335  0.1299
   92CHL1  H19C 9257   3.727   4.590   7.050  0.6304  1.2789  1.8245
   92CHL1    C1 9258   3.998   4.375   6.986 -0.8033 -0.6592 -0.3858
   92CHL1   H1A 9259   4.062   4.455   7.029 -1.7789  0.6933 -1.4087
   92CHL1   H1B 9260   4.030   4.273   7.015  1.9416  0.0205 -0.8147
   92CHL1    C2 9261   4.012   4.392   6.836  0.3910 -0.3977 -0.0456
   92CHL1   H2A 9262   4.112   4.360   6.802  0.1601 -0.6210 -0.5172
   92CHL1   H2B 9263   3.997   4.501   6.821  0.6285  0.1590  3.4126
   92CHL1   C20 9264   3.832   4.326   7.765 -0.3562  0.2353 -0.5196
   92CHL1   H20 9265   3.771   4.419   7.771 -0.1456  0.4081 -1.0060
   92CHL1   C21 9266   3.974   4.379   7.787  0.8100  0.2997  0.4027
   92CHL1  H21A 9267   4.003   4.420   7.886  0.2963 -1.0045  1.0984
   92CHL1  H21B 9268   3.991   4.462   7.715 -0.6031  0.8356  0.6863
   92CHL1  H21C 9269   4.042   4.296   7.756  1.0910  0.9810 -0.8652
   92CHL1   C22 9270   3.780   4.233   7.880 -0.0224 -0.0094 -0.8008
   92CHL1  H22A 9271   3.671   4.211   7.876  0.6168 -3.6812  0.7660
   92CHL1  H22B 9272   3.835   4.141   7.853 -1.0621 -0.5348 -1.1630
   92CHL1   C23 9273   3.815   4.261   8.024 -0.0193 -0.8234 -0.1324
   92CHL1  H23A 9274   3.926   4.254   8.030  0.2379 -0.1914 -3.2229
   92CHL1  H23B 9275   3.779   4.357   8.065  1.1770 -0.0877 -0.7706
   92CHL1   C24 9276   3.764   4.148   8.107  0.3321 -0.0925 -0.3948
   92CHL1  H24A 9277   3.653   4.140   8.105  0.4650 -2.2561 -0.3472
   92CHL1  H24B 9278   3.798   4.051   8.065  0.2656  0.3575 -1.5100
   92CHL1   C25 9279   3.817   4.161   8.251 -0.2400 -0.2243 -0.6160
   92CHL1   H25 9280   3.786   4.260   8.290 -1.9625 -0.1084 -2.1798
   92CHL1   C26 9281   3.741   4.066   8.342  0.5245 -0.2687  0.0440
   92CHL1  H26A 9282   3.755   4.098   8.447  3.8162 -0.2835 -0.3426
   92CHL1  H26B 9283   3.633   4.077   8.321  0.6165  1.1726  0.3275
   92CHL1  H26C 9284   3.761   3.958   8.322 -0.5704 -0.2337 -1.2915
   92CHL1   C27 9285   3.971   4.132   8.271 -0.1697  0.0991 -0.0701
   92CHL1  H27A 9286   4.003   4.109   8.375 -0.1086  0.1124 -0.0855
   92CHL1  H27B 9287   3.990   4.039   8.213  2.4099  0.7566 -0.3677
   92CHL1  H27C 9288   4.023   4.220   8.229 -3.4751  1.6015 -1.1630
   93CHL1    C3 9289   2.512   2.165   6.971 -0.4264 -0.0738 -0.9428
   93CHL1    H3 9290   2.589   2.236   6.934 -1.9551  1.9775 -0.2717
   93CHL1    O3 9291   2.448   2.125   6.849  0.3390  0.2614  0.5644
   93CHL1   H3' 9292   2.358   2.157   6.855  0.3527  0.1962  1.1719
   93CHL1    C4 9293   2.576   2.045   7.040  0.6965 -0.4638 -0.5627
   93CHL1   H4A 9294   2.499   1.965   7.043  2.8518 -2.5697 -0.7989
   93CHL1   H4B 9295   2.647   2.005   6.965  0.7071  0.2047 -0.9142
   93CHL1    C5 9296   2.634   2.076   7.179  0.6577  0.1843  0.9440
   93CHL1    C6 9297   2.759   2.051   7.205  0.4182  0.2623 -0.9083
   93CHL1    H6 9298   2.813   2.000   7.124  0.1561  0.2328 -1.0622
   93CHL1    C7 9299   2.821   2.083   7.336 -0.1470  0.9196  0.7352
   93CHL1   H7A 9300   2.903   2.013   7.363 -0.2282  0.3428 -0.4635
   93CHL1   H7B 9301   2.873   2.179   7.314  1.4430  0.1002  0.8776
   93CHL1    C8 9302   2.718   2.115   7.447  0.2341 -0.4097 -0.0099
   93CHL1    H8 9303   2.670   2.016   7.460 -2.4912  1.2799  3.9774
   93CHL1   C14 9304   2.788   2.170   7.573  0.1138 -0.3299  0.7615
   93CHL1   H14 9305   2.838   2.265   7.544  0.3119 -0.1864  1.5545
   93CHL1   C15 9306   2.897   2.079   7.633 -0.4220 -0.1040  0.6053
   93CHL1  H15A 9307   2.858   1.976   7.647  2.9623 -1.6937 -1.0747
   93CHL1  H15B 9308   2.991   2.070   7.575 -1.1523 -0.9436 -0.4798
   93CHL1   C16 9309   2.925   2.136   7.771  0.3047 -0.6191 -0.4931
   93CHL1  H16A 9310   2.912   2.056   7.846 -0.6715  0.7950  0.8840
   93CHL1  H16B 9311   3.030   2.168   7.790  0.8627 -3.5048  1.6292
   93CHL1   C17 9312   2.815   2.246   7.800 -1.1922  0.3588  0.0537
   93CHL1   H17 9313   2.865   2.342   7.775  1.0922 -1.4323 -2.5967
   93CHL1   C13 9314   2.702   2.207   7.692 -0.7688  0.3794  0.1885
   93CHL1   C18 9315   2.629   2.083   7.742  0.3700 -0.6316  0.6397
   93CHL1  H18A 9316   2.572   2.044   7.655 -0.5498 -0.3361  1.1058
   93CHL1  H18B 9317   2.702   2.009   7.781  0.9928  0.3847  1.4188
   93CHL1  H18C 9318   2.566   2.120   7.826  0.4702  1.2877 -0.1017
   93CHL1   C12 9319   2.606   2.310   7.639 -0.7189  0.0655  0.1526
   93CHL1  H12A 9320   2.527   2.334   7.714 -0.0687  0.1489  0.8068
   93CHL1  H12B 9321   2.658   2.404   7.613  0.9347 -1.4886 -2.3433
   93CHL1   C11 9322   2.528   2.265   7.506  0.0298 -0.5080  0.7152
   93CHL1  H11A 9323   2.453   2.192   7.543 -1.1206  0.6218  0.6377
   93CHL1  H11B 9324   2.479   2.354   7.461 -2.5010 -0.7052  2.9470
   93CHL1    C9 9325   2.613   2.208   7.402  0.4325 -0.3302  0.5152
   93CHL1    H9 9326   2.662   2.301   7.365 -0.0981  0.3517  1.5003
   93CHL1   C10 9327   2.538   2.150   7.277  0.3665 -0.1422 -0.0656
   93CHL1   C19 9328   2.435   2.044   7.320 -0.0449 -0.2667  0.2722
   93CHL1  H19A 9329   2.351   2.095   7.371 -0.8054  0.1828 -1.4091
   93CHL1  H19B 9330   2.401   1.990   7.229 -0.7996  1.5731 -0.5448
   93CHL1  H19C 9331   2.474   1.966   7.389  0.5368  0.5371  0.8585
   93CHL1    C1 9332   2.470   2.269   7.200  0.9883  0.7362 -0.4419
   93CHL1   H1A 9333   2.390   2.323   7.255 -0.0559 -0.6944 -0.5381
   93CHL1   H1B 9334   2.557   2.334   7.175  1.2935  0.6741  0.4430
   93CHL1    C2 9335   2.412   2.237   7.060 -0.1967 -0.0004  0.3380
   93CHL1   H2A 9336   2.375   2.329   7.010 -0.5425 -0.5387 -0.4102
   93CHL1   H2B 9337   2.332   2.163   7.085  1.1265 -0.9403  1.8681
   93CHL1   C20 9338   2.771   2.247   7.947  0.6262  0.1946 -0.6718
   93CHL1   H20 9339   2.723   2.150   7.972  2.6181 -0.9853 -1.2965
   93CHL1   C21 9340   2.665   2.362   7.966 -0.6496 -0.2208  0.3301
   93CHL1  H21A 9341   2.567   2.329   7.927 -0.0103 -0.2404 -1.2844
   93CHL1  H21B 9342   2.690   2.456   7.912 -0.2705  0.5482  1.8176
   93CHL1  H21C 9343   2.656   2.391   8.073  2.7136 -0.9452  0.8740
   93CHL1   C22 9344   2.889   2.274   8.041 -0.4483  0.0816 -0.4789
   93CHL1  H22A 9345   2.973   2.207   8.014 -1.4871 -1.5754  0.2566
   93CHL1  H22B 9346   2.921   2.380   8.033  1.7726 -0.6004 -0.8984
   93CHL1   C23 9347   2.857   2.246   8.190  0.3559 -0.0301 -0.0554
   93CHL1  H23A 9348   2.887   2.327   8.260  0.4898 -0.5975  0.5529
   93CHL1  H23B 9349   2.747   2.241   8.202  0.5341 -0.9558  1.3739
   93CHL1   C24 9350   2.927   2.120   8.244 -0.7975  0.0762  0.1272
   93CHL1  H24A 9351   2.917   2.026   8.186  2.2452  1.1324 -2.2432
   93CHL1  H24B 9352   3.034   2.145   8.233 -0.7331 -0.1866  0.1564
   93CHL1   C25 9353   2.899   2.095   8.389 -0.7156 -0.0756  0.1087
   93CHL1   H25 9354   2.945   1.997   8.413  0.4871  0.5795  0.5004
   93CHL1   C26 9355   2.965   2.193   8.491  0.0655  0.4298  0.2124
   93CHL1  H26A 9356   3.074   2.175   8.484 -0.1519 -1.2150  0.8372
   93CHL1  H26B 9357   2.934   2.298   8.472 -1.2642 -0.0777 -0.5824
   93CHL1  H26C 9358   2.932   2.168   8.594 -1.0453 -0.9398 -0.4485
   93CHL1   C27 9359   2.746   2.067   8.411 -0.5287 -0.3953 -0.3149
   93CHL1  H27A 9360   2.676   2.149   8.384  0.2590  0.0430 -1.0482
   93CHL1  H27B 9361   2.730   1.981   8.343 -0.7225 -0.8045  0.2393
   93CHL1  H27C 9362   2.725   2.032   8.514 -0.5497 -1.8166 -0.7931
   94CHL1    C3 9363   4.809   5.083   6.827 -0.5018  0.1573 -0.4977
   94CHL1    H3 9364   4.913   5.110   6.854 -0.5403 -1.3066  1.2106
   94CHL1    O3 9365   4.798   5.091   6.685  0.4033 -0.2376 -0.1494
   94CHL1   H3' 9366   4.736   5.019   6.670  0.0799 -0.0227  0.1623
   94CHL1    C4 9367   4.782   4.948   6.881 -0.0246  0.0110  0.1315
   94CHL1   H4A 9368   4.679   4.927   6.847  0.3539 -0.2067 -0.8983
   94CHL1   H4B 9369   4.853   4.875   6.836  0.7590  0.0717  1.2484
   94CHL1    C5 9370   4.775   4.945   7.037  0.1154 -0.0547  0.4654
   94CHL1    C6 9371   4.855   4.867   7.115 -0.6380  0.3604  0.3026
   94CHL1    H6 9372   4.938   4.814   7.067 -1.0683 -0.2748  0.2629
   94CHL1    C7 9373   4.839   4.852   7.264  0.5065 -0.3533  0.4981
   94CHL1   H7A 9374   4.847   4.745   7.292  1.4533 -0.5755 -0.5851
   94CHL1   H7B 9375   4.908   4.905   7.333 -0.0487  0.1269  0.6820
   94CHL1    C8 9376   4.697   4.914   7.305 -0.0814 -0.3468 -0.8386
   94CHL1    H8 9377   4.618   4.847   7.264  2.2799 -3.8836  0.1883
   94CHL1   C14 9378   4.700   4.922   7.460  0.2243 -0.8065 -0.1709
   94CHL1   H14 9379   4.790   4.980   7.491 -0.8973  0.4200  0.8804
   94CHL1   C15 9380   4.724   4.793   7.537 -0.6410  0.1243  0.0536
   94CHL1  H15A 9381   4.674   4.707   7.487  1.6948 -0.3674 -1.5268
   94CHL1  H15B 9382   4.834   4.780   7.539 -0.6892 -0.6906 -1.6312
   94CHL1   C16 9383   4.668   4.820   7.672  0.8662 -0.4503  0.1015
   94CHL1  H16A 9384   4.592   4.745   7.702  0.5150  0.4830  1.5737
   94CHL1  H16B 9385   4.745   4.825   7.752  0.8185  0.1695  0.1145
   94CHL1   C17 9386   4.603   4.970   7.668  0.0992  0.4437  0.7013
   94CHL1   H17 9387   4.690   5.034   7.696 -0.6194  0.6546  2.5228
   94CHL1   C13 9388   4.570   4.989   7.522  0.2686  0.0847 -0.0415
   94CHL1   C18 9389   4.442   4.900   7.485  0.3514  0.3871 -0.4944
   94CHL1  H18A 9390   4.426   4.875   7.378  0.1952  0.5308 -0.5053
   94CHL1  H18B 9391   4.435   4.801   7.534  2.3042  1.2381  1.5938
   94CHL1  H18C 9392   4.351   4.960   7.504 -1.2711 -1.5174 -2.0737
   94CHL1   C12 9393   4.573   5.134   7.470  0.1345 -0.0782  0.5374
   94CHL1  H12A 9394   4.500   5.208   7.511  0.2096  0.3566 -0.0868
   94CHL1  H12B 9395   4.670   5.181   7.497  0.0670 -0.4028  1.3450
   94CHL1   C11 9396   4.566   5.141   7.318 -0.2186 -0.5296 -0.7760
   94CHL1  H11A 9397   4.466   5.097   7.296 -1.6217  1.0949  2.0622
   94CHL1  H11B 9398   4.553   5.248   7.289 -1.0734 -0.8385 -1.5854
   94CHL1    C9 9399   4.680   5.054   7.256  0.9839  0.6368  0.3196
   94CHL1    H9 9400   4.779   5.098   7.282  1.0748  0.8063 -0.3000
   94CHL1   C10 9401   4.680   5.049   7.098  0.4568  0.7919 -0.4577
   94CHL1   C19 9402   4.541   4.998   7.053  0.9462 -0.0490 -0.1871
   94CHL1  H19A 9403   4.507   4.905   7.103 -0.6018 -0.1019 -1.3341
   94CHL1  H19B 9404   4.460   5.070   7.078  1.6743  1.0567 -0.9402
   94CHL1  H19C 9405   4.522   4.976   6.946  2.3221 -1.4833 -0.1608
   94CHL1    C1 9406   4.710   5.189   7.044 -0.1381 -0.2151  0.4156
   94CHL1   H1A 9407   4.624   5.253   7.077 -0.4281  0.7363 -2.0816
   94CHL1   H1B 9408   4.811   5.218   7.078  0.3529  0.5015 -1.6067
   94CHL1    C2 9409   4.707   5.184   6.888 -0.1747  0.0711 -0.5112
   94CHL1   H2A 9410   4.739   5.286   6.858 -0.2359  0.4441  0.6644
   94CHL1   H2B 9411   4.607   5.161   6.846  1.3347 -1.4025 -3.4658
   94CHL1   C20 9412   4.496   4.995   7.772 -0.5728  0.2968  1.0504
   94CHL1   H20 9413   4.419   4.915   7.767  0.8055 -0.9188 -2.7061
   94CHL1   C21 9414   4.426   5.130   7.753  0.0345  0.3265  0.5172
   94CHL1  H21A 9415   4.498   5.214   7.748  0.7373 -0.2332  1.2148
   94CHL1  H21B 9416   4.349   5.149   7.832 -0.7038  0.2609 -0.1830
   94CHL1  H21C 9417   4.381   5.125   7.652 -1.4684  2.4065  1.0320
   94CHL1   C22 9418   4.553   4.974   7.917 -0.1422 -0.5288 -0.6183
   94CHL1  H22A 9419   4.589   4.870   7.937  0.3476 -0.1437  0.5720
   94CHL1  H22B 9420   4.635   5.047   7.931 -1.4236  0.5797  1.3658
   94CHL1   C23 9421   4.442   4.999   8.024 -0.5563  0.5951  0.0510
   94CHL1  H23A 9422   4.403   5.103   8.033  1.5941  1.5724 -1.5176
   94CHL1  H23B 9423   4.358   4.931   7.998  0.7752 -0.5225 -1.4059
   94CHL1   C24 9424   4.496   4.957   8.161  0.1616 -0.6372 -0.8393
   94CHL1  H24A 9425   4.420   4.979   8.239 -0.9032 -0.4217 -1.9207
   94CHL1  H24B 9426   4.517   4.849   8.147  1.2960 -0.7011  1.1304
   94CHL1   C25 9427   4.627   5.032   8.208  0.1825  0.2041  0.2741
   94CHL1   H25 9428   4.702   5.037   8.126  1.3431 -0.5429  1.2616
   94CHL1   C26 9429   4.605   5.181   8.251 -0.2137  0.5404  0.1799
   94CHL1  H26A 9430   4.696   5.211   8.308 -0.4301  0.8302  0.3661
   94CHL1  H26B 9431   4.594   5.240   8.157  0.1870  0.0775 -0.1684
   94CHL1  H26C 9432   4.514   5.204   8.310  0.0956 -1.7231  1.5864
   94CHL1   C27 9433   4.694   4.953   8.324 -0.1034 -0.0895  0.8475
   94CHL1  H27A 9434   4.693   4.843   8.310  0.7528 -0.4747  3.6129
   94CHL1  H27B 9435   4.800   4.986   8.326 -0.1990  0.3076 -0.1612
   94CHL1  H27C 9436   4.653   4.987   8.422 -1.5258 -1.4144  0.7273
   95CHL1    C3 9437   4.508   4.102   6.577 -0.6131 -0.2299  0.1707
   95CHL1    H3 9438   4.599   4.048   6.544 -0.9710  0.9349 -2.9457
   95CHL1    O3 9439   4.446   4.150   6.457 -0.0348  0.0804 -0.0653
   95CHL1   H3' 9440   4.420   4.074   6.405 -2.6857  1.0507 -0.2692
   95CHL1    C4 9441   4.407   4.016   6.653  0.3151 -0.4361 -0.1771
   95CHL1   H4A 9442   4.314   4.075   6.663  1.5451  1.3561  0.7889
   95CHL1   H4B 9443   4.359   3.946   6.581 -0.5941  1.4968 -1.4920
   95CHL1    C5 9444   4.470   3.948   6.772  0.3789  0.7712 -0.1367
   95CHL1    C6 9445   4.482   3.814   6.798 -0.0032 -0.4463  1.1994
   95CHL1    H6 9446   4.431   3.739   6.736  0.5223  0.2754 -0.1192
   95CHL1    C7 9447   4.552   3.758   6.926 -0.1588 -0.0191  0.6628
   95CHL1   H7A 9448   4.504   3.663   6.959  0.4137 -0.5648 -0.0694
   95CHL1   H7B 9449   4.656   3.734   6.898 -0.7277 -0.4896 -1.1223
   95CHL1    C8 9450   4.565   3.866   7.041 -0.1835  0.2677  0.5769
   95CHL1    H8 9451   4.472   3.875   7.100 -0.3394  1.3109  0.1764
   95CHL1   C14 9452   4.677   3.811   7.131 -0.1263  0.8010 -0.1239
   95CHL1   H14 9453   4.776   3.808   7.079 -0.8349  0.6023 -1.5008
   95CHL1   C15 9454   4.667   3.663   7.186 -0.3992  0.2856 -0.3457
   95CHL1  H15A 9455   4.567   3.643   7.231 -0.0626  1.5842  1.0392
   95CHL1  H15B 9456   4.684   3.582   7.112  0.8693 -0.9388  1.2546
   95CHL1   C16 9457   4.760   3.665   7.316  0.3260  0.2544 -0.3241
   95CHL1  H16A 9458   4.692   3.629   7.397 -0.0351 -0.7669 -1.0647
   95CHL1  H16B 9459   4.854   3.605   7.310  0.7831  0.8108  1.1113
   95CHL1   C17 9460   4.806   3.815   7.334 -0.0495  0.5521  0.5958
   95CHL1   H17 9461   4.893   3.820   7.264 -0.4899  0.7567  0.0631
   95CHL1   C13 9462   4.703   3.900   7.255 -0.2352 -0.2487 -0.3821
   95CHL1   C18 9463   4.569   3.906   7.332 -0.0235  0.3144  0.4181
   95CHL1  H18A 9464   4.590   3.978   7.414  1.2176  0.2977  0.1351
   95CHL1  H18B 9465   4.484   3.951   7.277 -0.0416 -0.9005 -0.5505
   95CHL1  H18C 9466   4.537   3.812   7.380 -1.1284 -1.2193 -3.1660
   95CHL1   C12 9467   4.757   4.035   7.198 -0.0703  0.1018  0.1608
   95CHL1  H12A 9468   4.773   4.112   7.276  1.5355 -0.1152  0.0737
   95CHL1  H12B 9469   4.856   4.024   7.148 -0.2196 -0.3750 -0.0399
   95CHL1   C11 9470   4.659   4.092   7.092 -0.2331  0.3609  0.0036
   95CHL1  H11A 9471   4.572   4.119   7.156 -0.0215 -1.5351  1.1335
   95CHL1  H11B 9472   4.693   4.189   7.051 -1.3725  0.2053 -1.3269
   95CHL1    C9 9473   4.617   3.995   6.983 -0.1520  0.4193  0.8537
   95CHL1    H9 9474   4.709   3.963   6.929  0.4235  0.5068  1.7610
   95CHL1   C10 9475   4.522   4.054   6.874 -0.2465 -0.1065  0.3602
   95CHL1   C19 9476   4.404   4.118   6.944  0.1266 -0.3942 -0.0242
   95CHL1  H19A 9477   4.444   4.200   7.008  2.4724 -1.2588 -0.3306
   95CHL1  H19B 9478   4.345   4.173   6.868 -0.4598  1.6698  1.8676
   95CHL1  H19C 9479   4.341   4.045   6.999 -2.9051  1.1282 -1.3633
   95CHL1    C1 9480   4.610   4.152   6.794 -0.9273 -0.2553 -0.9237
   95CHL1   H1A 9481   4.625   4.243   6.856  1.7504 -1.7395  0.6880
   95CHL1   H1B 9482   4.705   4.101   6.767  0.0676  2.1913 -2.2209
   95CHL1    C2 9483   4.546   4.212   6.669 -0.0578 -0.0739 -0.1781
   95CHL1   H2A 9484   4.619   4.279   6.619 -0.0491  0.2517  0.2637
   95CHL1   H2B 9485   4.458   4.270   6.702 -0.7146  1.0369 -3.6480
   95CHL1   C20 9486   4.846   3.861   7.473  0.2643 -0.9341  0.6117
   95CHL1   H20 9487   4.813   3.963   7.500 -3.0305 -2.2686  1.8896
   95CHL1   C21 9488   5.004   3.872   7.485  0.1728  0.7610  0.1534
   95CHL1  H21A 9489   5.034   3.916   7.583  1.2219  2.0922 -0.7455
   95CHL1  H21B 9490   5.033   3.943   7.404  1.9208 -0.4634 -0.3147
   95CHL1  H21C 9491   5.058   3.775   7.475 -0.2943  0.3392  1.6451
   95CHL1   C22 9492   4.785   3.778   7.581 -0.3040  0.6599 -0.7977
   95CHL1  H22A 9493   4.676   3.787   7.566 -0.4797  1.2977  0.7742
   95CHL1  H22B 9494   4.819   3.673   7.566 -0.6243  0.4747 -0.2402
   95CHL1   C23 9495   4.794   3.815   7.729 -0.4487  0.0151 -0.1986
   95CHL1  H23A 9496   4.761   3.725   7.785  0.3286 -2.1519 -3.0770
   95CHL1  H23B 9497   4.901   3.827   7.755 -0.4282  0.6045 -0.5537
   95CHL1   C24 9498   4.693   3.920   7.772 -0.4752 -0.2504 -0.6831
   95CHL1  H24A 9499   4.697   4.003   7.698  0.6943  0.5389  0.2581
   95CHL1  H24B 9500   4.589   3.882   7.762 -1.3563  0.7124  3.8049
   95CHL1   C25 9501   4.714   3.977   7.908 -0.3164  0.3068 -0.7191
   95CHL1   H25 9502   4.811   4.030   7.894 -1.3204  2.7009  1.1344
   95CHL1   C26 9503   4.609   4.084   7.938 -0.5968  0.2271  0.0735
   95CHL1  H26A 9504   4.514   4.032   7.963  0.0479 -1.5018 -0.9949
   95CHL1  H26B 9505   4.637   4.154   8.020  0.1217 -0.7504  0.6651
   95CHL1  H26C 9506   4.590   4.148   7.849  0.2408  0.4038  0.0227
   95CHL1   C27 9507   4.715   3.875   8.021 -0.4008  0.3694  0.6294
   95CHL1  H27A 9508   4.733   3.928   8.117 -0.1961 -1.0355  1.3814
   95CHL1  H27B 9509   4.615   3.827   8.010  0.3548 -1.0891 -0.0235
   95CHL1  H27C 9510   4.792   3.796   8.011 -0.0566  0.7289  0.4621
   96CHL1    C3 9511   4.823   3.033   6.691 -0.2163 -0.4151  0.2080
   96CHL1    H3 9512   4.811   2.923   6.680  2.0427 -0.7464  0.7877
   96CHL1    O3 9513   4.868   3.080   6.564  0.1464  0.0720 -0.2099
   96CHL1   H3' 9514   4.887   3.173   6.583  1.8006 -0.5489  1.3020
   96CHL1    C4 9515   4.699   3.109   6.722 -0.1804 -0.6097 -0.9499
   96CHL1   H4A 9516   4.716   3.214   6.692 -2.7335  0.0465 -0.2290
   96CHL1   H4B 9517   4.619   3.080   6.650  0.6220 -0.6634 -1.8319
   96CHL1    C5 9518   4.641   3.112   6.861 -0.0368 -0.1404  0.3719
   96CHL1    C6 9519   4.520   3.091   6.900  0.6541  0.9854 -0.1540
   96CHL1    H6 9520   4.454   3.055   6.819  0.6426 -0.3868  0.4577
   96CHL1    C7 9521   4.477   3.093   7.046 -0.2679 -0.0473 -0.3068
   96CHL1   H7A 9522   4.376   3.135   7.064  0.0937  0.7231 -0.0565
   96CHL1   H7B 9523   4.470   2.985   7.073  0.7589 -0.0346  0.0457
   96CHL1    C8 9524   4.576   3.149   7.149  0.2087 -0.4958  0.3002
   96CHL1    H8 9525   4.566   3.260   7.147  1.4546 -0.3775 -0.0709
   96CHL1   C14 9526   4.540   3.094   7.285 -0.1499 -0.2427  0.1648
   96CHL1   H14 9527   4.563   2.985   7.282 -0.5954 -0.3317  0.0364
   96CHL1   C15 9528   4.398   3.106   7.327  0.8105  0.1509 -0.6753
   96CHL1  H15A 9529   4.363   3.209   7.306  0.0345 -0.2514 -1.3589
   96CHL1  H15B 9530   4.336   3.027   7.281  0.7014  0.5518 -1.2177
   96CHL1   C16 9531   4.398   3.086   7.482 -0.4588 -0.6278 -0.0589
   96CHL1  H16A 9532   4.355   3.174   7.534  1.6805  0.8900 -0.7786
   96CHL1  H16B 9533   4.346   2.991   7.507  0.6582 -1.4113 -0.6286
   96CHL1   C17 9534   4.549   3.071   7.521  1.1863 -0.2343  0.2855
   96CHL1   H17 9535   4.570   2.962   7.516 -0.4490 -0.5191 -0.6955
   96CHL1   C13 9536   4.628   3.143   7.397  0.0802  0.1572 -0.1289
   96CHL1   C18 9537   4.620   3.295   7.413  0.4826 -0.2603 -0.3732
   96CHL1  H18A 9538   4.682   3.331   7.498 -0.3456 -1.2858  0.6846
   96CHL1  H18B 9539   4.659   3.345   7.322 -0.2001  0.5893 -0.2051
   96CHL1  H18C 9540   4.514   3.325   7.427  0.8373  1.3377 -0.9636
   96CHL1   C12 9541   4.772   3.098   7.356 -0.2408 -0.3774  0.1527
   96CHL1  H12A 9542   4.827   3.155   7.434  1.5791 -0.9800 -0.6711
   96CHL1  H12B 9543   4.787   2.992   7.383  1.3237  0.6399  3.6555
   96CHL1   C11 9544   4.820   3.142   7.223 -0.2109  0.2449 -0.1434
   96CHL1  H11A 9545   4.838   3.252   7.218  0.0028  0.1280 -2.5159
   96CHL1  H11B 9546   4.919   3.094   7.210 -0.7860 -0.8913 -0.3404
   96CHL1    C9 9547   4.721   3.106   7.111 -1.2744 -1.2507 -0.1270
   96CHL1    H9 9548   4.724   2.995   7.114  0.1610 -1.2331 -0.9665
   96CHL1   C10 9549   4.760   3.138   6.968  0.0979 -0.2937  0.4002
   96CHL1   C19 9550   4.799   3.286   6.964 -0.1367 -0.3706  0.3381
   96CHL1  H19A 9551   4.891   3.293   7.026 -0.5458  0.5195  0.8586
   96CHL1  H19B 9552   4.822   3.328   6.864 -0.0608  2.5549  1.5182
   96CHL1  H19C 9553   4.721   3.350   7.011  0.9678  1.0845  0.2439
   96CHL1    C1 9554   4.886   3.053   6.937 -0.4745 -0.2225  0.7818
   96CHL1   H1A 9555   4.969   3.057   7.011  1.8339 -1.3441 -1.6307
   96CHL1   H1B 9556   4.863   2.945   6.949  2.8433 -1.1206 -0.4127
   96CHL1    C2 9557   4.935   3.066   6.797 -0.3432 -0.5674  0.7185
   96CHL1   H2A 9558   5.016   2.992   6.778  2.0311  2.7835 -3.2063
   96CHL1   H2B 9559   4.978   3.167   6.779 -0.2777 -1.1989 -3.0254
   96CHL1   C20 9560   4.585   3.122   7.665 -1.2592 -0.0186  0.4938
   96CHL1   H20 9561   4.586   3.232   7.647 -2.0897  0.0223  0.6867
   96CHL1   C21 9562   4.726   3.067   7.693 -0.4073 -0.2541 -0.6501
   96CHL1  H21A 9563   4.725   2.964   7.733 -2.1833 -0.2634 -0.6827
   96CHL1  H21B 9564   4.787   3.134   7.758 -0.1947 -0.3022 -0.7995
   96CHL1  H21C 9565   4.791   3.068   7.603  1.4194 -6.3508  0.3668
   96CHL1   C22 9566   4.495   3.103   7.781 -0.2365 -0.3900 -0.4774
   96CHL1  H22A 9567   4.546   3.120   7.878  0.9863 -1.1865 -0.9651
   96CHL1  H22B 9568   4.412   3.177   7.782 -0.9882 -1.1783 -2.1993
   96CHL1   C23 9569   4.436   2.968   7.797 -0.3233  0.3073  0.2994
   96CHL1  H23A 9570   4.360   2.937   7.721  1.0769 -1.1581 -0.5428
   96CHL1  H23B 9571   4.528   2.905   7.794  1.1029  2.3384  0.5193
   96CHL1   C24 9572   4.376   2.946   7.931  0.6424  0.8286  0.1888
   96CHL1  H24A 9573   4.458   2.966   8.004 -1.7950  3.0369  2.4144
   96CHL1  H24B 9574   4.298   3.023   7.953 -0.3658  0.3650 -1.6244
   96CHL1   C25 9575   4.338   2.799   7.952  0.1114  0.3020  0.0595
   96CHL1   H25 9576   4.429   2.735   7.943 -0.2801 -0.5303  1.8614
   96CHL1   C26 9577   4.290   2.768   8.093  1.2519 -0.2625 -0.5929
   96CHL1  H26A 9578   4.355   2.813   8.171 -0.8172  0.8730  0.4954
   96CHL1  H26B 9579   4.191   2.815   8.109  0.2551 -2.6529  0.6526
   96CHL1  H26C 9580   4.272   2.659   8.108 -0.9321  0.2219  0.3711
   96CHL1   C27 9581   4.228   2.750   7.851  0.0772 -0.1893 -0.1553
   96CHL1  H27A 9582   4.160   2.830   7.815 -1.9343 -1.3767  0.9504
   96CHL1  H27B 9583   4.265   2.709   7.754  2.2907 -2.1427  1.4407
   96CHL1  H27C 9584   4.174   2.661   7.889 -0.5110 -0.1747 -0.9578
   97OSM      N 9585   1.994   3.572  11.494  0.0939  0.1040  0.8020
   97OSM    C15 9586   1.875   3.481  11.498 -0.0419 -0.1725  0.4407
   97OSM   H15A 9587   1.905   3.379  11.484  1.6982  0.3301  0.4037
   97OSM   H15B 9588   1.798   3.507  11.427  1.2697  1.2392 -0.4917
   97OSM   H15C 9589   1.814   3.482  11.588 -1.5564  0.7285 -0.5704
   97OSM    C14 9590   1.952   3.707  11.446 -0.2464 -0.0872 -0.5156
   97OSM   H14A 9591   2.035   3.776  11.436  0.7838 -1.1015  0.8738
   97OSM   H14B 9592   1.896   3.751  11.527 -2.7587 -2.2123 -1.0503
   97OSM   H14C 9593   1.906   3.711  11.348  0.3520 -0.9245 -0.8337
   97OSM    C13 9594   2.048   3.584  11.637  0.5837 -0.1749 -0.2339
   97OSM   H13A 9595   2.137   3.645  11.634  0.6117 -0.2476 -0.8344
   97OSM   H13B 9596   2.072   3.485  11.670 -1.8008 -0.3351  1.1702
   97OSM   H13C 9597   1.968   3.616  11.702  0.7997 -1.8961  0.9019
   97OSM    C12 9598   2.095   3.506  11.399  0.0241 -0.3606 -0.3239
   97OSM   H12A 9599   2.123   3.408  11.432 -1.6580 -0.5451  0.5645
   97OSM   H12B 9600   2.193   3.553  11.396  0.8717 -2.0949 -0.3085
   97OSM    C11 9601   2.043   3.486  11.255 -0.6494  0.0725  0.6778
   97OSM   H11A 9602   1.942   3.440  11.246 -1.2590  1.7360 -1.8285
   97OSM   H11B 9603   2.111   3.418  11.200  0.6172  1.8146  0.0261
   97OSM      P 9604   2.163   3.667  11.094  0.3986  0.1256  0.0930
   97OSM    O13 9605   2.120   3.800  11.046  0.3872  0.1577  0.0912
   97OSM    O14 9606   2.293   3.661  11.171  0.8064  0.1076 -0.7593
   97OSM    O11 9607   2.179   3.575  10.956 -0.5904 -0.0378  0.3579
   97OSM    O12 9608   2.041   3.605  11.179  0.7549  0.1260  0.0409
   97OSM    C1S 9609   2.054   3.536  10.893 -0.2020  0.1540  0.5633
   97OSM    H1S 9610   1.967   3.549  10.961  0.3628  0.6373  1.1962
   97OSM    H1T 9611   2.047   3.428  10.867  1.6779  0.6594 -2.1623
   97OSM     NF 9612   1.885   3.600  10.711 -0.5812  0.0551 -0.3012
   97OSM    HNF 9613   1.880   3.543  10.629 -0.8613  0.1157 -0.3269
   97OSM    C2S 9614   2.023   3.624  10.764 -0.4923  0.1363 -0.5773
   97OSM    H2S 9615   2.034   3.727  10.805  1.2438 -0.2472 -0.0061
   97OSM    C3S 9616   2.134   3.595  10.663  0.0779  0.2895 -0.4650
   97OSM    H3S 9617   2.135   3.485  10.649  0.6570  0.3006 -0.5285
   97OSM     O3 9618   2.264   3.644  10.700 -0.2135  0.6518  0.1115
   97OSM    HO3 9619   2.258   3.642  10.796 -1.3998  0.2665  0.0410
   97OSM    C4S 9620   2.111   3.639  10.525  0.5218 -0.4042  0.2312
   97OSM    H4S 9621   2.044   3.568  10.474  0.4559 -1.3914  1.6385
   97OSM    C5S 9622   2.156   3.752  10.460  0.9026  0.0305  0.0982
   97OSM    H5S 9623   2.237   3.804  10.513 -2.1150  2.9708  2.0428
   97OSM    C6S 9624   2.128   3.795  10.317  0.3122 -0.1419  0.3217
   97OSM    H6S 9625   2.213   3.755  10.257 -0.5430 -0.2381 -0.8550
   97OSM    H6T 9626   2.155   3.903  10.317 -0.9188  0.1787 -0.0701
   97OSM    C7S 9627   1.990   3.771  10.244 -0.3287  0.1823 -0.3140
   97OSM    H7S 9628   1.914   3.841  10.285 -0.6591  0.7476 -1.8483
   97OSM    H7T 9629   1.962   3.668  10.276 -1.7688  0.6607  0.0075
   97OSM    C8S 9630   2.014   3.769  10.090 -1.1285  0.5139 -0.4649
   97OSM    H8S 9631   1.917   3.777  10.036 -1.0004 -1.7545 -1.0587
   97OSM    H8T 9632   2.066   3.673  10.071 -0.2807  1.6145 -4.1962
   97OSM    C9S 9633   2.101   3.883  10.032  0.4918 -0.0946 -0.2734
   97OSM    H9S 9634   2.204   3.881  10.073 -0.1088 -0.4831  1.2414
   97OSM    H9T 9635   2.066   3.984  10.061 -1.0512 -0.4829 -0.7274
   97OSM   C10S 9636   2.125   3.872   9.881  0.4346  0.2434 -0.0393
   97OSM   H10S 9637   2.101   3.767   9.854 -0.5320  0.8833 -1.7298
   97OSM   H10T 9638   2.234   3.884   9.864  0.5011  0.0997  0.2855
   97OSM   C11S 9639   2.052   3.966   9.794 -0.6343 -0.4342 -0.5864
   97OSM   H11S 9640   2.084   4.072   9.809  1.9549 -1.2672  0.0468
   97OSM   H11T 9641   1.952   3.952   9.841  0.6081 -2.7299  1.5332
   97OSM   C12S 9642   2.047   3.919   9.645  0.6077  0.4787  0.0449
   97OSM   H12S 9643   2.003   3.818   9.630 -2.4303  1.7617 -0.2474
   97OSM   H12T 9644   2.154   3.925   9.617  0.2327 -1.2502 -1.8776
   97OSM   C13S 9645   1.985   4.023   9.549 -0.4508 -0.6784  0.2459
   97OSM   H13S 9646   2.007   4.129   9.572  1.9196 -1.3359  1.0781
   97OSM   H13T 9647   1.879   4.009   9.580 -0.1602  0.2553  1.6897
   97OSM   C14S 9648   2.007   3.978   9.400 -0.5417 -0.6853 -0.4340
   97OSM   H14S 9649   1.962   3.878   9.388 -1.0212 -0.5547  0.2440
   97OSM   H14T 9650   2.116   3.974   9.379 -0.7131 -1.5817 -1.1683
   97OSM   C15S 9651   1.948   4.062   9.290 -0.4464  0.2291 -0.1945
   97OSM   H15S 9652   1.985   4.167   9.296 -1.3622  0.4785  1.4900
   97OSM   H15T 9653   1.838   4.053   9.298 -0.6067 -0.7991 -2.9626
   97OSM   C16S 9654   1.974   4.011   9.147  0.2284  0.1347  0.7642
   97OSM   H16S 9655   1.902   3.927   9.140  0.7201 -0.1391 -1.3842
   97OSM   H16T 9656   2.072   3.961   9.132  0.3939 -0.1006  2.5593
   97OSM   C17S 9657   1.938   4.107   9.034  0.7488 -0.9442  0.1023
   97OSM   H17S 9658   2.018   4.182   9.012 -0.3680  0.2210 -0.0614
   97OSM   H17T 9659   1.849   4.155   9.079  0.9757 -1.2110  0.8348
   97OSM   C18S 9660   1.904   4.030   8.901 -0.4537 -0.2160  0.3998
   97OSM   H18S 9661   1.985   3.956   8.882 -0.2393  0.0875  0.1474
   97OSM   H18T 9662   1.903   4.103   8.818 -0.6970 -1.1352 -0.4149
   97OSM   H18U 9663   1.807   3.977   8.910 -0.7585 -0.1625 -2.2472
   97OSM    C1F 9664   1.774   3.618  10.784 -0.8750 -0.3342  0.3095
   97OSM     OF 9665   1.778   3.691  10.882  0.0266 -0.2489 -0.4398
   97OSM    C2F 9666   1.651   3.548  10.735  0.6134  0.4547 -0.6766
   97OSM    H2F 9667   1.612   3.479  10.813 -0.0979  1.5957  0.0038
   97OSM    H2G 9668   1.673   3.471  10.658 -2.1727 -1.3161  0.2358
   97OSM    C3F 9669   1.547   3.645  10.690  0.3635 -0.1923 -0.2216
   97OSM    H3F 9670   1.520   3.704  10.780 -0.8783  0.5920 -1.0886
   97OSM    H3G 9671   1.461   3.577  10.674 -0.0823  0.6213 -1.3992
   97OSM    C4F 9672   1.593   3.732  10.568  0.0531 -0.3500  0.4528
   97OSM    H4F 9673   1.684   3.793  10.585  0.6015 -1.1138  0.2553
   97OSM    H4G 9674   1.503   3.795  10.548  0.3795 -0.4323 -1.2825
   97OSM    C5F 9675   1.630   3.638  10.446  0.5079 -0.7042 -0.1843
   97OSM    H5F 9676   1.570   3.547  10.464  0.1847 -0.7533 -1.4926
   97OSM    H5G 9677   1.739   3.617  10.437  0.9469  0.2843  2.3818
   97OSM    C6F 9678   1.591   3.699  10.314 -0.0298 -0.1865  0.2682
   97OSM    H6F 9679   1.634   3.801  10.301  1.8238 -1.1493 -1.3334
   97OSM    H6G 9680   1.481   3.711  10.320 -0.0735  0.0388 -0.8737
   97OSM    C7F 9681   1.624   3.605  10.194 -0.3638 -0.1336 -0.4473
   97OSM    H7F 9682   1.607   3.503  10.235  2.1422 -0.8615 -1.0819
   97OSM    H7G 9683   1.734   3.613  10.182 -0.2962 -0.6678 -0.1897
   97OSM    C8F 9684   1.547   3.621  10.069  0.2165 -0.6673 -0.3091
   97OSM    H8F 9685   1.443   3.587  10.091 -0.0461 -0.6181 -1.4356
   97OSM    H8G 9686   1.600   3.556   9.996  0.1926 -0.5179 -0.4599
   97OSM    C9F 9687   1.547   3.766  10.013  0.6282  0.5164  0.4116
   97OSM    H9F 9688   1.495   3.842  10.073  0.0054  2.3296 -2.3381
   97OSM   C10F 9689   1.613   3.803   9.899 -0.4316 -0.3050 -0.2607
   97OSM   H10F 9690   1.611   3.905   9.856 -1.0055 -1.1167 -2.2347
   97OSM   C11F 9691   1.693   3.723   9.797  0.3838  0.2819 -0.9775
   97OSM   H11F 9692   1.680   3.613   9.809  2.3342  0.3169  1.7430
   97OSM   H11G 9693   1.800   3.742   9.815  0.2176 -2.1747  3.3959
   97OSM   C12F 9694   1.669   3.763   9.655 -0.3947 -0.7317  0.7779
   97OSM   H12F 9695   1.743   3.718   9.585 -1.8260 -1.2124 -0.4381
   97OSM   H12G 9696   1.680   3.874   9.655  0.6699 -0.8153 -1.5955
   97OSM   C13F 9697   1.535   3.719   9.598  0.8148 -0.2051 -0.6763
   97OSM   H13F 9698   1.460   3.795   9.628  1.8711  0.7704 -0.4996
   97OSM   H13G 9699   1.497   3.623   9.640  0.3064  0.0681 -0.5122
   97OSM   C14F 9700   1.529   3.714   9.449 -0.3319  0.4220  0.7123
   97OSM   H14F 9701   1.433   3.663   9.424  0.1984 -0.3148  0.1497
   97OSM   H14G 9702   1.611   3.643   9.423 -0.4640  0.2431  0.7803
   97OSM   C15F 9703   1.551   3.853   9.386 -0.2935  0.1913 -0.5966
   97OSM   H15F 9704   1.657   3.884   9.375  0.2313 -0.8670  1.4617
   97OSM   H15G 9705   1.497   3.944   9.421 -0.7370 -0.5093  0.5335
   97OSM   C16F 9706   1.505   3.847   9.238  0.0678 -0.0103 -0.4654
   97OSM   H16F 9707   1.395   3.845   9.225 -0.0880 -1.0460  0.8772
   97OSM   H16G 9708   1.553   3.758   9.192 -0.2983 -1.0234  1.0955
   97OSM   C17F 9709   1.532   3.979   9.159  0.8895  0.3751 -0.3288
   97OSM   H17F 9710   1.638   4.012   9.169  0.3701  1.3468  2.4797
   97OSM   H17G 9711   1.465   4.061   9.190  0.1184  0.4321 -2.0764
   97OSM   C18F 9712   1.522   3.954   9.002 -0.0144 -0.0988  0.4346
   97OSM   H18F 9713   1.526   4.049   8.944 -1.2870  0.2286  0.8551
   97OSM   H18G 9714   1.422   3.909   8.985 -0.0395  0.1865 -0.2080
   97OSM   H18H 9715   1.592   3.878   8.962 -1.3818 -1.2563  0.2232
   98OSM      N 9716   1.351   4.228  10.910 -0.3710  0.1716  0.4684
   98OSM    C15 9717   1.211   4.207  10.956  0.0484 -0.6204  0.5726
   98OSM   H15A 9718   1.207   4.153  11.050  1.2916 -0.4980  0.7002
   98OSM   H15B 9719   1.160   4.143  10.885  1.6654 -3.5212  1.9213
   98OSM   H15C 9720   1.154   4.296  10.974 -0.8624 -1.6271  2.8520
   98OSM    C14 9721   1.352   4.331  10.805  0.2042  1.1076 -0.5250
   98OSM   H14A 9722   1.292   4.298  10.722  1.0763  2.0543 -1.5522
   98OSM   H14B 9723   1.450   4.359  10.770  0.2336  0.7497 -0.7221
   98OSM   H14C 9724   1.308   4.422  10.844 -0.8404  1.0590 -1.5659
   98OSM    C13 9725   1.427   4.292  11.026 -0.0409  0.0134  0.2639
   98OSM   H13A 9726   1.527   4.305  10.987  0.0779 -0.8266  0.2732
   98OSM   H13B 9727   1.430   4.226  11.112 -0.1034 -1.9739 -1.2289
   98OSM   H13C 9728   1.386   4.390  11.044 -0.9083 -0.4258  0.6786
   98OSM    C12 9729   1.420   4.096  10.867  0.2454 -0.5648 -0.5108
   98OSM   H12A 9730   1.412   4.037  10.957 -2.1854 -0.1487 -0.4108
   98OSM   H12B 9731   1.523   4.114  10.843  0.2866  1.0017  0.7956
   98OSM    C11 9732   1.351   4.025  10.747  0.2135  0.2058 -0.8239
   98OSM   H11A 9733   1.422   3.957  10.695  1.0484  2.2620 -2.4828
   98OSM   H11B 9734   1.335   4.097  10.664  0.5513 -1.1847 -2.1274
   98OSM      P 9735   1.219   3.804  10.840  0.0286 -0.0216  0.2767
   98OSM    O13 9736   1.332   3.789  10.937  0.0957 -0.3985  0.1578
   98OSM    O14 9737   1.084   3.778  10.898 -0.4603  0.4972  0.6419
   98OSM    O11 9738   1.233   3.707  10.719  0.0473  0.5263  0.0380
   98OSM    O12 9739   1.233   3.955  10.781 -0.4058  0.2879  0.6021
   98OSM    C1S 9740   1.180   3.752  10.592 -0.2104 -0.4758 -0.0733
   98OSM    H1S 9741   1.218   3.852  10.561 -3.4553  0.4700 -1.2534
   98OSM    H1T 9742   1.069   3.751  10.588 -0.4088  1.1141  3.1649
   98OSM     NF 9743   1.180   3.700  10.353 -0.8029 -0.1597  0.2692
   98OSM    HNF 9744   1.106   3.641  10.324 -2.3389  1.6327  0.4268
   98OSM    C2S 9745   1.232   3.662  10.479 -0.1087 -0.0436  0.4837
   98OSM    H2S 9746   1.342   3.674  10.482 -0.1184  0.5046 -1.0573
   98OSM    C3S 9747   1.204   3.513  10.505 -0.4356 -0.0397  0.3094
   98OSM    H3S 9748   1.094   3.505  10.500 -0.3423 -0.7867 -0.5808
   98OSM     O3 9749   1.244   3.461  10.628 -0.1113 -0.3123  0.2396
   98OSM    HO3 9750   1.271   3.539  10.677 -2.2073  1.4356 -1.3412
   98OSM    C4S 9751   1.274   3.426  10.398  0.9838 -0.6479  0.9449
   98OSM    H4S 9752   1.379   3.449  10.379  0.9005 -1.2232 -0.2550
   98OSM    C5S 9753   1.209   3.339  10.319  0.3657  0.2048 -0.5273
   98OSM    H5S 9754   1.101   3.324  10.336 -0.0506  4.4793  1.1833
   98OSM    C6S 9755   1.263   3.253  10.209  0.6314  0.2616  1.0559
   98OSM    H6S 9756   1.229   3.288  10.109  1.6174  1.7816  1.2387
   98OSM    H6T 9757   1.229   3.148  10.222  0.6045  0.4273  2.3644
   98OSM    C7S 9758   1.416   3.263  10.195 -0.2592  0.7408 -0.4299
   98OSM    H7S 9759   1.470   3.220  10.283  0.3602 -1.9436 -2.0531
   98OSM    H7T 9760   1.438   3.372  10.191  0.2869  0.5540 -3.4886
   98OSM    C8S 9761   1.475   3.187  10.067 -0.7659 -0.1510  0.4654
   98OSM    H8S 9762   1.425   3.090  10.047 -3.0015  0.7666  1.3730
   98OSM    H8T 9763   1.582   3.166  10.087 -0.2626 -0.0998 -2.0609
   98OSM    C9S 9764   1.463   3.269   9.931 -0.6684  0.6699  0.2451
   98OSM    H9S 9765   1.552   3.335   9.936  0.5127 -1.0026  2.4378
   98OSM    H9T 9766   1.369   3.328   9.936 -1.2049 -0.1693  0.1516
   98OSM   C10S 9767   1.448   3.185   9.804 -0.0729 -0.2132 -0.6758
   98OSM   H10S 9768   1.426   3.252   9.719 -2.2056 -1.1718 -0.9242
   98OSM   H10T 9769   1.354   3.126   9.809 -1.2237  1.6362  0.6208
   98OSM   C11S 9770   1.560   3.089   9.775  0.1937 -0.2208 -0.0807
   98OSM   H11S 9771   1.587   3.025   9.862  1.4668 -1.0758 -1.0841
   98OSM   H11T 9772   1.653   3.147   9.757  0.0277 -0.3480 -1.3903
   98OSM   C12S 9773   1.529   3.000   9.652  0.2150  0.3260  0.7142
   98OSM   H12S 9774   1.491   3.062   9.568 -1.7060 -1.6974  0.0431
   98OSM   H12T 9775   1.462   2.916   9.679 -0.2652  0.6192  0.4327
   98OSM   C13S 9776   1.658   2.933   9.594 -0.1069 -0.1396  0.7860
   98OSM   H13S 9777   1.718   2.884   9.674 -0.5200 -0.2939  1.0021
   98OSM   H13T 9778   1.714   3.014   9.543  0.6467 -0.4328  1.1342
   98OSM   C14S 9779   1.615   2.836   9.483 -0.2654  0.7850 -0.1154
   98OSM   H14S 9780   1.547   2.879   9.407 -0.6251  0.1961 -0.1294
   98OSM   H14T 9781   1.551   2.754   9.523  0.2945 -0.2681 -1.3272
   98OSM   C15S 9782   1.741   2.771   9.412  0.9845 -0.0629  0.3464
   98OSM   H15S 9783   1.796   2.723   9.496  0.5484  0.0805  0.7127
   98OSM   H15T 9784   1.804   2.852   9.368  0.9602  0.2331  0.8445
   98OSM   C16S 9785   1.721   2.661   9.315  0.2424 -0.3743 -0.8415
   98OSM   H16S 9786   1.639   2.589   9.335 -0.6762  1.1409  0.9858
   98OSM   H16T 9787   1.809   2.593   9.318  0.9333  0.5716  1.0927
   98OSM   C17S 9788   1.695   2.713   9.170 -0.6660  0.0721  0.0898
   98OSM   H17S 9789   1.785   2.775   9.152 -0.4705 -0.1247  0.3834
   98OSM   H17T 9790   1.617   2.792   9.164  0.3563  1.0490 -0.4903
   98OSM   C18S 9791   1.676   2.602   9.066 -0.1601 -0.7230 -0.2975
   98OSM   H18S 9792   1.585   2.546   9.099 -0.3102 -0.0952  0.3703
   98OSM   H18T 9793   1.760   2.530   9.070  0.6173  0.2892  3.3095
   98OSM   H18U 9794   1.655   2.635   8.963 -1.6454  0.4883  0.3681
   98OSM    C1F 9795   1.213   3.806  10.288 -0.0198  0.0045  0.0870
   98OSM     OF 9796   1.289   3.888  10.333  0.1249 -0.2355  0.0437
   98OSM    C2F 9797   1.152   3.825  10.154 -0.4797 -0.3876 -0.2494
   98OSM    H2F 9798   1.209   3.899  10.094  0.4633  0.0301  1.1275
   98OSM    H2G 9799   1.048   3.861  10.166 -0.1497  0.7713 -0.7874
   98OSM    C3F 9800   1.146   3.688  10.078  0.6693 -1.0155  0.3774
   98OSM    H3F 9801   1.051   3.632  10.094  0.4861 -0.5143  1.0355
   98OSM    H3G 9802   1.229   3.618  10.101  0.2285 -2.2016 -1.4901
   98OSM    C4F 9803   1.130   3.712   9.924  0.4695  0.1505 -0.4721
   98OSM    H4F 9804   1.220   3.768   9.890  0.5433 -1.0172 -2.2720
   98OSM    H4G 9805   1.043   3.778   9.907 -0.3442 -0.6848  0.4144
   98OSM    C5F 9806   1.117   3.579   9.845 -0.7649  0.2564 -0.1296
   98OSM    H5F 9807   1.032   3.520   9.884 -0.6055  1.2502  1.7427
   98OSM    H5G 9808   1.214   3.527   9.856 -0.1118  1.0545 -1.9101
   98OSM    C6F 9809   1.084   3.595   9.697  0.0133 -0.2688  0.4023
   98OSM    H6F 9810   1.165   3.640   9.637 -0.5558 -1.7347 -1.5200
   98OSM    H6G 9811   0.995   3.661   9.695 -1.0006 -1.6243 -0.0126
   98OSM    C7F 9812   1.040   3.465   9.630 -0.7789 -0.2064 -0.3898
   98OSM    H7F 9813   0.985   3.483   9.535  1.0049  1.4844 -1.1261
   98OSM    H7G 9814   0.956   3.423   9.689 -0.1887 -0.8634 -0.0236
   98OSM    C8F 9815   1.163   3.378   9.595 -0.5300 -1.3186 -0.4599
   98OSM    H8F 9816   1.208   3.345   9.691  0.8784  1.9745  0.0854
   98OSM    H8G 9817   1.241   3.437   9.541 -0.1863 -1.7831 -0.4708
   98OSM    C9F 9818   1.119   3.252   9.523 -0.5677  0.8760  0.4940
   98OSM    H9F 9819   1.054   3.189   9.586 -1.4051  2.2895  1.0658
   98OSM   C10F 9820   1.144   3.216   9.395 -0.0683  0.1978  0.0816
   98OSM   H10F 9821   1.125   3.112   9.363  1.4511  0.2404 -1.0496
   98OSM   C11F 9822   1.229   3.304   9.302 -0.1523  0.0589  0.3222
   98OSM   H11F 9823   1.222   3.410   9.335 -2.2743  0.5619 -1.6449
   98OSM   H11G 9824   1.189   3.310   9.199 -0.4693 -1.0668  0.3787
   98OSM   C12F 9825   1.380   3.269   9.304 -0.0311 -0.8368 -0.4472
   98OSM   H12F 9826   1.405   3.256   9.411  0.1580 -0.0953 -0.4044
   98OSM   H12G 9827   1.438   3.353   9.260 -2.3824 -0.6111 -3.2655
   98OSM   C13F 9828   1.422   3.141   9.225 -0.0081  1.2327  0.1209
   98OSM   H13F 9829   1.347   3.060   9.236  0.9154  0.1630 -1.3742
   98OSM   H13G 9830   1.522   3.106   9.259 -0.2396 -1.0846 -1.4653
   98OSM   C14F 9831   1.462   3.168   9.076  0.3727  0.0900 -0.6270
   98OSM   H14F 9832   1.533   3.253   9.077  2.0719 -1.3072 -0.8293
   98OSM   H14G 9833   1.373   3.185   9.012 -1.2029 -0.6843  1.2744
   98OSM   C15F 9834   1.552   3.063   9.014  0.4478  0.1748  0.4951
   98OSM   H15F 9835   1.511   2.961   9.002 -1.0816  0.9665 -1.2105
   98OSM   H15G 9836   1.647   3.051   9.071 -0.4940 -1.5403  1.7572
   98OSM   C16F 9837   1.585   3.111   8.876 -0.3576  0.0759  0.5473
   98OSM   H16F 9838   1.629   3.213   8.872  0.4928 -0.2760  0.9660
   98OSM   H16G 9839   1.482   3.123   8.835 -0.6881  0.7523  1.5488
   98OSM   C17F 9840   1.674   3.016   8.797 -0.1525  0.3380 -0.2377
   98OSM   H17F 9841   1.625   2.917   8.788 -0.7737  0.4307  1.7615
   98OSM   H17G 9842   1.756   2.984   8.864  0.0873 -2.7040 -1.9180
   98OSM   C18F 9843   1.727   3.065   8.669  0.3003  0.1480 -0.6414
   98OSM   H18F 9844   1.757   3.170   8.686  1.3208 -0.3781  0.9032
   98OSM   H18G 9845   1.656   3.052   8.584  0.5987 -1.4133 -0.6703
   98OSM   H18H 9846   1.816   3.003   8.643  0.6832 -0.1613  1.3190
   99OSM      N 9847   4.468   3.504  11.059 -0.3692 -0.0646  0.2519
   99OSM    C15 9848   4.409   3.425  11.163 -0.0960 -0.3288  0.1332
   99OSM   H15A 9849   4.467   3.335  11.179 -2.1988 -2.0069 -1.2671
   99OSM   H15B 9850   4.306   3.400  11.142  0.2094 -0.7394 -0.9142
   99OSM   H15C 9851   4.410   3.474  11.259  0.2852  1.0703 -0.5689
   99OSM    C14 9852   4.615   3.528  11.102 -0.3340 -0.0654 -0.0720
   99OSM   H14A 9853   4.662   3.607  11.045 -1.1787 -0.4498 -1.3165
   99OSM   H14B 9854   4.671   3.437  11.091  1.5727  1.3566 -2.9026
   99OSM   H14C 9855   4.618   3.559  11.205  0.5983 -0.7560  0.1164
   99OSM    C13 9856   4.478   3.433  10.927 -0.3068 -0.3242 -0.1877
   99OSM   H13A 9857   4.555   3.358  10.919 -1.5356 -1.6320 -0.0205
   99OSM   H13B 9858   4.482   3.502  10.844  0.0560 -2.4375 -1.9747
   99OSM   H13C 9859   4.387   3.389  10.889 -0.1460  0.3798 -1.4100
   99OSM    C12 9860   4.388   3.628  11.042 -0.8243  0.0531 -0.5850
   99OSM   H12A 9861   4.437   3.707  10.988  1.2302  0.7863  2.2290
   99OSM   H12B 9862   4.379   3.664  11.144  1.0246  1.2057 -0.8192
   99OSM    C11 9863   4.253   3.617  10.976  0.2205 -0.1993  0.3018
   99OSM   H11A 9864   4.188   3.531  11.004  0.6574  0.2129  2.7393
   99OSM   H11B 9865   4.270   3.602  10.867 -0.9545 -0.9216  0.2052
   99OSM      P 9866   4.210   3.876  10.915  0.0068  0.0012  0.2805
   99OSM    O13 9867   4.105   3.982  10.934  0.1607 -0.1102 -0.2544
   99OSM    O14 9868   4.350   3.924  10.921 -0.1926 -0.5241 -0.1831
   99OSM    O11 9869   4.194   3.824  10.764 -0.5526  0.2864 -0.0485
   99OSM    O12 9870   4.190   3.743  11.005  0.0521  0.1795  0.2402
   99OSM    C1S 9871   4.069   3.799  10.713  0.0911 -0.0223 -0.3745
   99OSM    H1S 9872   3.994   3.876  10.740  1.5485  1.5316 -0.6696
   99OSM    H1T 9873   4.026   3.700  10.739  0.1724  0.1077  0.2629
   99OSM     NF 9874   3.944   3.790  10.510 -0.8940  0.4692 -0.1920
   99OSM    HNF 9875   3.891   3.709  10.486 -1.6634  1.0124 -0.3074
   99OSM    C2S 9876   4.080   3.788  10.561  0.7197  1.0069  0.1946
   99OSM    H2S 9877   4.125   3.881  10.517 -0.5086  2.1963  1.4064
   99OSM    C3S 9878   4.154   3.662  10.516 -0.2745  0.4672 -0.3466
   99OSM    H3S 9879   4.083   3.580  10.542  0.0853  0.3924  0.4137
   99OSM     O3 9880   4.278   3.637  10.583 -0.3921 -0.0021  0.0872
   99OSM    HO3 9881   4.275   3.709  10.646  1.4916  1.0563 -0.9851
   99OSM    C4S 9882   4.183   3.664  10.369  0.3822  0.9822  0.2065
   99OSM    H4S 9883   4.253   3.742  10.336 -0.1059  1.0618 -0.6796
   99OSM    C5S 9884   4.119   3.589  10.272 -0.3799 -0.1009  0.0803
   99OSM    H5S 9885   4.035   3.523  10.300 -1.1763  1.3349  1.1671
   99OSM    C6S 9886   4.152   3.594  10.128  0.8486 -0.0630 -0.3081
   99OSM    H6S 9887   4.190   3.495  10.094 -2.5216 -2.3245  2.2670
   99OSM    H6T 9888   4.222   3.676  10.101  0.6616  0.1731 -0.0744
   99OSM    C7S 9889   4.024   3.629  10.044  0.1280  0.0700 -0.0447
   99OSM    H7S 9890   3.984   3.718  10.099  0.5659  0.8082 -0.9048
   99OSM    H7T 9891   3.945   3.551  10.054 -0.6726  0.6744 -1.4170
   99OSM    C8S 9892   4.035   3.639   9.891  0.1095  0.0726  0.1556
   99OSM    H8S 9893   4.107   3.574   9.835  0.2961  0.3124  0.1177
   99OSM    H8T 9894   4.073   3.741   9.871  2.6443 -1.1084 -1.4126
   99OSM    C9S 9895   3.899   3.619   9.815 -0.9166  0.2123 -0.7633
   99OSM    H9S 9896   3.815   3.678   9.857 -0.0032 -0.3734  1.9658
   99OSM    H9T 9897   3.880   3.511   9.832  1.4285 -0.2559 -0.9629
   99OSM   C10S 9898   3.902   3.643   9.665  0.4993  0.4662 -0.6110
   99OSM   H10S 9899   3.997   3.596   9.632  1.8055  2.6773 -0.0987
   99OSM   H10T 9900   3.895   3.751   9.639  0.8186  0.3936 -0.9999
   99OSM   C11S 9901   3.784   3.568   9.610 -0.3608 -0.3327 -0.7641
   99OSM   H11S 9902   3.688   3.598   9.656  0.0774  0.6234 -0.4637
   99OSM   H11T 9903   3.790   3.459   9.629  1.1912 -0.4354 -1.8001
   99OSM   C12S 9904   3.753   3.589   9.459  0.8815  0.3161 -0.6306
   99OSM   H12S 9905   3.682   3.504   9.446  0.7029  0.7798 -3.0256
   99OSM   H12T 9906   3.709   3.691   9.455 -1.8920 -0.8406 -0.5509
   99OSM   C13S 9907   3.870   3.578   9.362 -0.2936 -0.5438  0.5991
   99OSM   H13S 9908   3.920   3.481   9.382  1.5277  0.1940 -0.3008
   99OSM   H13T 9909   3.927   3.671   9.382 -0.9053  0.0535 -0.3963
   99OSM   C14S 9910   3.822   3.576   9.221  0.5601  0.2073  0.2385
   99OSM   H14S 9911   3.915   3.596   9.163  0.5716 -0.2146  0.1086
   99OSM   H14T 9912   3.753   3.662   9.208  0.9591  0.4802 -0.1072
   99OSM   C15S 9913   3.748   3.443   9.184  0.5095 -0.4843 -0.0919
   99OSM   H15S 9914   3.657   3.435   9.247  2.6507 -2.0883  2.8951
   99OSM   H15T 9915   3.823   3.364   9.207  0.7522 -0.8854 -2.0898
   99OSM   C16S 9916   3.713   3.442   9.039 -0.4448  0.8825 -0.2947
   99OSM   H16S 9917   3.656   3.348   9.021 -0.5904  0.6738  1.1936
   99OSM   H16T 9918   3.806   3.445   8.977  0.1446  1.5631  0.6132
   99OSM   C17S 9919   3.622   3.559   8.992  0.3128  0.6534  0.1099
   99OSM   H17S 9920   3.673   3.656   8.976 -1.6245  2.0194  1.9576
   99OSM   H17T 9921   3.549   3.574   9.074 -0.7336  0.3037 -0.7400
   99OSM   C18S 9922   3.550   3.521   8.859 -0.4869  0.1042 -0.4900
   99OSM   H18S 9923   3.531   3.412   8.852  0.2928  0.1137 -3.2030
   99OSM   H18T 9924   3.611   3.533   8.767 -2.2846  1.9625 -1.4822
   99OSM   H18U 9925   3.452   3.573   8.866 -1.2499 -1.2750 -0.6603
   99OSM    C1F 9926   3.877   3.901  10.501 -0.1966  0.1909 -0.6799
   99OSM     OF 9927   3.920   4.001  10.553 -0.5008 -0.4391 -0.0574
   99OSM    C2F 9928   3.755   3.902  10.413  0.2389 -0.1902 -0.2298
   99OSM    H2F 9929   3.680   3.954  10.476  0.6047  1.2442 -0.9641
   99OSM    H2G 9930   3.731   3.797  10.387  1.0676 -0.8378  1.5176
   99OSM    C3F 9931   3.782   3.981  10.281 -0.6372 -0.4064 -0.0039
   99OSM    H3F 9932   3.820   4.081  10.311 -0.5697 -0.7052  0.9265
   99OSM    H3G 9933   3.863   3.928  10.227 -1.3123 -0.0436 -1.3982
   99OSM    C4F 9934   3.658   3.998  10.194 -0.2605  0.2266  0.1555
   99OSM    H4F 9935   3.579   4.057  10.246  0.5236  2.4168 -1.0678
   99OSM    H4G 9936   3.619   3.895  10.180 -2.1123  1.1335 -1.7200
   99OSM    C5F 9937   3.685   4.067  10.060 -0.4967 -0.0461 -0.1783
   99OSM    H5F 9938   3.764   4.003  10.015  0.7805  1.1035  0.4008
   99OSM    H5G 9939   3.740   4.161  10.080 -1.0017  0.1001  0.5363
   99OSM    C6F 9940   3.569   4.087   9.974  0.8195  0.0598  0.2534
   99OSM    H6F 9941   3.490   4.140  10.030  1.9780  2.8125 -0.6657
   99OSM    H6G 9942   3.536   3.987   9.935 -0.2857 -0.4783  2.5010
   99OSM    C7F 9943   3.624   4.162   9.851  0.1182  0.2229  0.3425
   99OSM    H7F 9944   3.725   4.123   9.829  0.2662  0.2148  1.0179
   99OSM    H7G 9945   3.639   4.270   9.873  0.0046  0.0739  1.1707
   99OSM    C8F 9946   3.546   4.127   9.720  0.7071 -0.0528  1.0907
   99OSM    H8F 9947   3.442   4.163   9.735 -0.3724 -2.7449  0.2650
   99OSM    H8G 9948   3.536   4.019   9.701  1.1480  0.0469  0.2811
   99OSM    C9F 9949   3.595   4.199   9.598  0.0771  0.4234 -0.2776
   99OSM    H9F 9950   3.572   4.306   9.600 -0.4550  0.2852  1.7546
   99OSM   C10F 9951   3.638   4.151   9.479  0.2461  0.3009 -0.3457
   99OSM   H10F 9952   3.674   4.224   9.405  4.5367 -1.9279 -0.5575
   99OSM   C11F 9953   3.649   4.006   9.443  0.1170  0.1765  0.7098
   99OSM   H11F 9954   3.630   3.936   9.527  2.0030  1.6199  2.3758
   99OSM   H11G 9955   3.756   3.990   9.415 -1.2728 -1.3786 -4.2409
   99OSM   C12F 9956   3.576   3.962   9.313  0.3402 -0.1978  0.4648
   99OSM   H12F 9957   3.470   3.989   9.329 -0.1648 -0.7371 -1.7716
   99OSM   H12G 9958   3.587   3.851   9.304  0.6426 -0.3076  1.9681
   99OSM   C13F 9959   3.622   4.018   9.178 -0.4425  0.3654  0.4926
   99OSM   H13F 9960   3.724   3.987   9.147 -0.4399  1.4475 -0.6343
   99OSM   H13G 9961   3.621   4.128   9.191 -0.4910  0.2933  1.1470
   99OSM   C14F 9962   3.528   3.984   9.070 -0.7680 -0.2424  0.7692
   99OSM   H14F 9963   3.420   4.003   9.089 -0.8403 -2.0323  2.1827
   99OSM   H14G 9964   3.533   3.875   9.051 -3.1364  0.0517 -1.9665
   99OSM   C15F 9965   3.559   4.047   8.935 -0.2569  0.0740 -0.2997
   99OSM   H15F 9966   3.670   4.039   8.925 -0.2599 -0.1147 -0.1813
   99OSM   H15G 9967   3.536   4.154   8.953  0.0250 -0.0133  0.6164
   99OSM   C16F 9968   3.484   4.000   8.808 -0.2032  0.9441  0.2126
   99OSM   H16F 9969   3.508   4.073   8.727 -2.6111 -0.0765 -1.4866
   99OSM   H16G 9970   3.374   4.006   8.825 -0.3277 -1.6557  0.6115
   99OSM   C17F 9971   3.531   3.862   8.756 -0.1914 -0.7789  0.0465
   99OSM   H17F 9972   3.472   3.786   8.811 -0.6363 -0.4217  0.0621
   99OSM   H17G 9973   3.639   3.841   8.774 -0.4662  0.7542  3.9425
   99OSM   C18F 9974   3.506   3.849   8.599  0.2255 -0.3232 -0.0429
   99OSM   H18F 9975   3.403   3.872   8.567  0.9399  0.2618 -1.9748
   99OSM   H18G 9976   3.543   3.750   8.566  0.1563  0.0059 -1.1107
   99OSM   H18H 9977   3.565   3.934   8.557  0.2656  0.4411  1.5176
  100OSM      N 9978   5.862   4.607  11.098 -0.0957  0.7637 -0.6061
  100OSM    C15 9979   5.946   4.600  11.220  0.3951  0.0539  0.2079
  100OSM   H15A 9980   5.971   4.496  11.234  0.2664 -0.2258 -1.5785
  100OSM   H15B 9981   5.896   4.650  11.302 -3.5535 -1.7678 -1.0075
  100OSM   H15C 9982   6.033   4.661  11.198  0.3961  0.6158  1.6871
  100OSM    C14 9983   5.728   4.550  11.134 -0.8739 -0.4695 -0.5005
  100OSM   H14A 9984   5.685   4.532  11.037 -1.7011 -1.7536  0.0822
  100OSM   H14B 9985   5.666   4.618  11.190 -0.1287 -0.7402  0.6933
  100OSM   H14C 9986   5.742   4.453  11.180  0.7794  1.7942  4.0322
  100OSM    C13 9987   5.838   4.754  11.069 -0.9136 -0.3374  0.9341
  100OSM   H13A 9988   5.921   4.785  11.007 -1.4563  0.0359  0.3874
  100OSM   H13B 9989   5.825   4.809  11.161 -0.3202 -1.0523  1.4518
  100OSM   H13C 9990   5.761   4.771  10.995  1.0595  0.1730 -1.0415
  100OSM    C12 9991   5.927   4.534  10.983  0.2184 -0.3003  0.2147
  100OSM   H12A 9992   5.962   4.434  11.005 -1.6998 -1.0420  0.0055
  100OSM   H12B 9993   6.023   4.576  10.958  1.3349 -1.4338  2.4682
  100OSM    C11 9994   5.849   4.517  10.849 -0.6431 -0.3625 -0.3118
  100OSM   H11A 9995   5.758   4.456  10.868 -0.4909 -0.3505  0.4741
  100OSM   H11B 9996   5.917   4.457  10.785 -0.7280  0.5097 -1.2326
  100OSM      P 9997   5.925   4.725  10.720  0.2772  0.2201  0.3148
  100OSM    O13 9998   5.881   4.863  10.744  0.9323 -0.1974  0.5754
  100OSM    O14 9999   6.062   4.677  10.754  0.1223  0.1008  0.4224
  100OSM    O1110000   5.891   4.688  10.570  0.0057  0.0416  0.0153
  100OSM    O1210001   5.824   4.643  10.801  0.1191 -0.2733  0.0075
  100OSM    C1S10002   5.956   4.594  10.484 -0.1454 -0.4775 -1.1116
  100OSM    H1S10003   5.885   4.509  10.473 -2.0303  0.6086  1.9566
  100OSM    H1T10004   6.047   4.553  10.532 -2.3978 -0.9163  3.0565
  100OSM     NF10005   6.003   4.528  10.252  0.1106  0.0311  1.3171
  100OSM    HNF10006   6.099   4.500  10.252  0.7796  2.0925 -1.6503
  100OSM    C2S10007   5.975   4.645  10.332 -0.5294 -0.0568 -0.0579
  100OSM    H2S10008   5.877   4.689  10.305 -0.5866 -0.6695 -0.8826
  100OSM    C3S10009   6.092   4.751  10.336 -0.2668  0.4130  0.1882
  100OSM    H3S10010   6.187   4.699  10.361  0.1244  2.4851  3.3375
  100OSM     O310011   6.087   4.844  10.442 -0.3357  0.3987  0.8606
  100OSM    HO310012   6.014   4.819  10.499 -2.1430  3.9093  0.2215
  100OSM    C4S10013   6.101   4.815  10.199  0.6680  0.4601 -0.1262
  100OSM    H4S10014   6.169   4.776  10.122  0.7404  0.0599  0.1387
  100OSM    C5S10015   6.036   4.935  10.167  0.9523 -0.1011 -0.5047
  100OSM    H5S10016   5.999   4.994  10.252 -0.3554 -2.3012  0.4815
  100OSM    C6S10017   6.036   5.007  10.034 -0.4928 -0.3159 -0.0662
  100OSM    H6S10018   6.060   5.112  10.061 -0.3026 -0.8520  1.9570
  100OSM    H6T10019   5.930   5.009  10.002 -1.3572 -0.9407  2.6132
  100OSM    C7S10020   6.113   4.960   9.916  1.2638  0.3124  0.5641
  100OSM    H7S10021   6.068   4.861   9.893  1.3670 -0.3346  2.9909
  100OSM    H7T10022   6.218   4.960   9.951  1.2501  0.5027  0.6063
  100OSM    C8S10023   6.104   5.043   9.788 -0.2849  0.1984 -0.0162
  100OSM    H8S10024   6.134   5.150   9.790 -1.4253  0.5163  0.3284
  100OSM    H8T10025   6.000   5.045   9.750 -0.2419  0.7163 -0.1101
  100OSM    C9S10026   6.191   4.975   9.677  0.0691 -0.3074 -0.0188
  100OSM    H9S10027   6.172   4.866   9.683 -2.2635 -0.0283 -1.5242
  100OSM    H9T10028   6.295   4.980   9.715 -0.7397  1.1348  2.0863
  100OSM   C10S10029   6.168   5.028   9.540  0.3123 -0.0930  0.2663
  100OSM   H10S10030   6.220   5.126   9.540  0.5473 -0.2079 -0.8312
  100OSM   H10T10031   6.063   5.045   9.507  0.3718  0.7924  0.5215
  100OSM   C11S10032   6.222   4.934   9.435  0.4228  0.4031  0.1177
  100OSM   H11S10033   6.193   4.831   9.466 -1.3702  1.3978  1.8225
  100OSM   H11T10034   6.332   4.937   9.448  0.3298 -0.1320  1.0519
  100OSM   C12S10035   6.197   4.969   9.287  0.2183 -0.4368 -0.7163
  100OSM   H12S10036   6.210   5.078   9.272 -1.5532 -0.0637  0.3476
  100OSM   H12T10037   6.090   4.952   9.263  0.0737  0.7939 -0.9694
  100OSM   C13S10038   6.287   4.901   9.191  0.2078  0.1820  0.1811
  100OSM   H13S10039   6.286   4.790   9.195  2.3396  0.0929 -1.2255
  100OSM   H13T10040   6.394   4.925   9.209  0.0369  0.1477  1.3318
  100OSM   C14S10041   6.259   4.938   9.047  0.4600 -0.1358 -0.3940
  100OSM   H14S10042   6.292   5.041   9.025  0.3085  0.3947  1.7420
  100OSM   H14T10043   6.151   4.922   9.024  1.1110 -0.6049 -3.3836
  100OSM   C15S10044   6.337   4.843   8.954  0.2251 -0.9098 -0.3382
  100OSM   H15S10045   6.278   4.749   8.947  1.6509 -1.7615 -1.1456
  100OSM   H15T10046   6.438   4.818   8.992  0.4085 -1.5719 -1.2617
  100OSM   C16S10047   6.323   4.889   8.807 -0.0073  0.8716 -0.3812
  100OSM   H16S10048   6.335   5.000   8.807 -2.4714  1.1645 -2.1577
  100OSM   H16T10049   6.219   4.873   8.772 -0.0295 -1.1038  0.5405
  100OSM   C17S10050   6.425   4.825   8.711  0.2429 -0.5375  0.0760
  100OSM   H17S10051   6.385   4.721   8.714 -1.2752  0.0275 -0.4315
  100OSM   H17T10052   6.525   4.839   8.758  0.7090  0.4834 -1.1898
  100OSM   C18S10053   6.417   4.888   8.572  0.1759  0.3933 -0.7696
  100OSM   H18S10054   6.429   4.998   8.579  0.0525  0.2958  1.3513
  100OSM   H18T10055   6.321   4.857   8.526  0.5467 -3.2499  0.7520
  100OSM   H18U10056   6.497   4.851   8.505 -0.2463  1.0496 -1.6344
  100OSM    C1F10057   5.904   4.452  10.206  0.1846 -0.5939  0.2417
  100OSM     OF10058   5.793   4.494  10.219 -0.5454 -0.3866  0.0900
  100OSM    C2F10059   5.929   4.318  10.157  0.2886 -0.1060 -0.5065
  100OSM    H2F10060   5.868   4.257  10.228 -2.3288  2.5072 -0.4404
  100OSM    H2G10061   6.034   4.282  10.146 -0.3491 -1.5705 -2.1948
  100OSM    C3F10062   5.868   4.309  10.009  0.0796 -0.1184  0.3177
  100OSM    H3F10063   5.911   4.391   9.948 -0.6095 -0.3003 -0.4162
  100OSM    H3G10064   5.763   4.338  10.031 -0.0507 -0.5134  0.2111
  100OSM    C4F10065   5.864   4.171   9.946 -0.0391 -0.3412  0.4294
  100OSM    H4F10066   5.842   4.089  10.017 -1.8305  0.0398  0.3356
  100OSM    H4G10067   5.966   4.141   9.914  0.9193  1.0951  2.0503
  100OSM    C5F10068   5.762   4.159   9.835 -0.3544 -0.9011  0.2508
  100OSM    H5F10069   5.797   4.223   9.751 -1.8984  1.9797  1.7312
  100OSM    H5G10070   5.659   4.184   9.868  0.5045  1.6305  1.1364
  100OSM    C6F10071   5.766   4.019   9.794  0.1938  0.0724  0.1451
  100OSM    H6F10072   5.745   3.949   9.878  1.2209  0.7343  0.9538
  100OSM    H6G10073   5.865   3.995   9.751  0.7031 -1.7085  2.2110
  100OSM    C7F10074   5.654   3.990   9.689  0.0727  0.8048 -0.1419
  100OSM    H7F10075   5.673   4.067   9.611 -0.9841  0.9764 -0.2376
  100OSM    H7G10076   5.552   3.998   9.734  1.0521  0.4388  2.1898
  100OSM    C8F10077   5.672   3.854   9.633 -0.3052 -0.3756  0.4169
  100OSM    H8F10078   5.652   3.781   9.714  1.2161 -2.4050 -0.9734
  100OSM    H8G10079   5.780   3.842   9.608 -0.2938  0.0415  0.2498
  100OSM    C9F10080   5.583   3.825   9.517 -0.7781 -0.6302 -0.5869
  100OSM    H9F10081   5.478   3.812   9.545 -0.6856 -1.8078 -0.7435
  100OSM   C10F10082   5.624   3.828   9.387  0.4728  0.2221 -0.4854
  100OSM   H10F10083   5.545   3.807   9.313  0.0996  1.3230 -0.4109
  100OSM   C11F10084   5.766   3.856   9.339  0.1026 -0.0958  0.8178
  100OSM   H11F10085   5.820   3.764   9.308 -0.0859 -0.2795  1.0275
  100OSM   H11G10086   5.829   3.915   9.408  1.2767 -0.7400  0.3151
  100OSM   C12F10087   5.761   3.948   9.218 -0.6024 -0.4788  0.1368
  100OSM   H12F10088   5.723   4.050   9.237  3.1922  0.8884  0.7829
  100OSM   H12G10089   5.698   3.902   9.138 -0.0302  1.2774 -1.3526
  100OSM   C13F10090   5.895   3.949   9.140 -0.3271  0.4919 -0.6140
  100OSM   H13F10091   5.915   3.846   9.105 -0.1518 -0.7002  2.8595
  100OSM   H13G10092   5.980   3.977   9.207 -0.3615  2.0874 -1.2162
  100OSM   C14F10093   5.903   4.043   9.021 -0.0247 -0.4869 -0.3122
  100OSM   H14F10094   6.004   4.076   8.990  0.6793 -0.6665  1.6676
  100OSM   H14G10095   5.856   4.140   9.045 -1.2426 -0.4468 -2.7638
  100OSM   C15F10096   5.832   3.978   8.905 -0.0904  0.2811 -0.4718
  100OSM   H15F10097   5.732   3.965   8.951  0.5827  1.3142  1.3376
  100OSM   H15G10098   5.883   3.881   8.887 -0.3946  0.1107 -0.4294
  100OSM   C16F10099   5.825   4.074   8.780  0.3888  0.1031 -0.6013
  100OSM   H16F10100   5.803   4.175   8.821  0.2195 -1.0450  2.2987
  100OSM   H16G10101   5.744   4.032   8.716  0.6602 -1.3983  0.0006
  100OSM   C17F10102   5.947   4.078   8.690  0.1293  0.3676 -0.5745
  100OSM   H17F10103   6.022   4.109   8.766  0.1306  0.9127 -0.7918
  100OSM   H17G10104   5.924   4.160   8.619  0.7683  0.5456 -0.5878
  100OSM   C18F10105   5.976   3.950   8.624 -0.3458 -0.3698  0.4776
  100OSM   H18F10106   5.897   3.913   8.556  0.5175  0.2127 -0.8527
  100OSM   H18G10107   5.993   3.858   8.685  0.5112 -0.2487  0.4365
  100OSM   H18H10108   6.070   3.959   8.565 -0.0119  1.1382  1.2153
  101OSM      N10109   2.300   4.390  11.025 -0.3198 -0.4875  0.2863
  101OSM    C1510110   2.308   4.541  11.067 -0.9667 -0.5833 -0.4263
  101OSM   H15A10111   2.368   4.558  11.155 -2.2456  0.9536  0.1670
  101OSM   H15B10112   2.212   4.577  11.101  0.1079  0.8080  1.2089
  101OSM   H15C10113   2.346   4.607  10.990  0.4189 -1.4191 -0.4780
  101OSM    C1410114   2.440   4.353  10.987 -0.5195 -0.8975 -0.6318
  101OSM   H14A10115   2.472   4.409  10.901 -1.7363  1.4162  0.3581
  101OSM   H14B10116   2.454   4.247  10.972  2.9667 -0.6478  0.4398
  101OSM   H14C10117   2.495   4.386  11.074 -0.8249 -4.1508  0.8884
  101OSM    C1310118   2.258   4.312  11.141  0.5337  0.0967  0.7816
  101OSM   H13A10119   2.156   4.336  11.168  1.1776  1.9401  1.6895
  101OSM   H13B10120   2.315   4.347  11.226 -0.4070 -1.5796  2.1270
  101OSM   H13C10121   2.267   4.205  11.130 -2.9869 -0.3574  1.7154
  101OSM    C1210122   2.208   4.361  10.907  0.6709  0.0208 -0.0373
  101OSM   H12A10123   2.105   4.353  10.938  0.5494 -2.7394 -0.9785
  101OSM   H12B10124   2.232   4.262  10.870  0.7648  0.6155 -1.5860
  101OSM    C1110125   2.218   4.449  10.777  0.6492 -0.2730 -0.2040
  101OSM   H11A10126   2.159   4.402  10.696 -0.4928  0.7070  0.0532
  101OSM   H11B10127   2.323   4.455  10.743  0.7830 -0.4702  0.1605
  101OSM      P10128   2.024   4.615  10.830  0.4988  0.3621  0.0159
  101OSM    O1310129   1.946   4.489  10.865  0.2122 -0.2700  0.4984
  101OSM    O1410130   2.014   4.729  10.926 -0.3315  0.2863  0.1755
  101OSM    O1110131   1.973   4.661  10.687  0.2526 -0.2965 -0.1819
  101OSM    O1210132   2.180   4.579  10.804 -0.0818  0.2823 -0.8539
  101OSM    C1S10133   2.043   4.776  10.625  0.5967  0.4930 -0.2018
  101OSM    H1S10134   2.153   4.772  10.641  1.0588 -0.7306 -3.3288
  101OSM    H1T10135   2.001   4.873  10.659 -2.4325 -0.5960 -0.6653
  101OSM     NF10136   2.083   4.891  10.399  1.1203 -0.3515 -0.9677
  101OSM    HNF10137   2.052   4.985  10.394  1.2784 -0.2936 -0.8389
  101OSM    C2S10138   2.010   4.785  10.477 -0.2752 -0.1707 -0.1107
  101OSM    H2S10139   2.029   4.685  10.432 -0.1116 -0.8151  1.3684
  101OSM    C3S10140   1.854   4.807  10.456  0.7053 -0.7475 -0.1480
  101OSM    H3S10141   1.841   4.916  10.467 -2.0014 -0.7981 -2.4605
  101OSM     O310142   1.766   4.732  10.546 -0.2409  0.2870 -0.1461
  101OSM    HO310143   1.834   4.701  10.605 -0.2144 -1.5264 -1.1056
  101OSM    C4S10144   1.819   4.776  10.313 -0.2131 -0.5301 -0.3381
  101OSM    H4S10145   1.844   4.852  10.237  1.0702 -1.9709 -1.4148
  101OSM    C5S10146   1.783   4.661  10.250 -0.4519  0.0171 -0.0878
  101OSM    H5S10147   1.789   4.564  10.302  0.1024  0.3864  0.5573
  101OSM    C6S10148   1.760   4.652  10.100 -0.8494  0.0322 -0.3435
  101OSM    H6S10149   1.774   4.545  10.071 -0.3415 -0.2116  0.7653
  101OSM    H6T10150   1.842   4.708  10.051 -0.3019  0.4102  0.9836
  101OSM    C7S10151   1.631   4.702  10.044  0.7530 -0.5308 -0.1774
  101OSM    H7S10152   1.631   4.813  10.054 -0.2636 -0.3817 -1.8014
  101OSM    H7T10153   1.550   4.649  10.099  0.3718  0.5446  0.3173
  101OSM    C8S10154   1.620   4.667   9.891  0.0541 -0.3498  0.2878
  101OSM    H8S10155   1.619   4.556   9.879  1.2141 -0.6829  2.9143
  101OSM    H8T10156   1.713   4.711   9.847 -0.3751  1.4224  1.1039
  101OSM    C9S10157   1.502   4.723   9.820 -0.0270  0.3926  0.2522
  101OSM    H9S10158   1.523   4.726   9.711  3.0779  1.7137  0.8216
  101OSM    H9T10159   1.479   4.822   9.865 -0.5482 -0.0790  1.0318
  101OSM   C10S10160   1.383   4.628   9.845  0.0392  1.0544  0.2644
  101OSM   H10S10161   1.367   4.614   9.954 -1.5012  0.5463 -0.0108
  101OSM   H10T10162   1.383   4.525   9.805  2.3366  1.1221  0.0619
  101OSM   C11S10163   1.245   4.678   9.789 -0.3571  0.6817  0.2297
  101OSM   H11S10164   1.230   4.780   9.830 -0.3956  1.4368 -1.6233
  101OSM   H11T10165   1.159   4.620   9.830 -0.0884 -1.2127 -1.7601
  101OSM   C12S10166   1.236   4.682   9.630 -1.3520 -0.0124  0.4468
  101OSM   H12S10167   1.314   4.735   9.571 -0.6516 -0.6560  0.7797
  101OSM   H12T10168   1.140   4.735   9.611 -0.8576  0.7541  0.0766
  101OSM   C13S10169   1.228   4.537   9.568 -0.3981 -1.0629  0.1260
  101OSM   H13S10170   1.148   4.480   9.620 -1.4152 -1.7791 -2.1180
  101OSM   H13T10171   1.328   4.490   9.572  0.8871  1.7080  1.9538
  101OSM   C14S10172   1.172   4.542   9.421 -0.1204 -0.6581 -0.0425
  101OSM   H14S10173   1.216   4.627   9.365 -1.2073  1.1342  1.7361
  101OSM   H14T10174   1.061   4.541   9.426 -0.1488 -0.6948 -0.6579
  101OSM   C15S10175   1.206   4.414   9.344  0.9568 -0.1511  0.2084
  101OSM   H15S10176   1.179   4.319   9.393  0.5825 -1.1488 -1.8686
  101OSM   H15T10177   1.317   4.415   9.341  0.9666 -0.6497  0.3511
  101OSM   C16S10178   1.151   4.412   9.205  0.4350 -0.4328  0.7179
  101OSM   H16S10179   1.172   4.513   9.162 -1.8128 -0.1768  0.1125
  101OSM   H16T10180   1.041   4.400   9.216  0.2839 -0.5599 -0.7971
  101OSM   C17S10181   1.208   4.300   9.120  0.4981  0.0934  0.5417
  101OSM   H17S10182   1.192   4.204   9.175  1.8660 -0.4847 -0.0347
  101OSM   H17T10183   1.317   4.298   9.098  0.3105 -1.5437 -0.3184
  101OSM   C18S10184   1.139   4.283   8.987 -0.0255  0.3001 -0.1795
  101OSM   H18S10185   1.158   4.181   8.946  0.2408  0.5477 -0.6719
  101OSM   H18T10186   1.185   4.354   8.915 -1.3734 -0.4867 -1.8548
  101OSM   H18U10187   1.031   4.306   8.987  0.2513  1.6402  0.2784
  101OSM    C1F10188   2.214   4.873  10.373  0.1021 -0.2261 -0.0102
  101OSM     OF10189   2.268   4.776  10.410 -0.0295 -0.6017 -0.3939
  101OSM    C2F10190   2.276   4.985  10.300  0.2560 -0.1574 -0.0972
  101OSM    H2F10191   2.302   5.064  10.374  0.6365  1.4531 -1.9021
  101OSM    H2G10192   2.206   5.035  10.229  1.9095 -1.2817 -2.5886
  101OSM    C3F10193   2.410   4.950  10.232 -0.6816  1.0491  0.1374
  101OSM    H3F10194   2.403   4.851  10.182 -1.8351  0.4368  1.5057
  101OSM    H3G10195   2.483   4.949  10.316  1.1284  0.1211 -1.3843
  101OSM    C4F10196   2.465   5.044  10.129  0.3430  0.3526 -0.6334
  101OSM    H4F10197   2.482   5.146  10.169  0.8686 -1.3160  3.6661
  101OSM    H4G10198   2.395   5.062  10.044 -0.1488  1.5723  0.0249
  101OSM    C5F10199   2.598   5.006  10.063  0.3257  0.3195 -0.3043
  101OSM    H5F10200   2.584   4.902  10.027 -1.1329 -0.3992  2.2541
  101OSM    H5G10201   2.682   5.004  10.135  1.1633  0.6348 -1.2522
  101OSM    C6F10202   2.636   5.108   9.955  0.9421  0.1180 -0.0720
  101OSM    H6F10203   2.632   5.208  10.004  0.3020 -0.5733  1.3040
  101OSM    H6G10204   2.741   5.099   9.920  1.0529 -1.0043  0.5419
  101OSM    C7F10205   2.553   5.100   9.825 -0.2132  0.1186  0.3744
  101OSM    H7F10206   2.587   5.182   9.758  0.6012  0.6526  1.4355
  101OSM    H7G10207   2.450   5.134   9.850 -1.2097 -0.2854 -2.9330
  101OSM    C8F10208   2.553   4.966   9.744  0.6923 -0.2936  0.4508
  101OSM    H8F10209   2.547   4.879   9.814  1.9263  1.2116  2.4745
  101OSM    H8G10210   2.648   4.967   9.687  0.6913  1.3226  0.4627
  101OSM    C9F10211   2.435   4.963   9.641 -0.1119 -0.0415 -0.2266
  101OSM    H9F10212   2.430   5.056   9.583 -2.0265  0.8240  1.2737
  101OSM   C10F10213   2.345   4.872   9.610  0.0007  1.0026 -0.3331
  101OSM   H10F10214   2.257   4.913   9.558 -1.4435 -0.3070  0.9930
  101OSM   C11F10215   2.342   4.740   9.672 -0.5920  0.1827 -0.0954
  101OSM   H11F10216   2.433   4.711   9.728 -1.5313  1.1137  2.0018
  101OSM   H11G10217   2.325   4.668   9.590 -1.7448 -0.1977  0.4575
  101OSM   C12F10218   2.230   4.732   9.777  0.6065  0.5645 -0.2500
  101OSM   H12F10219   2.215   4.623   9.787  0.4329  0.6362  0.2665
  101OSM   H12G10220   2.135   4.773   9.737 -0.2711  1.0065  2.2030
  101OSM   C13F10221   2.253   4.785   9.918 -0.9457  0.0118 -0.8479
  101OSM   H13F10222   2.269   4.895   9.907 -1.1452  0.2607  1.1470
  101OSM   H13G10223   2.351   4.742   9.951  0.3694  3.3818 -0.1499
  101OSM   C14F10224   2.145   4.754  10.019  0.1081  0.5528  0.2765
  101OSM   H14F10225   2.043   4.745   9.975  0.8988 -1.1820 -1.2897
  101OSM   H14G10226   2.129   4.839  10.088  0.8271  0.6315  0.3525
  101OSM   C15F10227   2.181   4.645  10.117  0.7505  0.9896 -0.4964
  101OSM   H15F10228   2.098   4.639  10.191  1.0002 -1.2967 -0.3476
  101OSM   H15G10229   2.271   4.670  10.177  1.3290  1.5247 -1.5945
  101OSM   C16F10230   2.199   4.507  10.047  0.3095 -0.1614 -0.0383
  101OSM   H16F10231   2.286   4.513   9.978 -0.2486  5.5506 -0.4488
  101OSM   H16G10232   2.119   4.481   9.975  1.4956  0.5603 -1.6421
  101OSM   C17F10233   2.219   4.405  10.152 -0.7020 -0.0820 -0.0468
  101OSM   H17F10234   2.137   4.404  10.227  0.5850  0.0103  1.3943
  101OSM   H17G10235   2.313   4.437  10.202 -0.8554 -0.7920  0.7060
  101OSM   C18F10236   2.231   4.258  10.110  0.5738 -0.0296  1.0392
  101OSM   H18F10237   2.322   4.236  10.049  0.7691 -0.4475  1.4770
  101OSM   H18G10238   2.139   4.237  10.051  1.9196  0.6694 -1.4099
  101OSM   H18H10239   2.240   4.183  10.192  0.1877 -1.9643 -0.6235
  102OSM      N10240   3.781   6.739  10.762  0.0166  0.0644 -0.7290
  102OSM    C1510241   3.799   6.628  10.662 -0.3107 -0.7215 -0.6770
  102OSM   H15A10242   3.779   6.534  10.711  1.2751 -0.4170  0.6089
  102OSM   H15B10243   3.903   6.618  10.632 -0.0039 -1.2592  0.5142
  102OSM   H15C10244   3.744   6.635  10.570  1.7995 -0.3238 -1.9435
  102OSM    C1410245   3.629   6.770  10.793 -0.0704 -0.4280 -0.9463
  102OSM   H14A10246   3.612   6.824  10.885 -1.1903 -1.0046 -0.7958
  102OSM   H14B10247   3.574   6.677  10.790 -0.2208 -0.3777  0.3051
  102OSM   H14C10248   3.579   6.828  10.716 -1.3704 -0.1492  0.0898
  102OSM    C1310249   3.852   6.715  10.891 -0.0364  0.1156 -0.6050
  102OSM   H13A10250   3.954   6.687  10.869  0.7120  2.5613 -0.4240
  102OSM   H13B10251   3.815   6.635  10.953  0.8347  0.4711  0.3920
  102OSM   H13C10252   3.847   6.806  10.949  0.4684  0.9955 -1.9109
  102OSM    C1210253   3.837   6.868  10.694  0.0595  0.3310  0.0839
  102OSM   H12A10254   3.825   6.951  10.761  0.1450 -0.6119  1.2773
  102OSM   H12B10255   3.766   6.895  10.618 -1.4235 -1.2667  0.8577
  102OSM    C1110256   3.983   6.858  10.628 -0.7233 -0.8122 -0.1018
  102OSM   H11A10257   4.008   6.960  10.592 -0.8579 -1.2145 -1.3708
  102OSM   H11B10258   3.989   6.790  10.540 -1.5907 -0.2995 -0.5619
  102OSM      P10259   4.189   6.703  10.706 -0.1821  0.5635 -0.1653
  102OSM    O1310260   4.301   6.715  10.799 -0.3622 -0.3155  0.3141
  102OSM    O1410261   4.104   6.583  10.718  0.0182  0.4146 -0.1476
  102OSM    O1110262   4.249   6.713  10.558 -0.1069 -0.0165  0.0486
  102OSM    O1210263   4.091   6.830  10.730  0.2388 -0.0024  0.4145
  102OSM    C1S10264   4.304   6.848  10.537 -0.2881  0.1887 -0.3848
  102OSM    H1S10265   4.403   6.846  10.587 -0.2086  0.7232 -0.5216
  102OSM    H1T10266   4.242   6.929  10.580  0.4715  0.9958 -0.8100
  102OSM     NF10267   4.397   7.005  10.360  0.0222  0.3060 -0.6617
  102OSM    HNF10268   4.351   7.092  10.341 -0.7030  0.0411 -0.1334
  102OSM    C2S10269   4.323   6.880  10.388 -0.1067 -0.6162 -0.7237
  102OSM    H2S10270   4.380   6.803  10.332  0.8620 -2.0989  2.1556
  102OSM    C3S10271   4.181   6.873  10.328 -0.1980  0.1654  0.1898
  102OSM    H3S10272   4.124   6.954  10.378  0.1936  1.5979 -1.6410
  102OSM     O310273   4.119   6.746  10.334  0.8147  0.0477  0.3947
  102OSM    HO310274   4.167   6.704  10.406  0.1343 -1.0941  0.1944
  102OSM    C4S10275   4.189   6.912  10.178 -0.3497  0.2747  0.1701
  102OSM    H4S10276   4.265   6.869  10.111 -0.4694 -0.5202  0.5401
  102OSM    C5S10277   4.101   6.998  10.125  0.6781 -0.1897 -0.6684
  102OSM    H5S10278   4.019   7.034  10.189  0.9866 -1.7617  0.6270
  102OSM    C6S10279   4.105   7.039   9.980 -0.1910 -0.3549 -0.6860
  102OSM    H6S10280   4.198   7.000   9.934  0.9586  0.6921  0.7335
  102OSM    H6T10281   4.095   7.149   9.981 -0.0980 -0.3443 -0.9074
  102OSM    C7S10282   3.979   6.982   9.897  0.4183  0.3471 -0.3619
  102OSM    H7S10283   3.883   7.018   9.941  0.5829  1.0868 -0.6009
  102OSM    H7T10284   3.985   6.872   9.913  0.9459  0.2469 -1.2269
  102OSM    C8S10285   3.987   7.024   9.758 -0.1482 -0.4097  0.3788
  102OSM    H8S10286   4.073   6.974   9.708 -1.5845  0.5577 -3.1909
  102OSM    H8T10287   3.995   7.134   9.758 -3.7852 -0.0971  0.6062
  102OSM    C9S10288   3.872   6.969   9.659 -0.1506 -0.5249 -0.5045
  102OSM    H9S10289   3.775   7.000   9.702 -1.5988 -2.8488 -1.9933
  102OSM    H9T10290   3.883   6.859   9.664  1.6156 -0.3203  0.5258
  102OSM   C10S10291   3.879   7.031   9.514 -0.7406  0.8116  0.3601
  102OSM   H10S10292   3.983   7.019   9.478 -0.9472 -0.7358  0.2131
  102OSM   H10T10293   3.852   7.138   9.519 -0.6038  0.8961 -0.5976
  102OSM   C11S10294   3.777   6.967   9.418 -0.3775  0.3681 -0.0795
  102OSM   H11S10295   3.673   6.994   9.449  0.2661  1.1147  1.4521
  102OSM   H11T10296   3.794   6.857   9.414 -1.1419  0.2804 -1.4142
  102OSM   C12S10297   3.779   7.016   9.271 -0.0868  0.4306  0.1141
  102OSM   H12S10298   3.864   6.964   9.221  0.8427  0.8524  1.2410
  102OSM   H12T10299   3.799   7.125   9.262 -0.3742  0.3045 -2.6247
  102OSM   C13S10300   3.653   6.984   9.183  0.6281 -0.6798  0.1190
  102OSM   H13S10301   3.559   7.005   9.240  0.7129  0.5126 -0.1713
  102OSM   H13T10302   3.663   6.874   9.175  1.2250 -0.5829 -0.4474
  102OSM   C14S10303   3.660   7.068   9.059 -0.1421  0.4591  0.0591
  102OSM   H14S10304   3.760   7.052   9.015  0.6763  2.6140  1.0777
  102OSM   H14T10305   3.666   7.175   9.087 -1.2719  0.1440  1.6131
  102OSM   C15S10306   3.539   7.033   8.973  0.2328 -0.3814  0.4762
  102OSM   H15S10307   3.441   7.048   9.024 -0.7579  0.5528 -1.6717
  102OSM   H15T10308   3.548   6.926   8.943 -2.8784 -0.3731 -0.6548
  102OSM   C16S10309   3.541   7.120   8.844  0.2362 -0.3790 -0.3146
  102OSM   H16S10310   3.514   7.226   8.863  1.4529 -0.4038  1.6395
  102OSM   H16T10311   3.459   7.094   8.774  0.3424 -3.2678  0.5736
  102OSM   C17S10312   3.679   7.118   8.776  0.4319  0.1661  0.2725
  102OSM   H17S10313   3.717   7.015   8.797 -1.6151 -0.7320 -0.2913
  102OSM   H17T10314   3.738   7.178   8.849  0.3995  0.7281 -0.1602
  102OSM   C18S10315   3.687   7.164   8.625  0.0858  0.4497 -0.7841
  102OSM   H18S10316   3.794   7.178   8.598  0.5797 -0.9708  0.3817
  102OSM   H18T10317   3.634   7.257   8.595 -0.1735  0.7517  0.5807
  102OSM   H18U10318   3.647   7.083   8.561 -1.3877  0.6822 -0.1686
  102OSM    C1F10319   4.525   7.005  10.397  0.4749 -0.0252  0.3798
  102OSM     OF10320   4.580   6.910  10.457  0.2049  0.5421  0.2142
  102OSM    C2F10321   4.591   7.136  10.389  0.3944  0.1800 -0.3098
  102OSM    H2F10322   4.632   7.170  10.487  1.7373 -1.2233 -0.3560
  102OSM    H2G10323   4.513   7.204  10.350 -1.4980 -0.7866  1.6914
  102OSM    C3F10324   4.705   7.127  10.283 -0.0222  0.4028 -1.0124
  102OSM    H3F10325   4.772   7.041  10.304 -0.0059 -0.1263 -3.1008
  102OSM    H3G10326   4.755   7.226  10.294 -0.1308  0.4928 -1.3415
  102OSM    C4F10327   4.652   7.115  10.144 -0.2356  0.1521 -0.0845
  102OSM    H4F10328   4.574   7.186  10.108 -1.2641 -1.0748 -0.3052
  102OSM    H4G10329   4.598   7.019  10.130  1.1335 -0.8673  1.3970
  102OSM    C5F10330   4.771   7.123  10.044  0.3627  0.1688 -0.0821
  102OSM    H5F10331   4.833   7.031  10.052  1.8826  1.1285 -0.6655
  102OSM    H5G10332   4.837   7.202  10.087 -0.1064  0.2638  0.4726
  102OSM    C6F10333   4.719   7.126   9.903 -1.1779 -0.6775 -0.7696
  102OSM    H6F10334   4.802   7.166   9.841 -0.0872 -2.4229 -0.4889
  102OSM    H6G10335   4.651   7.213   9.901 -0.6125 -0.1843  1.1159
  102OSM    C7F10336   4.663   7.004   9.841 -0.3137 -0.3840 -0.5763
  102OSM    H7F10337   4.582   6.968   9.908  0.3077 -0.2533  0.2577
  102OSM    H7G10338   4.739   6.924   9.851  0.6601  0.3488 -1.9759
  102OSM    C8F10339   4.622   7.020   9.700 -1.0317 -0.4826  0.6254
  102OSM    H8F10340   4.711   7.056   9.644 -0.2114 -1.1900  1.4739
  102OSM    H8G10341   4.531   7.084   9.688 -1.5908 -1.1988  0.9893
  102OSM    C9F10342   4.590   6.889   9.641  0.3203 -0.4666  0.5940
  102OSM    H9F10343   4.672   6.815   9.646  0.9996  0.3327  1.3223
  102OSM   C10F10344   4.480   6.855   9.575  0.1627  0.4398  0.2153
  102OSM   H10F10345   4.475   6.748   9.551  1.2102 -0.1049  2.3204
  102OSM   C11F10346   4.355   6.926   9.547  0.4289 -0.0533  1.3224
  102OSM   H11F10347   4.356   7.031   9.582 -3.0005  0.5914 -0.2907
  102OSM   H11G10348   4.273   6.880   9.607  0.4038 -0.7630  0.7570
  102OSM   C12F10349   4.321   6.904   9.393 -0.2058 -0.1461 -0.0664
  102OSM   H12F10350   4.393   6.954   9.326 -0.7013 -0.8196 -1.1244
  102OSM   H12G10351   4.235   6.972   9.373 -1.4904 -1.3019  1.4750
  102OSM   C13F10352   4.298   6.772   9.333 -0.8968  0.2523  0.6709
  102OSM   H13F10353   4.210   6.727   9.385 -1.8213 -0.0356 -1.1019
  102OSM   H13G10354   4.394   6.718   9.348 -0.0117  0.2698 -4.3393
  102OSM   C14F10355   4.275   6.769   9.181 -0.5293  0.2920 -0.7616
  102OSM   H14F10356   4.285   6.662   9.151  0.4764  0.2668 -0.3485
  102OSM   H14G10357   4.363   6.807   9.124  0.3299 -0.4063  0.0671
  102OSM   C15F10358   4.142   6.828   9.132 -0.1775 -0.3581 -0.2966
  102OSM   H15F10359   4.110   6.912   9.198  2.8794  0.0146  0.8030
  102OSM   H15G10360   4.055   6.760   9.143  1.2597 -2.0829  0.5290
  102OSM   C16F10361   4.159   6.879   8.986  0.0848  0.1210 -0.0764
  102OSM   H16F10362   4.159   6.791   8.919 -2.5447  2.5086 -3.3520
  102OSM   H16G10363   4.254   6.933   8.965  0.7520 -0.6769  0.8574
  102OSM   C17F10364   4.041   6.970   8.931 -0.0961 -1.0708  0.3601
  102OSM   H17F10365   3.941   6.956   8.977 -0.4627  1.2556  0.3464
  102OSM   H17G10366   4.040   6.946   8.823  0.4879  1.7260 -0.3025
  102OSM   C18F10367   4.078   7.118   8.946  0.6339 -0.3499  0.4126
  102OSM   H18F10368   4.065   7.146   9.053  2.6262 -2.0629  1.1430
  102OSM   H18G10369   4.010   7.181   8.884 -0.8347 -1.1651  1.1728
  102OSM   H18H10370   4.187   7.139   8.934  0.6268 -0.7327 -0.3620
  103OSM      N10371   3.432   3.157  10.909 -0.3883 -0.1009 -0.1697
  103OSM    C1510372   3.359   3.263  10.996  0.2010 -0.2157  0.3162
  103OSM   H15A10373   3.304   3.329  10.931 -1.6738 -0.9254  1.1365
  103OSM   H15B10374   3.428   3.310  11.064  1.6685  0.9807 -1.9508
  103OSM   H15C10375   3.278   3.213  11.048  0.7809 -0.7998  0.6558
  103OSM    C1410376   3.518   3.230  10.809  0.2861 -0.0315 -0.6803
  103OSM   H14A10377   3.589   3.296  10.858  0.4420 -1.8347  1.6229
  103OSM   H14B10378   3.450   3.279  10.741  1.0493  1.3563 -0.4637
  103OSM   H14C10379   3.567   3.152  10.753  0.2356 -1.2302  0.8924
  103OSM    C1310380   3.530   3.080  10.996 -0.2392 -0.3004 -0.4435
  103OSM   H13A10381   3.588   3.017  10.931 -0.7005  0.0045 -1.1547
  103OSM   H13B10382   3.469   3.039  11.075 -2.0079 -1.1733 -2.2144
  103OSM   H13C10383   3.588   3.153  11.052 -0.1134  0.5775 -1.7046
  103OSM    C1210384   3.344   3.059  10.851 -0.0787  0.2051  0.0408
  103OSM   H12A10385   3.286   3.032  10.939 -3.2153 -0.1180 -2.0454
  103OSM   H12B10386   3.401   2.970  10.832  1.8151  1.2080  0.9023
  103OSM    C1110387   3.256   3.099  10.741 -0.6310  0.4096  0.6329
  103OSM   H11A10388   3.183   3.018  10.718 -0.1488  0.5779 -1.5702
  103OSM   H11B10389   3.314   3.102  10.646 -0.4451 -0.3624  0.7182
  103OSM      P10390   3.051   3.235  10.810  0.0182 -0.3095 -0.3125
  103OSM    O1310391   3.018   3.105  10.881  0.2864  0.1654 -0.1688
  103OSM    O1410392   3.038   3.362  10.893  0.0148  0.6609 -0.2241
  103OSM    O1110393   2.960   3.253  10.688 -1.0333  0.8713 -0.2292
  103OSM    O1210394   3.199   3.232  10.751 -0.2622 -0.4004  0.6566
  103OSM    C1S10395   2.994   3.340  10.577 -0.9985 -0.8755 -0.1059
  103OSM    H1S10396   3.058   3.278  10.512  0.4432  0.6471 -0.1678
  103OSM    H1T10397   3.053   3.427  10.613  1.3416 -1.5854 -2.1178
  103OSM     NF10398   2.918   3.455  10.375  0.0342  0.1021  0.4007
  103OSM    HNF10399   2.909   3.554  10.376  1.8174  0.2871  0.7068
  103OSM    C2S10400   2.870   3.382  10.495  0.9255 -0.5928  0.1788
  103OSM    H2S10401   2.827   3.283  10.467  2.1391 -0.8664 -0.7791
  103OSM    C3S10402   2.771   3.467  10.578  0.0611  0.3220 -0.3032
  103OSM    H3S10403   2.821   3.566  10.593  1.4089 -0.2400 -0.9924
  103OSM     O310404   2.742   3.412  10.706  0.3319 -0.9846 -0.7359
  103OSM    HO310405   2.793   3.330  10.707  2.6636  0.4181 -1.6881
  103OSM    C4S10406   2.634   3.482  10.514  0.0676 -0.5622  0.1910
  103OSM    H4S10407   2.562   3.403  10.541 -1.5407  0.2158 -1.6626
  103OSM    C5S10408   2.610   3.589  10.440 -0.7817  0.0570 -0.4072
  103OSM    H5S10409   2.686   3.668  10.431  1.3982 -1.8866  0.1158
  103OSM    C6S10410   2.476   3.609  10.370  0.6801 -0.0270  0.5988
  103OSM    H6S10411   2.417   3.696  10.406 -1.7905 -1.5643  0.3684
  103OSM    H6T10412   2.416   3.515  10.373  1.0323 -0.3435 -1.8382
  103OSM    C7S10413   2.516   3.633  10.220 -0.7229  0.7856  0.6572
  103OSM    H7S10414   2.582   3.722  10.212  2.0263 -1.2391  0.1455
  103OSM    H7T10415   2.426   3.651  10.159 -1.6370  1.4308  2.1621
  103OSM    C8S10416   2.585   3.514  10.152  0.2133 -0.2169  0.0019
  103OSM    H8S10417   2.518   3.427  10.170 -0.3448  0.3244  0.5085
  103OSM    H8T10418   2.682   3.489  10.200 -1.0179 -1.3267  1.9548
  103OSM    C9S10419   2.604   3.527  10.002 -0.3875  1.0518  0.9232
  103OSM    H9S10420   2.675   3.445   9.983 -3.6118 -1.7900  0.6364
  103OSM    H9T10421   2.656   3.624   9.983  1.3828 -0.0645 -0.0020
  103OSM   C10S10422   2.478   3.507   9.918 -0.0090 -0.5196 -0.2040
  103OSM   H10S10423   2.403   3.569   9.971  1.5111 -0.4961  1.9684
  103OSM   H10T10424   2.432   3.406   9.912 -0.7144 -0.0469 -3.6673
  103OSM   C11S10425   2.490   3.562   9.775 -0.5009  0.1813  0.2550
  103OSM   H11S10426   2.549   3.481   9.726  0.9739  0.1414  2.0301
  103OSM   H11T10427   2.540   3.660   9.763  2.4668 -1.3057 -0.1221
  103OSM   C12S10428   2.359   3.590   9.698 -0.2885  0.1876 -1.0186
  103OSM   H12S10429   2.321   3.685   9.743  1.7506  0.8624 -0.6848
  103OSM   H12T10430   2.288   3.509   9.723  0.3515 -0.1846 -0.3952
  103OSM   C13S10431   2.382   3.613   9.550  0.2029 -0.1324  0.6582
  103OSM   H13S10432   2.465   3.544   9.524  0.3974  1.0724 -2.1373
  103OSM   H13T10433   2.398   3.722   9.536  1.8162 -0.5519 -0.9192
  103OSM   C14S10434   2.265   3.562   9.459 -0.2544  0.5272 -0.2528
  103OSM   H14S10435   2.170   3.616   9.482  0.1055  1.2723 -0.5231
  103OSM   H14T10436   2.261   3.452   9.478 -3.6412  0.7733  0.8431
  103OSM   C15S10437   2.288   3.583   9.308 -0.5219 -0.1063  0.3714
  103OSM   H15S10438   2.371   3.515   9.276  0.3050 -0.0381  2.3074
  103OSM   H15T10439   2.313   3.688   9.285  0.9448 -0.2816  1.0978
  103OSM   C16S10440   2.172   3.545   9.211  0.1487  0.4835 -0.6074
  103OSM   H16S10441   2.088   3.615   9.232 -0.1653 -0.4700  1.4931
  103OSM   H16T10442   2.133   3.448   9.248 -2.0151  0.8309 -1.8631
  103OSM   C17S10443   2.206   3.529   9.064 -1.5417  0.7944 -0.0729
  103OSM   H17S10444   2.118   3.495   9.005  0.7497  0.2923 -3.3371
  103OSM   H17T10445   2.288   3.458   9.043 -1.1519  1.4367 -0.7645
  103OSM   C18S10446   2.234   3.661   9.003  0.9533 -0.0864 -0.3121
  103OSM   H18S10447   2.342   3.683   9.017  0.6031  1.4491  0.1169
  103OSM   H18T10448   2.163   3.735   9.048 -1.0179 -1.9860 -0.2169
  103OSM   H18U10449   2.212   3.668   8.894 -2.3440 -0.4876  0.2571
  103OSM    C1F10450   2.988   3.402  10.275 -0.7857  0.5802 -0.0405
  103OSM     OF10451   3.016   3.285  10.276 -0.2603 -0.2042  0.0162
  103OSM    C2F10452   3.052   3.499  10.173  0.2489 -0.4061  0.2833
  103OSM    H2F10453   3.127   3.439  10.116  0.9774 -0.0519  0.8525
  103OSM    H2G10454   3.108   3.568  10.240  0.9344 -0.5252 -0.1587
  103OSM    C3F10455   2.956   3.578  10.079 -0.8152 -0.3187 -0.1154
  103OSM    H3F10456   2.888   3.649  10.131  1.2518  2.2734 -0.8309
  103OSM    H3G10457   2.899   3.505  10.018  0.2533  0.6189 -2.2967
  103OSM    C4F10458   3.036   3.667   9.973 -0.5558  0.2527 -0.1039
  103OSM    H4F10459   3.085   3.615   9.888  0.5133  0.9613  0.0751
  103OSM    H4G10460   3.115   3.721  10.029 -1.9248  1.8583  0.3279
  103OSM    C5F10461   2.954   3.773   9.902  0.4604 -0.1009  0.0286
  103OSM    H5F10462   3.011   3.862   9.868  2.1416 -1.3793 -0.5475
  103OSM    H5G10463   2.888   3.819   9.979  0.6206 -0.2918  0.2797
  103OSM    C6F10464   2.873   3.721   9.784 -0.6399  0.6303  0.2644
  103OSM    H6F10465   2.779   3.779   9.776 -0.2367  1.3873  0.9546
  103OSM    H6G10466   2.835   3.619   9.807 -1.9160  1.8335  3.8126
  103OSM    C7F10467   2.956   3.724   9.655  0.7265  0.1121  0.5423
  103OSM    H7F10468   3.037   3.649   9.664  0.4462 -0.0281  2.0525
  103OSM    H7G10469   2.998   3.827   9.643  2.0800 -0.5331 -0.3548
  103OSM    C8F10470   2.870   3.692   9.533  0.7310 -0.2229 -0.3270
  103OSM    H8F10471   2.816   3.596   9.539 -2.1859  1.4659  1.4584
  103OSM    H8G10472   2.938   3.681   9.446 -1.4517  0.7693 -2.2262
  103OSM    C9F10473   2.759   3.793   9.503  0.4322  0.2643 -0.2950
  103OSM    H9F10474   2.755   3.883   9.566 -3.4576 -0.3296  0.4262
  103OSM   C10F10475   2.668   3.777   9.400  0.0073 -0.3610  0.4672
  103OSM   H10F10476   2.592   3.856   9.395  0.4363  0.1178  1.3760
  103OSM   C11F10477   2.674   3.664   9.309 -0.4598  0.6973  0.8106
  103OSM   H11F10478   2.601   3.582   9.328 -0.2638  0.5233  0.8105
  103OSM   H11G10479   2.771   3.611   9.308 -0.6310  0.3297 -2.8668
  103OSM   C12F10480   2.671   3.718   9.170  0.6641  0.7341 -0.7497
  103OSM   H12F10481   2.772   3.762   9.150  0.3820  1.2594 -1.0407
  103OSM   H12G10482   2.591   3.793   9.155 -0.9744 -0.5295  1.5434
  103OSM   C13F10483   2.644   3.604   9.075 -0.6172 -0.1016  0.0418
  103OSM   H13F10484   2.541   3.567   9.091 -0.6653 -0.1993 -0.4712
  103OSM   H13G10485   2.720   3.524   9.092  0.2392  0.3570 -1.4908
  103OSM   C14F10486   2.653   3.662   8.931 -1.0621 -0.2415 -0.7723
  103OSM   H14F10487   2.748   3.716   8.909 -1.0028  0.0025  0.0630
  103OSM   H14G10488   2.569   3.734   8.926  1.4606  2.7920 -1.4480
  103OSM   C15F10489   2.615   3.569   8.815  0.7444 -0.1400  0.4568
  103OSM   H15F10490   2.530   3.499   8.832  0.9097 -0.9784 -1.9719
  103OSM   H15G10491   2.702   3.500   8.804 -1.0404 -2.0541 -2.4848
  103OSM   C16F10492   2.609   3.644   8.680 -0.2486  0.7876 -0.5778
  103OSM   H16F10493   2.703   3.699   8.661  1.4240 -0.8687  2.5147
  103OSM   H16G10494   2.534   3.726   8.684  0.6370  1.5666  0.3543
  103OSM   C17F10495   2.580   3.557   8.557 -0.3541  0.2080  0.1536
  103OSM   H17F10496   2.667   3.490   8.542  0.4455  0.9457  1.3219
  103OSM   H17G10497   2.564   3.630   8.474  0.3271 -0.6988 -0.7810
  103OSM   C18F10498   2.448   3.483   8.572 -0.2395 -0.0070 -0.0502
  103OSM   H18F10499   2.456   3.392   8.636 -0.1810  0.3217  0.4160
  103OSM   H18G10500   2.416   3.461   8.468  0.4157 -2.2251  0.1835
  103OSM   H18H10501   2.368   3.549   8.613 -0.6066 -0.5098  0.0519
  104OSM      N10502   4.763   2.464  11.064  0.6106 -0.0971  0.0411
  104OSM    C1510503   4.786   2.608  11.100  0.0942  0.7169  0.9911
  104OSM   H15A10504   4.861   2.645  11.031  0.1151 -1.9512 -0.5145
  104OSM   H15B10505   4.819   2.620  11.202 -2.2033 -0.4073  1.8877
  104OSM   H15C10506   4.702   2.674  11.085 -0.2679  0.9030  3.6476
  104OSM    C1410507   4.878   2.383  11.096 -0.7240  0.0579  0.2048
  104OSM   H14A10508   4.872   2.279  11.066  1.1647 -0.0079 -0.0201
  104OSM   H14B10509   4.886   2.393  11.203 -0.7929 -4.1053  0.7031
  104OSM   H14C10510   4.969   2.431  11.062  0.0559 -1.9128 -0.5687
  104OSM    C1310511   4.653   2.404  11.147  0.3334  0.2084  0.0635
  104OSM   H13A10512   4.647   2.429  11.252  1.8957  0.4415  0.1009
  104OSM   H13B10513   4.641   2.299  11.128 -0.9259  0.0423  1.6397
  104OSM   H13C10514   4.570   2.455  11.098  0.2392  0.4967  0.5214
  104OSM    C1210515   4.740   2.459  10.916 -0.1175 -1.4045 -0.1300
  104OSM   H12A10516   4.751   2.358  10.881 -1.9715 -1.7147  0.1631
  104OSM   H12B10517   4.822   2.505  10.863 -2.6988  0.8490 -2.3160
  104OSM    C1110518   4.613   2.529  10.858  0.5744  0.2514 -0.5779
  104OSM   H11A10519   4.515   2.494  10.895  0.9155  0.6644  0.7155
  104OSM   H11B10520   4.629   2.510  10.749  3.5257  0.8401 -0.3028
  104OSM      P10521   4.699   2.771  10.807 -0.0155  0.5004 -0.0945
  104OSM    O1310522   4.630   2.903  10.820  0.4395 -0.4680 -0.3703
  104OSM    O1410523   4.835   2.763  10.860  0.0115 -0.5586 -0.0651
  104OSM    O1110524   4.702   2.728  10.657  0.5231 -0.3571 -0.3685
  104OSM    O1210525   4.609   2.669  10.887 -0.2181 -0.5270 -0.1781
  104OSM    C1S10526   4.576   2.737  10.584  0.2047  0.5130  0.6006
  104OSM    H1S10527   4.522   2.830  10.612  0.6013  0.6936  0.7685
  104OSM    H1T10528   4.512   2.648  10.607 -1.1967  1.2573 -0.3267
  104OSM     NF10529   4.483   2.791  10.370 -0.3416  0.1809  0.5266
  104OSM    HNF10530   4.454   2.731  10.296  3.2377 -0.2355 -0.6258
  104OSM    C2S10531   4.608   2.754  10.429 -0.3104 -0.1456 -0.3751
  104OSM    H2S10532   4.677   2.840  10.434  0.8302 -1.1456  1.9040
  104OSM    C3S10533   4.672   2.630  10.369 -0.7506  0.0803  0.3162
  104OSM    H3S10534   4.632   2.527  10.381  3.1015 -1.2077  3.2681
  104OSM     O310535   4.785   2.601  10.441 -0.5767 -0.1763  0.2366
  104OSM    HO310536   4.761   2.629  10.529 -0.3686  2.0947 -0.3832
  104OSM    C4S10537   4.717   2.647  10.225  0.0150  0.4682  0.9451
  104OSM    H4S10538   4.676   2.577  10.150 -0.1738 -0.5772  2.0026
  104OSM    C5S10539   4.802   2.741  10.167 -0.0412 -0.4316  0.3469
  104OSM    H5S10540   4.832   2.830  10.224  1.7005 -0.4647 -0.4964
  104OSM    C6S10541   4.839   2.743  10.024  0.5591 -0.5175 -0.4742
  104OSM    H6S10542   4.873   2.643   9.989  0.4661 -0.9475  0.6496
  104OSM    H6T10543   4.919   2.819  10.017 -0.6582  1.0226  1.8237
  104OSM    C7S10544   4.728   2.787   9.924  0.6331  0.0089  0.5939
  104OSM    H7S10545   4.683   2.880   9.965  1.0649  0.4196  0.1551
  104OSM    H7T10546   4.643   2.716   9.922 -0.4957  1.3664 -1.0806
  104OSM    C8S10547   4.792   2.818   9.795 -0.0593 -0.4793 -0.1262
  104OSM    H8S10548   4.872   2.746   9.769  1.4108  0.9152  0.5013
  104OSM    H8T10549   4.842   2.916   9.807 -0.6717 -0.2932  0.9820
  104OSM    C9S10550   4.704   2.829   9.677  0.1853  0.1394 -0.2165
  104OSM    H9S10551   4.623   2.905   9.685 -0.1138  0.0449 -2.0784
  104OSM    H9T10552   4.664   2.727   9.657  3.3580 -1.0129 -0.9102
  104OSM   C10S10553   4.788   2.868   9.555  0.4636 -0.1317 -0.8293
  104OSM   H10S10554   4.883   2.811   9.565  1.6757  1.5964 -2.2124
  104OSM   H10T10555   4.812   2.977   9.564 -0.7189  0.1887 -1.4674
  104OSM   C11S10556   4.725   2.842   9.418 -0.3183 -0.2858 -0.1126
  104OSM   H11S10557   4.631   2.901   9.415 -1.4583 -2.0226  0.5170
  104OSM   H11T10558   4.695   2.736   9.405  1.0025 -0.9109  1.7011
  104OSM   C12S10559   4.813   2.878   9.297 -0.4796  0.5512  0.2534
  104OSM   H12S10560   4.898   2.808   9.308 -0.1221  1.0087  0.4340
  104OSM   H12T10561   4.853   2.980   9.313  0.4270  0.5707 -2.0276
  104OSM   C13S10562   4.744   2.873   9.152 -0.1277  0.4078 -0.2546
  104OSM   H13S10563   4.817   2.935   9.096  1.5170  0.6550  2.1149
  104OSM   H13T10564   4.645   2.924   9.147 -1.4783 -2.1241 -0.0957
  104OSM   C14S10565   4.735   2.735   9.081 -0.4236 -0.2471 -0.2271
  104OSM   H14S10566   4.634   2.699   9.112 -0.6899  0.9962  0.3662
  104OSM   H14T10567   4.814   2.663   9.108 -2.1341 -2.2593 -0.4282
  104OSM   C15S10568   4.739   2.756   8.930 -0.8910 -1.3160  0.7285
  104OSM   H15S10569   4.840   2.791   8.901 -1.6636  1.2765  1.0218
  104OSM   H15T10570   4.673   2.828   8.878  1.4236 -0.1445 -0.6405
  104OSM   C16S10571   4.697   2.632   8.842  0.1720 -0.0145  0.6121
  104OSM   H16S10572   4.593   2.608   8.871  0.2075  0.1053  0.8392
  104OSM   H16T10573   4.762   2.550   8.882  0.5331 -0.1487 -0.2319
  104OSM   C17S10574   4.719   2.654   8.699 -0.0973  0.1101 -0.0010
  104OSM   H17S10575   4.822   2.691   8.684 -0.2099  1.2905  2.0130
  104OSM   H17T10576   4.645   2.731   8.667  1.0327  0.8416 -0.8778
  104OSM   C18S10577   4.698   2.528   8.620 -0.5541 -0.2196 -0.2998
  104OSM   H18S10578   4.600   2.486   8.653  0.2554 -2.8511 -1.0983
  104OSM   H18T10579   4.767   2.446   8.648 -0.0272  0.0991 -0.6738
  104OSM   H18U10580   4.697   2.541   8.510  1.8285  0.0596 -0.3079
  104OSM    C1F10581   4.417   2.907  10.394  0.6427  0.2851  0.1496
  104OSM     OF10582   4.463   2.995  10.459 -0.4525 -0.1267  0.2555
  104OSM    C2F10583   4.280   2.922  10.326 -0.1974 -0.2709  0.6802
  104OSM    H2F10584   4.210   2.936  10.411  0.5288 -0.7530  1.3608
  104OSM    H2G10585   4.254   2.832  10.267  0.0500 -1.2730  2.0973
  104OSM    C3F10586   4.293   3.052  10.232  0.1493  0.2936 -0.7217
  104OSM    H3F10587   4.332   3.141  10.285 -0.9055  0.1144  0.3728
  104OSM    H3G10588   4.190   3.084  10.209 -0.1195  0.3626  0.5730
  104OSM    C4F10589   4.373   3.037  10.110  0.1190 -0.2518  0.1848
  104OSM    H4F10590   4.351   2.939  10.061  2.9516 -0.2871 -1.1101
  104OSM    H4G10591   4.475   3.006  10.143 -0.7328 -1.9197  1.3768
  104OSM    C5F10592   4.381   3.150  10.013  0.4237  0.0949  0.0933
  104OSM    H5F10593   4.417   3.241  10.066 -0.6776 -0.5513  2.0188
  104OSM    H5G10594   4.278   3.168   9.975  1.1657  2.4215 -0.9383
  104OSM    C6F10595   4.448   3.105   9.879  0.2137  0.3018 -0.9390
  104OSM    H6F10596   4.384   3.023   9.839 -2.1535  1.5614  0.1766
  104OSM    H6G10597   4.556   3.082   9.890  0.1727 -0.1834 -1.4846
  104OSM    C7F10598   4.456   3.214   9.770 -0.0216 -0.8823 -0.3670
  104OSM    H7F10599   4.529   3.178   9.694  1.3786  1.7876 -0.3386
  104OSM    H7G10600   4.506   3.300   9.819 -0.2779 -1.4871  0.9775
  104OSM    C8F10601   4.319   3.237   9.703 -0.3015  0.9743  0.0341
  104OSM    H8F10602   4.242   3.269   9.777 -1.1681  1.7191 -1.1883
  104OSM    H8G10603   4.286   3.145   9.652  1.3130 -0.3705  1.3544
  104OSM    C9F10604   4.349   3.358   9.606  1.0407  0.0046  0.2713
  104OSM    H9F10605   4.309   3.451   9.649 -1.7187 -0.9104 -0.2079
  104OSM   C10F10606   4.392   3.347   9.483  0.9854 -0.0959  0.8948
  104OSM   H10F10607   4.425   3.439   9.432 -0.2981  0.5406  1.2057
  104OSM   C11F10608   4.432   3.223   9.406  0.5924 -0.6312  0.3550
  104OSM   H11F10609   4.447   3.139   9.477  0.2225 -1.6049 -0.6836
  104OSM   H11G10610   4.530   3.228   9.354  0.2092 -1.3356 -0.4517
  104OSM   C12F10611   4.330   3.188   9.295 -0.4395  0.6518 -0.2309
  104OSM   H12F10612   4.304   3.278   9.237  2.0935  0.8275 -1.1464
  104OSM   H12G10613   4.235   3.153   9.341  0.1392  0.1263  0.5926
  104OSM   C13F10614   4.371   3.077   9.201 -0.4143 -0.0870  0.1740
  104OSM   H13F10615   4.404   2.985   9.254  0.5417 -0.8058 -1.6337
  104OSM   H13G10616   4.462   3.109   9.147  1.7331  3.4987  5.5138
  104OSM   C14F10617   4.266   3.023   9.104  0.7014  0.6639 -0.1076
  104OSM   H14F10618   4.200   2.952   9.158  2.2227 -0.5575  0.1798
  104OSM   H14G10619   4.319   2.965   9.025 -1.4126 -0.0164 -1.0411
  104OSM   C15F10620   4.186   3.129   9.024  0.2532  0.9234  0.0459
  104OSM   H15F10621   4.134   3.204   9.087 -2.0001  1.1152 -1.9546
  104OSM   H15G10622   4.120   3.067   8.959  1.8290 -1.3541  0.5919
  104OSM   C16F10623   4.282   3.199   8.929 -0.4331 -0.8715  0.1903
  104OSM   H16F10624   4.351   3.131   8.875 -0.9616 -0.1109 -1.5051
  104OSM   H16G10625   4.338   3.270   8.993 -1.7400 -0.7097  1.1800
  104OSM   C17F10626   4.212   3.294   8.827 -0.6871  0.2366  0.4134
  104OSM   H17F10627   4.128   3.239   8.780  0.0134 -0.8197  0.3837
  104OSM   H17G10628   4.290   3.315   8.752  0.6537 -2.5353  0.9805
  104OSM   C18F10629   4.156   3.421   8.895  1.0426 -0.5394  0.2236
  104OSM   H18F10630   4.092   3.485   8.831 -0.7449 -0.1602  2.3455
  104OSM   H18G10631   4.237   3.475   8.947 -0.1846  3.5729 -1.9128
  104OSM   H18H10632   4.088   3.376   8.971  0.5647 -1.6487 -0.8374
  105OSM      N10633   1.272   5.773  11.163 -0.1158  0.3494 -0.8365
  105OSM    C1510634   1.146   5.812  11.224 -0.0397 -0.1415  0.2065
  105OSM   H15A10635   1.078   5.848  11.148  1.2731  1.8585 -0.0438
  105OSM   H15B10636   1.148   5.874  11.312  0.0801  0.8051 -0.4532
  105OSM   H15C10637   1.093   5.721  11.250  0.3325 -1.1059 -2.2422
  105OSM    C1410638   1.347   5.894  11.125 -0.0576 -0.6697 -0.4240
  105OSM   H14A10639   1.323   5.973  11.195 -1.5044 -2.5029  1.2191
  105OSM   H14B10640   1.320   5.927  11.026 -0.3849 -1.6258 -0.6613
  105OSM   H14C10641   1.452   5.869  11.120 -0.5875 -3.0639  0.0256
  105OSM    C1310642   1.360   5.711  11.278  0.8403 -0.2196  0.0447
  105OSM   H13A10643   1.303   5.635  11.330  1.5216 -1.6685 -1.2707
  105OSM   H13B10644   1.388   5.782  11.354 -4.7242  0.7929  1.3795
  105OSM   H13C10645   1.452   5.667  11.242 -0.6843 -3.3122 -0.1998
  105OSM    C1210646   1.257   5.666  11.058  0.1298  0.0183  0.3930
  105OSM   H12A10647   1.216   5.578  11.106 -1.0131  0.0452 -0.5258
  105OSM   H12B10648   1.354   5.637  11.020  0.1964  0.3722  0.2951
  105OSM    C1110649   1.169   5.687  10.937  0.8488 -0.5920  0.0721
  105OSM   H11A10650   1.072   5.730  10.969  2.1273  0.8941  2.1483
  105OSM   H11B10651   1.149   5.586  10.895 -1.2408 -0.4439  0.6491
  105OSM      P10652   1.338   5.731  10.747  0.6140 -0.3931  0.2061
  105OSM    O1310653   1.379   5.847  10.661  0.2527  1.0662  0.0881
  105OSM    O1410654   1.439   5.659  10.822 -0.0943 -0.3988  0.0353
  105OSM    O1110655   1.256   5.620  10.666  0.0573  0.3516  0.5300
  105OSM    O1210656   1.226   5.782  10.851  0.3254 -0.4658 -0.6057
  105OSM    C1S10657   1.148   5.654  10.578  0.2811  0.5315 -0.8471
  105OSM    H1S10658   1.099   5.740  10.628  2.4714  0.1572  2.1457
  105OSM    H1T10659   1.076   5.569  10.584 -1.2400  1.9332  1.8330
  105OSM     NF10660   1.065   5.717  10.366  0.5938  0.7158 -0.1397
  105OSM    HNF10661   1.029   5.661  10.292  3.1693 -2.1560  0.6846
  105OSM    C2S10662   1.187   5.674  10.429 -0.6492 -0.2810 -0.0187
  105OSM    H2S10663   1.266   5.752  10.417 -0.4194 -0.3318  1.0813
  105OSM    C3S10664   1.248   5.539  10.380 -0.7148  0.7626 -0.7381
  105OSM    H3S10665   1.173   5.464  10.413 -0.2340  0.5325 -0.1551
  105OSM     O310666   1.372   5.483  10.442  0.2567 -0.5241 -0.5237
  105OSM    HO310667   1.394   5.558  10.497  0.6961  1.0252 -2.7288
  105OSM    C4S10668   1.269   5.533  10.228  0.4101 -0.4050 -0.1132
  105OSM    H4S10669   1.342   5.604  10.187  0.9121 -1.7168 -1.5509
  105OSM    C5S10670   1.196   5.465  10.141 -0.0005 -0.1059  0.7371
  105OSM    H5S10671   1.116   5.396  10.171 -1.8797  1.2834 -0.9324
  105OSM    C6S10672   1.223   5.458   9.991  0.6556  0.8713  0.2368
  105OSM    H6S10673   1.153   5.523   9.935 -1.5018 -0.7482  0.9782
  105OSM    H6T10674   1.209   5.352   9.961 -3.4467  1.5492 -0.5927
  105OSM    C7S10675   1.358   5.508   9.944  0.7801  0.5000 -0.3127
  105OSM    H7S10676   1.437   5.458  10.004  0.1257 -1.0418 -0.7054
  105OSM    H7T10677   1.358   5.618   9.961 -0.3637 -0.0410  3.5315
  105OSM    C8S10678   1.382   5.463   9.800 -0.6284  0.0521  0.0439
  105OSM    H8S10679   1.379   5.352   9.790 -0.0417  0.0230  0.1803
  105OSM    H8T10680   1.489   5.486   9.781 -0.1988 -1.3093  0.7215
  105OSM    C9S10681   1.293   5.532   9.695 -0.3553  0.3647  0.0303
  105OSM    H9S10682   1.310   5.641   9.706  0.9651  0.4208 -2.2604
  105OSM    H9T10683   1.185   5.524   9.724 -0.4309  0.8043 -0.1347
  105OSM   C10S10684   1.324   5.489   9.551  0.2644  0.9030 -0.6093
  105OSM   H10S10685   1.235   5.501   9.485  1.3973  1.5196 -2.0563
  105OSM   H10T10686   1.335   5.379   9.561 -1.3968  0.8437  0.7922
  105OSM   C11S10687   1.463   5.543   9.504  0.6643 -0.0154 -0.6365
  105OSM   H11S10688   1.544   5.513   9.575 -0.5413  0.4122  0.9429
  105OSM   H11T10689   1.450   5.652   9.492  2.5874  0.2253 -0.6803
  105OSM   C12S10690   1.492   5.485   9.367 -0.2011  0.1152  0.5245
  105OSM   H12S10691   1.548   5.389   9.377 -2.5548 -1.1196  2.6289
  105OSM   H12T10692   1.572   5.553   9.332 -0.3772 -0.0882 -0.2816
  105OSM   C13S10693   1.373   5.460   9.270 -0.7032 -0.1318  0.3804
  105OSM   H13S10694   1.306   5.548   9.264  2.2961  2.0991 -2.5883
  105OSM   H13T10695   1.316   5.381   9.323 -1.7252  0.3943  0.0618
  105OSM   C14S10696   1.430   5.428   9.136  0.0924  0.5195 -0.1405
  105OSM   H14S10697   1.511   5.352   9.140 -0.1289  0.3539  1.6835
  105OSM   H14T10698   1.487   5.518   9.106  1.2263 -0.1886 -0.1786
  105OSM   C15S10699   1.318   5.396   9.033  0.0666 -0.2320  1.0731
  105OSM   H15S10700   1.234   5.464   9.055  0.3612  1.2082 -2.0286
  105OSM   H15T10701   1.280   5.292   9.049  0.9081 -0.5704  0.9194
  105OSM   C16S10702   1.353   5.389   8.890  0.1847 -0.3003 -0.4686
  105OSM   H16S10703   1.452   5.337   8.894  1.2055  1.6103 -0.5022
  105OSM   H16T10704   1.367   5.488   8.843 -0.9123  0.6180  1.1165
  105OSM   C17S10705   1.248   5.317   8.813 -0.4875 -0.0059 -0.0181
  105OSM   H17S10706   1.150   5.369   8.818 -0.0167  0.8297  0.5625
  105OSM   H17T10707   1.247   5.213   8.852  0.3098 -0.0035  0.0239
  105OSM   C18S10708   1.274   5.301   8.662 -0.1856 -0.1486 -0.1566
  105OSM   H18S10709   1.372   5.252   8.644 -0.1082 -0.2664  0.5589
  105OSM   H18T10710   1.265   5.395   8.603 -1.4769 -0.6778 -0.8082
  105OSM   H18U10711   1.200   5.239   8.609  0.1849  0.2901 -1.2097
  105OSM    C1F10712   1.004   5.832  10.394  0.2559 -0.2048 -0.2474
  105OSM     OF10713   1.058   5.911  10.471 -0.3533 -0.3272  0.4808
  105OSM    C2F10714   0.869   5.854  10.330 -0.2861  0.1322 -0.1094
  105OSM    H2F10715   0.793   5.880  10.406 -1.3210  2.4112 -1.8581
  105OSM    H2G10716   0.851   5.760  10.274 -1.1972  0.0049  0.3897
  105OSM    C3F10717   0.862   5.971  10.234 -0.0750  0.2406  0.7733
  105OSM    H3F10718   0.908   6.066  10.270  1.0146 -0.4699  1.2904
  105OSM    H3G10719   0.754   5.990  10.217  0.1258 -0.1391 -1.0445
  105OSM    C4F10720   0.910   5.937  10.088  0.3746  0.7464  0.5981
  105OSM    H4F10721   0.895   6.034  10.035 -0.4650 -0.0850 -0.7213
  105OSM    H4G10722   0.843   5.861  10.041  1.7012  0.5934 -1.1034
  105OSM    C5F10723   1.057   5.898  10.070  0.2129 -0.1589  0.7556
  105OSM    H5F10724   1.056   5.790  10.097 -1.6793 -0.3579 -0.0163
  105OSM    H5G10725   1.117   5.949  10.148 -0.3374  2.7915 -0.6778
  105OSM    C6F10726   1.127   5.933   9.937 -0.6606  0.2286  0.0947
  105OSM    H6F10727   1.227   5.885   9.946 -0.1874  1.0023 -0.8597
  105OSM    H6G10728   1.131   6.042   9.916  2.4945  0.6072  2.2825
  105OSM    C7F10729   1.047   5.871   9.824  0.2385  0.3117  0.5074
  105OSM    H7F10730   0.941   5.902   9.828  0.5787  1.2811  2.6713
  105OSM    H7G10731   1.042   5.761   9.838  0.6158  0.0490 -1.2851
  105OSM    C8F10732   1.114   5.889   9.685 -0.3271  0.2734 -0.3595
  105OSM    H8F10733   1.076   5.815   9.611 -1.7264 -1.1654  1.7086
  105OSM    H8G10734   1.216   5.850   9.707 -0.9015 -0.9418  0.2471
  105OSM    C9F10735   1.119   6.031   9.641 -0.0891 -0.2644 -0.0388
  105OSM    H9F10736   1.049   6.098   9.694  2.1134  0.1794  2.4268
  105OSM   C10F10737   1.194   6.075   9.538  0.6856  0.0874  0.3818
  105OSM   H10F10738   1.189   6.179   9.504 -0.1780 -0.5092 -1.4007
  105OSM   C11F10739   1.287   5.981   9.462 -0.4618 -0.0854 -0.1718
  105OSM   H11F10740   1.326   5.890   9.512  1.2979  0.4207 -0.5779
  105OSM   H11G10741   1.379   6.028   9.421  0.2967 -1.6818 -0.3022
  105OSM   C12F10742   1.227   5.905   9.336  0.2546  0.0785 -0.2145
  105OSM   H12F10743   1.116   5.905   9.339  0.1923 -0.6142 -1.8990
  105OSM   H12G10744   1.258   5.800   9.354  0.1087  0.4992  2.8060
  105OSM   C13F10745   1.285   5.958   9.205  0.1127 -0.0303  0.5649
  105OSM   H13F10746   1.391   5.991   9.212  0.5134 -1.2060  0.1838
  105OSM   H13G10747   1.235   6.056   9.189  2.4225  1.2279  0.7395
  105OSM   C14F10748   1.271   5.849   9.092  0.2227 -0.2585  0.3466
  105OSM   H14F10749   1.163   5.825   9.078 -0.4228  1.5361  2.0428
  105OSM   H14G10750   1.321   5.756   9.126  2.3411  1.5939  2.4321
  105OSM   C15F10751   1.327   5.899   8.955  0.9798  0.0064  0.1353
  105OSM   H15F10752   1.438   5.896   8.949  1.2091  1.3019  2.8401
  105OSM   H15G10753   1.295   6.005   8.943  1.7293  0.2506  0.2328
  105OSM   C16F10754   1.281   5.810   8.835 -0.0906 -0.0553 -1.0789
  105OSM   H16F10755   1.171   5.792   8.833  0.0768 -1.5252  0.9455
  105OSM   H16G10756   1.323   5.712   8.869  0.1835 -0.3139 -2.1546
  105OSM   C17F10757   1.348   5.858   8.702 -0.0216 -0.1794 -0.5897
  105OSM   H17F10758   1.458   5.869   8.701 -0.2657  2.4342 -2.1537
  105OSM   H17G10759   1.321   5.964   8.684 -0.1503  0.0103  0.6412
  105OSM   C18F10760   1.316   5.768   8.580 -0.0379 -0.0864 -0.4137
  105OSM   H18F10761   1.207   5.759   8.562 -0.1431 -0.2594  0.2731
  105OSM   H18G10762   1.360   5.669   8.604 -1.5415 -0.7137 -0.1980
  105OSM   H18H10763   1.357   5.801   8.482 -3.3125  0.2111 -1.7628
  106OSM      N10764   6.282   5.098  10.600 -0.7311 -0.2347  0.6600
  106OSM    C1510765   6.346   4.959  10.603 -0.3627  0.4349 -0.0140
  106OSM   H15A10766   6.365   4.918  10.702 -0.1828 -0.2771 -0.3433
  106OSM   H15B10767   6.439   4.965  10.549 -1.1136  0.1625 -1.3398
  106OSM   H15C10768   6.277   4.897  10.548 -0.6041 -0.7274  1.5417
  106OSM    C1410769   6.250   5.124  10.455 -0.1199 -0.4297  0.2428
  106OSM   H14A10770   6.224   5.227  10.438 -1.4487 -0.4639  1.9284
  106OSM   H14B10771   6.169   5.061  10.420 -0.6823 -0.3526  1.3796
  106OSM   H14C10772   6.337   5.101  10.395  1.1322  1.6698  1.2039
  106OSM    C1310773   6.152   5.083  10.677 -0.4775  0.0849 -0.2702
  106OSM   H13A10774   6.169   5.045  10.776  0.4856 -2.9779 -1.5494
  106OSM   H13B10775   6.086   5.008  10.635 -1.8037 -1.2530  4.0105
  106OSM   H13C10776   6.105   5.180  10.687  0.4808  0.5314 -0.1296
  106OSM    C1210777   6.371   5.206  10.666  0.9050 -0.0517 -0.6908
  106OSM   H12A10778   6.408   5.184  10.765 -0.6350  1.3160  0.2309
  106OSM   H12B10779   6.307   5.287  10.699  1.5278 -0.7519  2.3867
  106OSM    C1110780   6.476   5.275  10.577 -0.2953 -0.1167  0.0641
  106OSM   H11A10781   6.521   5.361  10.631  1.6896 -0.2297 -1.3416
  106OSM   H11B10782   6.439   5.312  10.478  0.3655  2.3905  0.7003
  106OSM      P10783   6.672   5.130  10.667 -0.1962 -0.1186  0.0156
  106OSM    O1310784   6.648   5.205  10.790  0.4756 -0.0216 -0.1540
  106OSM    O1410785   6.662   4.984  10.683 -0.3512  0.0294  0.2778
  106OSM    O1110786   6.812   5.170  10.618  0.3483  0.3569  0.7575
  106OSM    O1210787   6.576   5.177  10.549  0.0958  0.3826 -1.4047
  106OSM    C1S10788   6.876   5.106  10.513 -0.0548  0.1359  0.1484
  106OSM    H1S10789   6.844   4.999  10.515 -1.9885  0.6801 -0.3659
  106OSM    H1T10790   6.985   5.098  10.531  0.1300 -1.1729 -1.4156
  106OSM     NF10791   6.907   5.082  10.260 -0.1173 -0.0601  0.1604
  106OSM    HNF10792   7.005   5.091  10.239 -0.0404 -2.7768 -0.9071
  106OSM    C2S10793   6.849   5.163  10.368 -0.1896  0.1343  0.3291
  106OSM    H2S10794   6.739   5.156  10.355 -0.1153  0.4042 -0.4741
  106OSM    C3S10795   6.901   5.312  10.361 -0.2410  0.6591 -0.1035
  106OSM    H3S10796   7.007   5.309  10.393 -0.6252  0.8709  1.2017
  106OSM     O310797   6.829   5.398  10.448 -0.0021 -0.2902  0.0571
  106OSM    HO310798   6.787   5.344  10.516  0.4900  0.6322  1.1173
  106OSM    C4S10799   6.888   5.379  10.226 -0.3378 -0.1282  0.0671
  106OSM    H4S10800   6.789   5.421  10.202 -0.1883  0.0809 -0.1852
  106OSM    C5S10801   6.988   5.414  10.141  1.0035 -0.3607 -0.7565
  106OSM    H5S10802   7.088   5.397  10.184 -0.1235 -2.3152  1.1954
  106OSM    C6S10803   6.985   5.494  10.015 -0.3617  0.4193 -0.0998
  106OSM    H6S10804   7.067   5.479   9.941 -0.8782  2.8693 -1.2217
  106OSM    H6T10805   6.969   5.603  10.033 -1.2933  0.2329  0.2162
  106OSM    C7S10806   6.861   5.455   9.929  0.0928  0.4610  0.0749
  106OSM    H7S10807   6.759   5.471   9.969 -1.2699 -1.7091 -2.3520
  106OSM    H7T10808   6.856   5.348   9.898 -2.4251  0.2459  1.1333
  106OSM    C8S10809   6.854   5.516   9.788  0.3301 -0.6737  0.0317
  106OSM    H8S10810   6.856   5.627   9.781 -0.5147 -0.6761 -0.3188
  106OSM    H8T10811   6.754   5.484   9.754  0.0724  0.2679 -0.1191
  106OSM    C9S10812   6.969   5.477   9.693 -0.8005  0.6486 -0.1217
  106OSM    H9S10813   6.984   5.368   9.702 -2.7567  0.3210 -0.7137
  106OSM    H9T10814   7.060   5.525   9.736 -0.1464 -0.5703 -0.1443
  106OSM   C10S10815   6.951   5.514   9.542 -0.3081 -1.2143 -0.0593
  106OSM   H10S10816   6.938   5.623   9.528 -1.2478 -1.0425  2.0369
  106OSM   H10T10817   6.859   5.460   9.513 -0.6220 -0.4317 -0.5379
  106OSM   C11S10818   7.073   5.479   9.451 -0.0671 -0.0029 -0.2547
  106OSM   H11S10819   7.080   5.369   9.464 -1.0576  0.0332  0.6766
  106OSM   H11T10820   7.171   5.529   9.470  0.2939  0.1330 -2.4124
  106OSM   C12S10821   7.037   5.507   9.304  0.3446  0.3305 -0.0951
  106OSM   H12S10822   6.996   5.609   9.294 -0.9807 -0.1343  0.4351
  106OSM   H12T10823   6.971   5.422   9.275 -0.6320  0.1028  2.6585
  106OSM   C13S10824   7.164   5.497   9.210  0.2268  0.3967  0.2652
  106OSM   H13S10825   7.221   5.404   9.229 -0.9448  0.0674  2.3119
  106OSM   H13T10826   7.234   5.582   9.228  0.4292  0.2303  0.2633
  106OSM   C14S10827   7.121   5.505   9.062 -1.2358 -0.0590 -0.9723
  106OSM   H14S10828   7.049   5.590   9.062  1.3273  2.2253 -0.6224
  106OSM   H14T10829   7.068   5.418   9.020 -0.4943  0.2032 -2.5099
  106OSM   C15S10830   7.245   5.544   8.984 -0.5413  0.0329 -0.8149
  106OSM   H15S10831   7.314   5.457   8.985 -0.8591 -0.2127 -0.1967
  106OSM   H15T10832   7.301   5.626   9.034  2.0927 -3.0399  1.4383
  106OSM   C16S10833   7.224   5.582   8.836  0.1991  0.1257 -0.0278
  106OSM   H16S10834   7.324   5.616   8.799  1.1194 -1.4981  0.8807
  106OSM   H16T10835   7.156   5.669   8.827 -0.8170 -0.5147  1.3941
  106OSM   C17S10836   7.174   5.464   8.750  0.4209 -0.5204 -0.2089
  106OSM   H17S10837   7.074   5.436   8.789  0.6089  0.8538  1.3195
  106OSM   H17T10838   7.246   5.379   8.753 -1.0125 -1.7442  0.1840
  106OSM   C18S10839   7.140   5.498   8.603  0.4086 -0.3410 -0.3988
  106OSM   H18S10840   7.131   5.417   8.527  1.2128 -0.6433 -0.1792
  106OSM   H18T10841   7.212   5.572   8.562  0.2094  0.6412  1.0030
  106OSM   H18U10842   7.042   5.549   8.602  0.4365 -0.2875 -0.3461
  106OSM    C1F10843   6.851   4.964  10.232 -0.5998 -0.0822 -0.3571
  106OSM     OF10844   6.741   4.928  10.278 -0.2868  0.1478  0.2869
  106OSM    C2F10845   6.924   4.874  10.135 -0.4749  0.7657 -0.0949
  106OSM    H2F10846   6.857   4.787  10.117  0.0243  0.3929 -0.1398
  106OSM    H2G10847   7.023   4.843  10.174  0.1734  2.4685 -0.3188
  106OSM    C3F10848   6.967   4.940   9.997 -0.1239  0.3457 -0.1890
  106OSM    H3F10849   7.030   4.870   9.938 -1.3875 -0.1127 -1.0200
  106OSM    H3G10850   7.041   5.021  10.013 -0.3975  0.2653  1.4731
  106OSM    C4F10851   6.853   4.979   9.906 -0.1621 -0.3137  0.1166
  106OSM    H4F10852   6.791   5.060   9.952 -0.2259 -0.0867 -0.3686
  106OSM    H4G10853   6.798   4.887   9.879  2.2320 -2.3001  1.8135
  106OSM    C5F10854   6.909   5.059   9.787  0.2534  0.5696 -0.3104
  106OSM    H5F10855   6.999   5.115   9.820  1.6935 -1.4371 -0.7651
  106OSM    H5G10856   6.828   5.123   9.747 -2.1734 -0.6915  2.3677
  106OSM    C6F10857   6.967   4.978   9.671 -0.2134 -0.1539 -0.4397
  106OSM    H6F10858   6.891   4.905   9.635 -0.3607  0.3176 -1.1004
  106OSM    H6G10859   7.038   4.908   9.719  0.3621 -2.2692 -4.2016
  106OSM    C7F10860   7.037   5.063   9.563  0.3796  0.3297  0.1047
  106OSM    H7F10861   7.116   5.130   9.604  1.0616 -0.8381  0.7505
  106OSM    H7G10862   6.960   5.122   9.510  0.0116  1.4218  1.8438
  106OSM    C8F10863   7.108   4.972   9.467  0.5348 -0.6320  0.3181
  106OSM    H8F10864   7.185   4.926   9.533  1.0786 -2.6045 -1.6224
  106OSM    H8G10865   7.160   5.041   9.397 -0.0836 -0.9856 -0.4932
  106OSM    C9F10866   7.023   4.877   9.383  0.1357  0.1964  0.2753
  106OSM    H9F10867   6.976   4.791   9.434 -0.8939  0.1974 -0.6667
  106OSM   C10F10868   7.011   4.880   9.249 -1.1020  0.0279 -0.1442
  106OSM   H10F10869   6.947   4.807   9.196 -1.3745 -0.4552  0.8513
  106OSM   C11F10870   7.057   4.980   9.144 -0.1903  0.5495 -0.3111
  106OSM   H11F10871   7.028   5.082   9.175  0.4205  0.7682 -0.4533
  106OSM   H11G10872   6.994   4.957   9.055 -2.6729  2.1616  0.9776
  106OSM   C12F10873   7.206   4.994   9.123  0.4603  0.3762 -0.2629
  106OSM   H12F10874   7.271   4.915   9.080 -0.2553  0.1865 -1.0146
  106OSM   H12G10875   7.259   5.012   9.219 -1.2241  0.2150  0.7112
  106OSM   C13F10876   7.234   5.116   9.033 -0.2360  0.4407  0.4560
  106OSM   H13F10877   7.206   5.207   9.090 -0.6374  0.3428  0.4132
  106OSM   H13G10878   7.169   5.115   8.943  0.4379  0.3987 -0.0369
  106OSM   C14F10879   7.379   5.119   8.975 -0.5549 -0.0375  0.1398
  106OSM   H14F10880   7.444   5.042   9.022 -0.1909  1.2460  1.7744
  106OSM   H14G10881   7.418   5.219   9.005 -0.0910 -0.0776 -0.3234
  106OSM   C15F10882   7.382   5.091   8.829  0.8675  0.3443  0.1296
  106OSM   H15F10883   7.480   5.129   8.794  1.4522 -1.0879  0.1820
  106OSM   H15G10884   7.303   5.149   8.776  1.7407 -0.8124 -2.5107
  106OSM   C16F10885   7.356   4.944   8.791 -0.1148 -0.0480  0.3762
  106OSM   H16F10886   7.261   4.915   8.842  0.1494  0.0999  0.9609
  106OSM   H16G10887   7.430   4.869   8.826 -1.9623 -3.3428 -2.5573
  106OSM   C17F10888   7.349   4.921   8.642 -0.4299 -0.7957  0.2759
  106OSM   H17F10889   7.446   4.942   8.593 -1.4100  1.8410 -0.6866
  106OSM   H17G10890   7.282   5.003   8.605  0.4919 -0.5147 -0.7846
  106OSM   C18F10891   7.285   4.784   8.614  0.3630  1.1535  0.4574
  106OSM   H18F10892   7.182   4.766   8.651  0.8503 -3.4868 -0.1505
  106OSM   H18G10893   7.360   4.715   8.660  0.0923 -0.4965 -1.5315
  106OSM   H18H10894   7.284   4.761   8.505  1.3842  0.5304  0.5665
  107OSM      N10895   2.962   2.274  10.841  0.0915 -0.9688 -0.7819
  107OSM    C1510896   3.031   2.246  10.709  0.1032 -0.3115 -0.3163
  107OSM   H15A10897   3.066   2.340  10.668  1.6986 -1.5484 -1.8564
  107OSM   H15B10898   2.965   2.199  10.638  1.0641 -2.8542  0.4330
  107OSM   H15C10899   3.111   2.174  10.710  0.5920  0.2245  0.5375
  107OSM    C1410900   2.939   2.149  10.918 -0.0777 -0.0744  0.6274
  107OSM   H14A10901   2.901   2.068  10.857  0.8600  0.9582 -1.3655
  107OSM   H14B10902   2.861   2.163  10.992 -0.2254  3.1068 -0.0633
  107OSM   H14C10903   3.030   2.111  10.962  0.0363  1.4393  1.7004
  107OSM    C1310904   3.055   2.347  10.928  0.6329  0.2359 -0.6581
  107OSM   H13A10905   2.998   2.373  11.016 -1.4118 -2.0911 -1.2187
  107OSM   H13B10906   3.084   2.444  10.889  1.0435 -0.8247 -3.1251
  107OSM   H13C10907   3.149   2.297  10.949 -0.5982 -1.1804  1.6716
  107OSM    C1210908   2.832   2.338  10.812  0.3585  0.1314  0.0871
  107OSM   H12A10909   2.785   2.363  10.906  0.0124 -0.0142 -0.0468
  107OSM   H12B10910   2.770   2.266  10.761 -1.3780 -0.3280  2.7610
  107OSM    C1110911   2.833   2.471  10.732 -0.5372 -0.7956  0.4102
  107OSM   H11A10912   2.735   2.522  10.716 -0.2879 -0.4393 -0.0029
  107OSM   H11B10913   2.873   2.455  10.629  0.3921  1.7636  0.3183
  107OSM      P10914   2.866   2.678  10.896 -0.0581  0.1099  0.0309
  107OSM    O1310915   2.758   2.612  10.977  0.3672  0.2216 -0.0642
  107OSM    O1410916   2.987   2.727  10.969  0.3735 -0.0818 -0.2702
  107OSM    O1110917   2.806   2.790  10.808 -0.5420  0.6050  0.1242
  107OSM    O1210918   2.921   2.572  10.790  0.1787  0.0166  0.1353
  107OSM    C1S10919   2.896   2.854  10.708  0.4675 -0.7029 -0.7610
  107OSM    H1S10920   3.003   2.827  10.720  0.5851  0.0676  0.0089
  107OSM    H1T10921   2.892   2.963  10.728  0.3393 -1.1812  1.9870
  107OSM     NF10922   2.979   2.874  10.469 -1.1936  0.5069  1.3581
  107OSM    HNF10923   2.947   2.928  10.392  0.2151 -0.1819  0.2719
  107OSM    C2S10924   2.872   2.823  10.549  0.0202 -0.3961  0.7679
  107OSM    H2S10925   2.869   2.712  10.547 -0.3082 -0.3838 -2.1240
  107OSM    C3S10926   2.725   2.867  10.511 -0.4964  0.2542 -0.1736
  107OSM    H3S10927   2.707   2.977  10.503 -1.3197  0.2134  0.9886
  107OSM     O310928   2.629   2.833  10.609 -0.0861  0.0098 -0.0018
  107OSM    HO310929   2.683   2.789  10.675  1.8310  1.6077 -0.4245
  107OSM    C4S10930   2.692   2.808  10.370  0.0894  0.4581  0.4159
  107OSM    H4S10931   2.747   2.864  10.293 -0.1894  0.2851  0.0895
  107OSM    C5S10932   2.605   2.713  10.327  0.0696  0.2073  0.5949
  107OSM    H5S10933   2.543   2.661  10.402  0.0189  0.2994  0.6171
  107OSM    C6S10934   2.577   2.675  10.184  1.1196  0.2354 -0.5226
  107OSM    H6S10935   2.507   2.751  10.141  0.9841 -0.3052 -1.2601
  107OSM    H6T10936   2.512   2.585  10.192 -0.1466  1.2518  1.1896
  107OSM    C7S10937   2.698   2.653  10.090  0.1396 -0.0627 -0.0017
  107OSM    H7S10938   2.777   2.594  10.141 -0.5089 -1.8120 -0.9897
  107OSM    H7T10939   2.725   2.756  10.060 -2.0312  0.5840  0.1610
  107OSM    C8S10940   2.659   2.576   9.970  0.1669 -0.3250 -0.1236
  107OSM    H8S10941   2.569   2.513   9.987  0.8963 -1.6357 -1.0262
  107OSM    H8T10942   2.738   2.506   9.935 -1.6909 -2.3613 -0.4068
  107OSM    C9S10943   2.615   2.667   9.852 -0.2983  0.3528  0.3019
  107OSM    H9S10944   2.683   2.755   9.850  0.1770 -0.0085  0.6189
  107OSM    H9T10945   2.512   2.701   9.877 -0.4211 -0.2096  0.5592
  107OSM   C10S10946   2.621   2.602   9.714  0.3468 -0.3019 -0.4959
  107OSM   H10S10947   2.568   2.504   9.720  1.4191 -0.9230 -0.9526
  107OSM   H10T10948   2.725   2.588   9.676 -0.2109 -3.5041 -1.0056
  107OSM   C11S10949   2.556   2.691   9.611 -0.3286 -0.3923  0.1742
  107OSM   H11S10950   2.593   2.796   9.605 -0.2729 -0.4949 -1.6583
  107OSM   H11T10951   2.453   2.697   9.652  0.3683  0.2305  1.8787
  107OSM   C12S10952   2.558   2.641   9.461  0.3245 -0.0460 -0.2123
  107OSM   H12S10953   2.503   2.545   9.453  0.1652  0.1024 -0.8855
  107OSM   H12T10954   2.664   2.616   9.437  0.9548  2.3656 -0.1202
  107OSM   C13S10955   2.512   2.747   9.358  0.5923  0.1940  0.3749
  107OSM   H13S10956   2.594   2.822   9.356  1.3209 -0.6210 -0.7752
  107OSM   H13T10957   2.428   2.798   9.409  0.5508 -1.6539  2.2006
  107OSM   C14S10958   2.501   2.707   9.217  0.3786 -0.4309  0.2728
  107OSM   H14S10959   2.429   2.622   9.211 -2.3681  1.7633  0.8151
  107OSM   H14T10960   2.597   2.669   9.176 -0.5706 -1.5096 -0.9827
  107OSM   C15S10961   2.444   2.814   9.124 -0.5432  0.1557 -0.3654
  107OSM   H15S10962   2.492   2.911   9.151 -2.1979  1.9635 -3.7175
  107OSM   H15T10963   2.339   2.840   9.146 -1.1198  0.2025 -3.1053
  107OSM   C16S10964   2.472   2.784   8.977 -0.6466 -0.4132  0.4102
  107OSM   H16S10965   2.431   2.683   8.955  0.8454 -1.0102  0.3111
  107OSM   H16T10966   2.580   2.763   8.968 -0.5185  0.1477  0.5753
  107OSM   C17S10967   2.404   2.879   8.882  0.2949  0.5126 -0.1884
  107OSM   H17S10968   2.439   2.984   8.888 -1.4141  1.1249 -0.5712
  107OSM   H17T10969   2.302   2.903   8.919  0.8947  1.1381  1.0888
  107OSM   C18S10970   2.414   2.828   8.735  0.1570  0.2070 -0.0922
  107OSM   H18S10971   2.520   2.811   8.707 -0.7940 -2.4408 -2.2629
  107OSM   H18T10972   2.368   2.903   8.667 -0.4848 -1.2929 -1.3501
  107OSM   H18U10973   2.347   2.741   8.718 -0.9561  0.2856  3.3946
  107OSM    C1F10974   3.110   2.852  10.481  0.0259  0.5938 -0.4026
  107OSM     OF10975   3.150   2.750  10.538 -0.1754 -0.1213  0.3228
  107OSM    C2F10976   3.200   2.956  10.418  0.2451 -0.2503 -0.4269
  107OSM    H2F10977   3.209   3.052  10.473  2.7023  0.4070 -1.9033
  107OSM    H2G10978   3.154   2.986  10.322  0.6353  1.3671 -0.1289
  107OSM    C3F10979   3.341   2.893  10.401 -0.3475 -0.2007  0.4673
  107OSM    H3F10980   3.335   2.813  10.324 -1.7979  1.1105 -0.8337
  107OSM    H3G10981   3.377   2.849  10.496 -0.0526  0.5482  0.6996
  107OSM    C4F10982   3.451   2.995  10.358  0.2071 -0.0504 -0.2253
  107OSM    H4F10983   3.543   2.941  10.327 -0.0271 -1.2780  1.1801
  107OSM    H4G10984   3.476   3.051  10.451  0.0422  0.5657 -0.5496
  107OSM    C5F10985   3.415   3.093  10.242 -0.1167  0.2786  0.0225
  107OSM    H5F10986   3.476   3.186  10.245 -1.6257  1.2697  0.8376
  107OSM    H5G10987   3.312   3.128  10.262 -0.4068 -0.5130 -0.0499
  107OSM    C6F10988   3.413   3.022  10.105 -0.1089  0.8076 -0.4929
  107OSM    H6F10989   3.339   2.939  10.114  0.0438  0.7091 -0.1741
  107OSM    H6G10990   3.516   2.981  10.094 -0.2231  0.8724 -1.9854
  107OSM    C7F10991   3.390   3.117   9.994 -0.4189 -0.0485  0.6894
  107OSM    H7F10992   3.476   3.186   9.999 -0.7114  0.3002  0.9541
  107OSM    H7G10993   3.302   3.180  10.019 -0.1517  1.0382 -1.0388
  107OSM    C8F10994   3.367   3.056   9.855 -0.4423 -0.6066 -0.2458
  107OSM    H8F10995   3.296   2.972   9.867 -4.9808  3.4481  3.0212
  107OSM    H8G10996   3.466   3.020   9.820 -0.0903  1.4877 -1.4964
  107OSM    C9F10997   3.326   3.170   9.760  0.0746 -0.6836 -0.1287
  107OSM    H9F10998   3.233   3.222   9.786  1.1362  0.1595  2.0794
  107OSM   C10F10999   3.382   3.199   9.643 -0.2225 -0.2176 -0.0609
  107OSM   H10F11000   3.342   3.288   9.590  1.0113  0.7313  0.5806
  107OSM   C11F11001   3.498   3.143   9.581 -0.4446 -0.0805 -0.5031
  107OSM   H11F11002   3.573   3.106   9.653 -1.0280  1.0902  0.7311
  107OSM   H11G11003   3.557   3.223   9.533  0.2380 -0.4738 -0.3163
  107OSM   C12F11004   3.467   3.028   9.490 -0.5682  0.0559  0.4547
  107OSM   H12F11005   3.429   2.937   9.540  0.7458  0.2307  1.7880
  107OSM   H12G11006   3.562   2.989   9.447 -0.6411  1.6627 -1.2494
  107OSM   C13F11007   3.374   3.062   9.362  0.2432 -0.4687 -0.2869
  107OSM   H13F11008   3.422   3.140   9.299  1.0439  0.1273  1.0524
  107OSM   H13G11009   3.276   3.103   9.397 -0.0550 -0.8184 -0.7067
  107OSM   C14F11010   3.338   2.942   9.273 -0.0533 -0.0747  0.8711
  107OSM   H14F11011   3.282   2.850   9.303  0.0872 -0.2707  0.5322
  107OSM   H14G11012   3.438   2.901   9.248  0.2488  1.1766 -0.0148
  107OSM   C15F11013   3.276   2.994   9.141  0.3612  0.2183 -0.2459
  107OSM   H15F11014   3.367   3.025   9.084  0.8098  0.4072  0.5616
  107OSM   H15G11015   3.206   3.077   9.164  0.8271  1.2049 -2.2254
  107OSM   C16F11016   3.196   2.882   9.061 -0.6748  0.0553  0.1972
  107OSM   H16F11017   3.114   2.846   9.127 -0.5170 -0.0103  0.3571
  107OSM   H16G11018   3.260   2.795   9.033  0.6782  1.3163 -0.7372
  107OSM   C17F11019   3.126   2.927   8.929  0.8169 -0.4142  0.0294
  107OSM   H17F11020   3.201   2.957   8.852 -0.3592  2.0276 -0.2101
  107OSM   H17G11021   3.069   3.020   8.950  1.7796  0.2692 -0.3459
  107OSM   C18F11022   3.027   2.824   8.878 -0.1544  0.2804  0.2475
  107OSM   H18F11023   3.090   2.736   8.854 -0.5066  0.0552  0.1332
  107OSM   H18G11024   2.981   2.861   8.783  1.4332  1.8284  0.0628
  107OSM   H18H11025   2.952   2.804   8.958  1.2666 -0.3341  1.4364
  108OSM      N11026   0.158   3.438  10.861 -0.5182 -0.3177 -0.3297
  108OSM    C1511027   0.301   3.421  10.901  0.2601 -0.8628 -0.0799
  108OSM   H15A11028   0.305   3.407  11.008 -2.5244 -0.3386  0.1375
  108OSM   H15B11029   0.353   3.513  10.878  1.1687 -0.5099  3.1876
  108OSM   H15C11030   0.353   3.336  10.860  0.4543 -0.7413 -0.0812
  108OSM    C1411031   0.138   3.456  10.712 -0.5997 -0.2183 -0.6970
  108OSM   H14A11032   0.192   3.388  10.647 -2.1069 -0.3813 -1.7971
  108OSM   H14B11033   0.164   3.558  10.690 -1.6670  0.5215  1.3684
  108OSM   H14C11034   0.032   3.446  10.698 -0.6138 -3.1244  0.9676
  108OSM    C1311035   0.079   3.320  10.918 -0.6444 -0.3201 -0.6547
  108OSM   H13A11036   0.121   3.231  10.873  1.6379  0.9111 -1.0708
  108OSM   H13B11037  -0.025   3.333  10.894 -0.8815  1.6365  1.2266
  108OSM   H13C11038   0.099   3.297  11.022 -0.7611 -0.5724 -0.6887
  108OSM    C1211039   0.113   3.562  10.936 -0.0715 -0.0327  0.1157
  108OSM   H12A11040   0.191   3.635  10.923  0.0932 -0.0732  0.8956
  108OSM   H12B11041   0.133   3.541  11.040  2.6972 -1.6291 -0.6776
  108OSM    C1111042  -0.029   3.599  10.913 -0.1483  0.0473 -0.5363
  108OSM   H11A11043  -0.056   3.670  10.994 -1.7826 -2.0876  0.8482
  108OSM   H11B11044  -0.098   3.512  10.921 -0.1377 -0.0171 -1.1340
  108OSM      P11045  -0.055   3.799  10.740 -0.0073 -0.0087  0.2454
  108OSM    O1311046  -0.155   3.874  10.817  0.3389  0.6792 -0.4187
  108OSM    O1411047   0.079   3.857  10.735 -0.2369  0.5780  0.0545
  108OSM    O1111048  -0.112   3.793  10.595  0.6464 -0.2373  0.7926
  108OSM    O1211049  -0.042   3.652  10.783 -0.5270 -0.2530 -0.3198
  108OSM    C1S11050  -0.249   3.747  10.567  0.0907 -0.4374  0.1765
  108OSM    H1S11051  -0.308   3.840  10.577  1.3472  0.3409  0.3398
  108OSM    H1T11052  -0.286   3.668  10.636 -1.3743  0.1859  0.1232
  108OSM     NF11053  -0.381   3.678  10.378  0.4656  0.4220 -0.1581
  108OSM    HNF11054  -0.414   3.585  10.363  1.5844  0.1656 -1.1966
  108OSM    C2S11055  -0.244   3.696  10.424 -0.5021 -0.4026 -0.2495
  108OSM    H2S11056  -0.194   3.765  10.353 -2.5376  1.6815  0.3086
  108OSM    C3S11057  -0.162   3.560  10.425 -0.4592  0.7520  0.6899
  108OSM    H3S11058  -0.199   3.491  10.504 -1.5915 -1.4861 -1.7343
  108OSM     O311059  -0.024   3.577  10.458  0.0683 -0.6379  0.0879
  108OSM    HO311060  -0.024   3.673  10.465 -0.7432 -0.5888 -0.5994
  108OSM    C4S11061  -0.154   3.500  10.289 -0.2053  0.6599  0.7595
  108OSM    H4S11062  -0.126   3.571  10.211 -0.8282 -0.8399 -0.8588
  108OSM    C5S11063  -0.203   3.383  10.256 -0.4967 -0.1563 -0.4004
  108OSM    H5S11064  -0.264   3.324  10.326 -1.7361  0.7243 -0.7190
  108OSM    C6S11065  -0.193   3.342  10.113  0.8238  0.7883  0.2616
  108OSM    H6S11066  -0.214   3.235  10.096  0.4424  0.9339 -0.1974
  108OSM    H6T11067  -0.093   3.372  10.076  0.3697  1.0572 -0.7690
  108OSM    C7S11068  -0.289   3.406  10.018 -0.5425 -0.5605  0.4888
  108OSM    H7S11069  -0.300   3.516  10.020  0.1272 -0.5068  1.4843
  108OSM    H7T11070  -0.387   3.361  10.046 -0.0035 -1.2946  1.2288
  108OSM    C8S11071  -0.270   3.368   9.869  0.0543 -0.3268 -0.3548
  108OSM    H8S11072  -0.270   3.258   9.856 -0.1178 -0.5001  1.0101
  108OSM    H8T11073  -0.169   3.410   9.847  0.8763 -1.3732  1.3046
  108OSM    C9S11074  -0.386   3.424   9.788  0.0065  0.5933 -0.8581
  108OSM    H9S11075  -0.397   3.533   9.806 -1.7076 -0.0899  2.7929
  108OSM    H9T11076  -0.476   3.382   9.838  1.0572 -0.3942  0.2315
  108OSM   C10S11077  -0.391   3.398   9.640  1.0036 -0.4989 -0.6082
  108OSM   H10S11078  -0.496   3.414   9.607 -0.1814 -1.4432  2.5747
  108OSM   H10T11079  -0.371   3.291   9.619  1.7970 -0.7560  1.3656
  108OSM   C11S11080  -0.311   3.492   9.548  0.0436  0.5119  0.0618
  108OSM   H11S11081  -0.202   3.487   9.570 -0.1519 -0.6695  0.7668
  108OSM   H11T11082  -0.333   3.597   9.575 -1.9597  0.2816 -0.6018
  108OSM   C12S11083  -0.332   3.470   9.394  0.0737  0.3014 -0.1072
  108OSM   H12S11084  -0.320   3.365   9.361 -0.4707  0.8388 -2.0778
  108OSM   H12T11085  -0.247   3.513   9.336 -1.3650  2.5439 -0.6262
  108OSM   C13S11086  -0.459   3.537   9.339  0.2920  0.2359 -0.4632
  108OSM   H13S11087  -0.476   3.631   9.397 -0.6847  0.1532 -0.6057
  108OSM   H13T11088  -0.539   3.463   9.360  0.6144 -0.0339 -0.1941
  108OSM   C14S11089  -0.464   3.554   9.193  0.3064 -0.3078  0.0525
  108OSM   H14S11090  -0.364   3.583   9.152  0.0396  0.3044 -0.1753
  108OSM   H14T11091  -0.523   3.640   9.156  2.0435  0.4118 -1.0901
  108OSM   C15S11092  -0.522   3.424   9.122 -0.3544  1.0707 -0.4398
  108OSM   H15S11093  -0.619   3.390   9.166 -0.2769  0.3317 -0.8236
  108OSM   H15T11094  -0.442   3.348   9.134  0.9576  2.3639 -0.9060
  108OSM   C16S11095  -0.528   3.445   8.977 -0.0671 -0.3532 -0.0523
  108OSM   H16S11096  -0.421   3.471   8.960 -0.3713  1.3556  0.5386
  108OSM   H16T11097  -0.599   3.525   8.948 -1.0725 -1.0352  0.5090
  108OSM   C17S11098  -0.566   3.315   8.906 -0.0863 -0.3293 -0.0973
  108OSM   H17S11099  -0.664   3.287   8.951  0.8851  0.8707  2.9197
  108OSM   H17T11100  -0.497   3.232   8.930 -0.9093 -1.0108 -0.0751
  108OSM   C18S11101  -0.582   3.335   8.750 -1.9032 -0.2447 -0.5670
  108OSM   H18S11102  -0.652   3.418   8.727 -0.8665  0.1137 -2.5739
  108OSM   H18T11103  -0.618   3.245   8.695 -0.6431 -1.1347  0.0325
  108OSM   H18U11104  -0.487   3.377   8.710 -0.3119 -1.9322  1.2993
  108OSM    C1F11105  -0.459   3.778  10.345  0.3052 -0.6719 -0.5134
  108OSM     OF11106  -0.422   3.893  10.361  0.7675  0.0676 -0.3317
  108OSM    C2F11107  -0.591   3.742  10.282 -0.7722  0.1085 -0.4271
  108OSM    H2F11108  -0.666   3.742  10.365 -0.3212 -2.8944  0.0504
  108OSM    H2G11109  -0.587   3.636  10.249 -2.5201  0.3183 -1.3327
  108OSM    C3F11110  -0.632   3.829  10.167  0.5403 -0.0941 -0.8077
  108OSM    H3F11111  -0.651   3.936  10.192 -3.0179 -0.9115  0.3966
  108OSM    H3G11112  -0.738   3.797  10.159 -0.1484  1.5547  1.2718
  108OSM    C4F11113  -0.549   3.830  10.043  0.3153  0.3991 -0.3792
  108OSM    H4F11114  -0.519   3.729  10.006  1.2589  1.4985 -2.7646
  108OSM    H4G11115  -0.455   3.881  10.071  2.2051 -2.8328 -0.5781
  108OSM    C5F11116  -0.621   3.911   9.936  0.0155 -0.1052  1.1994
  108OSM    H5F11117  -0.652   4.009   9.979  1.8417  0.5268  1.1468
  108OSM    H5G11118  -0.718   3.859   9.922  0.0899  0.0410  0.0842
  108OSM    C6F11119  -0.545   3.910   9.803  0.3770 -0.1279  0.4163
  108OSM    H6F11120  -0.533   3.810   9.755 -2.8838 -1.1325  1.5555
  108OSM    H6G11121  -0.451   3.961   9.833  0.2117  1.0172 -0.9429
  108OSM    C7F11122  -0.609   4.010   9.707 -0.1483  0.2313 -0.1636
  108OSM    H7F11123  -0.530   4.059   9.645 -0.2566 -1.3746 -1.5981
  108OSM    H7G11124  -0.668   4.090   9.758 -0.2565  1.8906 -2.8041
  108OSM    C8F11125  -0.699   3.933   9.607  0.1386 -0.3985 -0.3670
  108OSM    H8F11126  -0.782   3.878   9.656  0.3166 -1.5078 -1.2632
  108OSM    H8G11127  -0.646   3.853   9.550  0.2855 -1.5767  1.3729
  108OSM    C9F11128  -0.756   4.022   9.501  0.2102  0.2197 -0.4291
  108OSM    H9F11129  -0.857   4.062   9.518 -0.4511 -0.0760 -3.3644
  108OSM   C10F11130  -0.687   4.065   9.395 -0.1605  0.4923 -0.1204
  108OSM   H10F11131  -0.732   4.147   9.337  0.4078 -0.3528 -1.8022
  108OSM   C11F11132  -0.539   4.034   9.365  0.2027  0.0178 -0.1515
  108OSM   H11F11133  -0.495   3.978   9.450 -1.1816 -1.2410 -0.2603
  108OSM   H11G11134  -0.482   4.129   9.368 -1.6899  1.1878 -0.5219
  108OSM   C12F11135  -0.508   3.962   9.237  0.0252 -0.0218  0.1694
  108OSM   H12F11136  -0.582   3.880   9.225 -1.2346  1.0140  0.7265
  108OSM   H12G11137  -0.410   3.913   9.253  0.2980  0.3249 -0.4244
  108OSM   C13F11138  -0.514   4.052   9.113 -0.1694  0.2258 -0.3650
  108OSM   H13F11139  -0.476   4.154   9.134  1.5083 -0.0387 -1.9666
  108OSM   H13G11140  -0.623   4.060   9.089 -0.1286 -1.3107 -1.1668
  108OSM   C14F11141  -0.447   3.980   8.989 -0.0492  0.1807  0.3758
  108OSM   H14F11142  -0.508   3.888   8.975  0.0808  0.2285 -0.4936
  108OSM   H14G11143  -0.339   3.954   8.993 -0.1183 -0.0752  0.5796
  108OSM   C15F11144  -0.472   4.064   8.860 -0.0567 -0.2203  0.1567
  108OSM   H15F11145  -0.404   4.152   8.865  0.3382 -0.5442  0.4495
  108OSM   H15G11146  -0.577   4.102   8.859 -1.1978 -3.2444 -1.7117
  108OSM   C16F11147  -0.438   3.990   8.725 -0.0010  0.6351  0.5445
  108OSM   H16F11148  -0.476   3.886   8.727 -2.2829  1.4492  0.9847
  108OSM   H16G11149  -0.330   3.974   8.741  0.0222  1.1713  0.9536
  108OSM   C17F11150  -0.473   4.050   8.595 -0.4924  0.1434  1.1745
  108OSM   H17F11151  -0.579   4.064   8.564 -0.5043 -0.2925  1.0108
  108OSM   H17G11152  -0.429   3.981   8.519 -0.6043  1.2823  0.0497
  108OSM   C18F11153  -0.394   4.182   8.572  0.0944  0.0780  0.4768
  108OSM   H18F11154  -0.414   4.211   8.466  0.1014 -1.9439 -0.1127
  108OSM   H18G11155  -0.286   4.161   8.586 -0.0749  0.0129  1.7284
  108OSM   H18H11156  -0.429   4.262   8.640 -0.7347  0.7791 -0.7600
  109OSM      N11157   5.555   2.565  10.708  0.4406 -0.1469 -0.2367
  109OSM    C1511158   5.695   2.562  10.763 -0.0768 -0.1075 -0.5049
  109OSM   H15A11159   5.758   2.643  10.729 -0.1334  0.2458  0.2176
  109OSM   H15B11160   5.744   2.467  10.747  0.3442 -0.0962  0.6342
  109OSM   H15C11161   5.703   2.571  10.871  3.0377  0.3692 -0.7158
  109OSM    C1411162   5.488   2.692  10.758  0.6682  0.1332  0.7740
  109OSM   H14A11163   5.389   2.699  10.717  1.5350  1.8347 -1.0911
  109OSM   H14B11164   5.538   2.787  10.754 -0.3399  0.7572  2.4269
  109OSM   H14C11165   5.474   2.680  10.865  1.3347  4.8891  1.5071
  109OSM    C1311166   5.558   2.557  10.557  0.6499  0.3829  0.4132
  109OSM   H13A11167   5.594   2.651  10.519 -2.1226  1.0586 -0.6534
  109OSM   H13B11168   5.459   2.547  10.514  1.1425  0.6250 -0.7748
  109OSM   H13C11169   5.635   2.488  10.526 -0.8138 -2.1620  2.2171
  109OSM    C1211170   5.474   2.443  10.755  0.3891 -0.1134  0.0660
  109OSM   H12A11171   5.528   2.361  10.710  1.8121  0.1999  1.1484
  109OSM   H12B11172   5.376   2.450  10.710 -0.0457  0.4389  1.0752
  109OSM    C1111173   5.460   2.408  10.906  0.4025 -0.2551  0.3666
  109OSM   H11A11174   5.565   2.394  10.939  0.1490 -1.8661  0.5502
  109OSM   H11B11175   5.421   2.304  10.918 -0.3249 -0.0199  0.0387
  109OSM      P11176   5.232   2.513  10.990 -0.0165  0.5942  0.4204
  109OSM    O1311177   5.202   2.436  11.114 -0.3490 -0.4352 -0.2366
  109OSM    O1411178   5.190   2.654  10.995 -0.1938 -0.2570 -0.2029
  109OSM    O1111179   5.179   2.448  10.851  0.0332  0.5520  0.4850
  109OSM    O1211180   5.387   2.510  10.974 -0.4016  0.1664  0.3136
  109OSM    C1S11181   5.112   2.538  10.753 -0.1868  0.3133  0.1076
  109OSM    H1S11182   5.170   2.630  10.731 -0.5751  0.1248 -1.7849
  109OSM    H1T11183   5.012   2.574  10.783  0.0269 -0.3322  1.6541
  109OSM     NF11184   5.064   2.527  10.513  0.5819 -0.3156 -0.4611
  109OSM    HNF11185   4.975   2.543  10.471  0.9385  2.0262 -0.4174
  109OSM    C2S11186   5.087   2.450  10.628  0.0164 -0.6233 -0.4766
  109OSM    H2S11187   5.172   2.379  10.614  0.5946  0.0917 -0.6222
  109OSM    C3S11188   4.966   2.357  10.668  0.0827  1.1546 -1.2004
  109OSM    H3S11189   4.879   2.421  10.693 -1.3544 -1.6819  1.4024
  109OSM     O311190   4.995   2.278  10.786  0.3931  0.4926  0.5174
  109OSM    HO311191   5.083   2.305  10.811  1.0320  0.1776 -1.2686
  109OSM    C4S11192   4.934   2.260  10.559  0.9258 -0.0310  0.0946
  109OSM    H4S11193   5.005   2.181  10.532 -1.4260 -1.7895 -1.1224
  109OSM    C5S11194   4.826   2.280  10.478  0.3862 -0.1079 -0.4793
  109OSM    H5S11195   4.757   2.364  10.494  1.2865  0.1601  2.1857
  109OSM    C6S11196   4.788   2.193  10.365 -0.0608  0.4830 -0.0742
  109OSM    H6S11197   4.697   2.139  10.401 -0.4437 -0.9694 -3.1003
  109OSM    H6T11198   4.860   2.112  10.339  1.9539  2.3258 -0.3299
  109OSM    C7S11199   4.761   2.275  10.237 -0.5408  0.1967 -0.1522
  109OSM    H7S11200   4.850   2.341  10.231  1.3859 -2.1524  1.3457
  109OSM    H7T11201   4.669   2.336  10.252  0.3799  0.8094  3.6731
  109OSM    C8S11202   4.763   2.197  10.104 -0.3923 -0.0274 -0.3224
  109OSM    H8S11203   4.671   2.136  10.114 -1.4275  1.4842 -0.4474
  109OSM    H8T11204   4.851   2.129  10.109  1.2296  2.1213  2.4603
  109OSM    C9S11205   4.772   2.287   9.979 -0.0394 -0.8123 -0.3991
  109OSM    H9S11206   4.871   2.336   9.985  0.5679 -2.2149  1.6074
  109OSM    H9T11207   4.690   2.362   9.981  0.6151 -0.0456 -1.7908
  109OSM   C10S11208   4.745   2.210   9.852  0.2588  0.3708 -0.5641
  109OSM   H10S11209   4.636   2.188   9.851  0.2511  0.4125 -0.7459
  109OSM   H10T11210   4.806   2.117   9.863 -0.8797 -0.0232  2.8412
  109OSM   C11S11211   4.782   2.291   9.723 -0.7765 -1.7509 -0.2533
  109OSM   H11S11212   4.883   2.339   9.729 -2.2764  1.7203 -1.2035
  109OSM   H11T11213   4.711   2.376   9.715  1.0297 -0.3772 -2.4606
  109OSM   C12S11214   4.774   2.208   9.601 -0.0750 -0.9081  0.0269
  109OSM   H12S11215   4.667   2.181   9.589  0.2181 -2.9504  1.6265
  109OSM   H12T11216   4.840   2.119   9.599 -0.0379 -0.9095  1.2528
  109OSM   C13S11217   4.813   2.287   9.465  0.2067 -0.8001  0.9783
  109OSM   H13S11218   4.923   2.303   9.466 -0.2431  2.8612 -0.8137
  109OSM   H13T11219   4.761   2.385   9.460 -1.6881 -1.9158 -2.9688
  109OSM   C14S11220   4.756   2.202   9.356 -0.4859 -0.1243  0.4268
  109OSM   H14S11221   4.646   2.197   9.370 -0.4080 -0.1458  1.0610
  109OSM   H14T11222   4.800   2.100   9.366 -1.0828 -0.7248 -2.6505
  109OSM   C15S11223   4.788   2.263   9.217  0.0001  0.0632 -0.4473
  109OSM   H15S11224   4.889   2.308   9.205 -0.7359  1.2705 -2.2085
  109OSM   H15T11225   4.719   2.350   9.212  0.2306  0.3067  0.4626
  109OSM   C16S11226   4.761   2.180   9.093  0.0603 -0.6332 -0.3820
  109OSM   H16S11227   4.671   2.121   9.119  0.4012 -0.7649  0.5359
  109OSM   H16T11228   4.847   2.110   9.091  2.3324  2.0786 -0.4539
  109OSM   C17S11229   4.751   2.262   8.963 -0.4164 -0.5497  0.5346
  109OSM   H17S11230   4.849   2.311   8.941 -0.1826 -0.2994  2.0470
  109OSM   H17T11231   4.686   2.352   8.969  0.3114 -0.0655  1.4457
  109OSM   C18S11232   4.692   2.177   8.849 -0.6230  0.5984  0.2773
  109OSM   H18S11233   4.649   2.240   8.768  0.4832 -0.7179 -1.3726
  109OSM   H18T11234   4.616   2.109   8.894  2.4661 -1.4286  2.6014
  109OSM   H18U11235   4.765   2.110   8.798 -0.0765 -0.0473  1.8887
  109OSM    C1F11236   5.155   2.603  10.463  0.6261 -0.6564 -0.0619
  109OSM     OF11237   5.269   2.596  10.503  0.0248  0.6740  0.1596
  109OSM    C2F11238   5.115   2.696  10.355 -0.2829  0.5988 -0.0581
  109OSM    H2F11239   5.041   2.772  10.388  0.3153  1.0380  0.2823
  109OSM    H2G11240   5.061   2.634  10.280 -0.7815 -0.0911  0.8576
  109OSM    C3F11241   5.232   2.775  10.286 -0.1979  0.2176  0.5582
  109OSM    H3F11242   5.316   2.707  10.259 -0.4602  0.2022 -0.2540
  109OSM    H3G11243   5.269   2.861  10.344  0.2597  0.0286  0.5437
  109OSM    C4F11244   5.186   2.827  10.143  0.4397  0.2715 -0.4125
  109OSM    H4F11245   5.101   2.894  10.167  1.3230  0.6582  1.7645
  109OSM    H4G11246   5.152   2.740  10.083  3.2791 -2.4052  1.6437
  109OSM    C5F11247   5.298   2.903  10.068  0.6830 -0.1615  0.0429
  109OSM    H5F11248   5.385   2.842  10.037  0.0582 -1.3717  0.6444
  109OSM    H5G11249   5.325   2.991  10.130 -0.3042  0.1974 -0.0248
  109OSM    C6F11250   5.244   2.973   9.939 -0.4138 -0.9376  0.2786
  109OSM    H6F11251   5.176   3.056   9.967  1.2774 -0.1711  2.1912
  109OSM    H6G11252   5.190   2.891   9.887  0.5859 -1.2235 -0.3413
  109OSM    C7F11253   5.360   3.026   9.848  0.6095 -0.3435  0.4294
  109OSM    H7F11254   5.425   2.946   9.807 -1.2291 -0.5484 -2.2738
  109OSM    H7G11255   5.430   3.082   9.913  0.3095 -0.7972  1.1428
  109OSM    C8F11256   5.301   3.115   9.729 -0.2081  0.1940  0.3302
  109OSM    H8F11257   5.389   3.149   9.671  0.1314 -0.5582  0.4003
  109OSM    H8G11258   5.254   3.209   9.765 -1.0658 -0.1350  0.0870
  109OSM    C9F11259   5.199   3.045   9.640 -0.4530 -0.3662 -0.1745
  109OSM    H9F11260   5.120   2.997   9.700 -0.2931 -0.5239 -0.0891
  109OSM   C10F11261   5.192   3.051   9.508  0.4540  0.1653 -0.3972
  109OSM   H10F11262   5.101   3.014   9.460 -0.1437  0.9074  0.1445
  109OSM   C11F11263   5.285   3.118   9.412  0.6124  0.3549  0.3285
  109OSM   H11F11264   5.367   3.163   9.472  0.7322 -0.1094  0.5147
  109OSM   H11G11265   5.224   3.204   9.378 -3.3260 -1.6247  2.1668
  109OSM   C12F11266   5.320   3.048   9.284  0.4921 -0.1556  0.2687
  109OSM   H12F11267   5.360   2.949   9.314 -1.9976 -1.9663 -2.1405
  109OSM   H12G11268   5.400   3.105   9.232 -1.4377  2.2273 -0.1591
  109OSM   C13F11269   5.210   3.041   9.187  0.1671 -0.0924  0.0240
  109OSM   H13F11270   5.168   3.140   9.160  2.3715  0.9736  0.4247
  109OSM   H13G11271   5.123   2.996   9.240  0.8777 -0.9030  0.5179
  109OSM   C14F11272   5.254   2.966   9.066  0.0433 -0.9642  0.7506
  109OSM   H14F11273   5.272   2.864   9.106 -1.3784 -1.9705 -1.0747
  109OSM   H14G11274   5.347   3.013   9.029 -0.2460 -1.1602 -0.2574
  109OSM   C15F11275   5.148   2.936   8.952  0.3941 -0.6894 -0.8285
  109OSM   H15F11276   5.110   3.032   8.909 -1.9256 -1.5268 -0.7429
  109OSM   H15G11277   5.057   2.894   9.000 -0.5147  1.1832 -0.8712
  109OSM   C16F11278   5.214   2.849   8.844 -0.2163 -0.1226  0.5580
  109OSM   H16F11279   5.293   2.778   8.877 -0.5809 -1.8534 -2.0791
  109OSM   H16G11280   5.268   2.918   8.775 -1.9931  1.7934  1.0375
  109OSM   C17F11281   5.109   2.777   8.762  0.0619 -0.1591  0.1712
  109OSM   H17F11282   5.027   2.846   8.732 -1.5867 -1.9347  0.5381
  109OSM   H17G11283   5.051   2.698   8.814  1.3090 -3.4079 -3.1433
  109OSM   C18F11284   5.172   2.725   8.629  0.4521 -0.2623 -0.3137
  109OSM   H18F11285   5.245   2.644   8.648  1.3445  1.1526  2.5924
  109OSM   H18G11286   5.231   2.808   8.584  3.1581 -1.0763  1.6244
  109OSM   H18H11287   5.085   2.695   8.567 -0.6324  2.4408 -0.1976
  110OSM      N11288   6.091   0.382  11.160  0.0275  0.7672 -0.5447
  110OSM    C1511289   6.037   0.464  11.275  0.5589  0.1420  0.1546
  110OSM   H15A11290   6.020   0.401  11.361 -0.6399 -0.1743 -0.3073
  110OSM   H15B11291   5.951   0.523  11.245  0.9548  1.1858  1.0407
  110OSM   H15C11292   6.111   0.537  11.304  0.9297 -0.1085 -0.1505
  110OSM    C1411293   6.201   0.304  11.221  0.4533  0.1156 -0.9442
  110OSM   H14A11294   6.164   0.236  11.296 -3.7330  3.3657  0.0983
  110OSM   H14B11295   6.275   0.371  11.262 -1.2882  1.8487 -0.5671
  110OSM   H14C11296   6.251   0.242  11.148 -0.9942 -1.9674 -0.2082
  110OSM    C1311297   5.985   0.284  11.114  0.1795 -0.6160  0.2999
  110OSM   H13A11298   5.903   0.336  11.068  2.1678  1.2368 -1.2684
  110OSM   H13B11299   5.950   0.223  11.196  1.8107 -2.1817 -0.1206
  110OSM   H13C11300   6.025   0.227  11.031 -1.2690 -3.9337  1.7539
  110OSM    C1211301   6.145   0.464  11.047 -0.2605  0.0401 -0.0388
  110OSM   H12A11302   6.211   0.542  11.082  0.6702 -1.0165  0.5691
  110OSM   H12B11303   6.057   0.517  11.013 -0.6943 -2.4608 -2.9495
  110OSM    C1111304   6.193   0.387  10.917  1.0411  0.2965  0.5235
  110OSM   H11A11305   6.219   0.454  10.833  0.8747 -0.1967  0.0783
  110OSM   H11B11306   6.107   0.331  10.874  1.8439  1.6258 -2.9220
  110OSM      P11307   6.451   0.355  10.950  0.0507 -0.2016  0.3660
  110OSM    O1311308   6.458   0.448  11.068 -0.4335 -0.4848 -0.1280
  110OSM    O1411309   6.550   0.244  10.944  0.0569  0.3904  0.4464
  110OSM    O1111310   6.469   0.447  10.821  0.0249  1.0118  0.3009
  110OSM    O1211311   6.302   0.303  10.945  0.1901  0.0975 -0.5155
  110OSM    C1S11312   6.468   0.378  10.694 -0.3661  0.7101  0.1678
  110OSM    H1S11313   6.376   0.319  10.676 -0.5883  0.4966  1.8501
  110OSM    H1T11314   6.560   0.315  10.690 -0.1945  0.9648  0.0799
  110OSM     NF11315   6.428   0.437  10.454  0.4167  0.3217  0.0860
  110OSM    HNF11316   6.490   0.417  10.378  0.8057 -1.4114  0.8297
  110OSM    C2S11317   6.486   0.486  10.584  0.9707 -0.0222  0.6220
  110OSM    H2S11318   6.424   0.573  10.616 -2.1362 -1.2576 -1.7840
  110OSM    C3S11319   6.633   0.522  10.576 -0.2792  0.0569 -0.4012
  110OSM    H3S11320   6.683   0.434  10.529 -0.6914 -0.2870 -0.2013
  110OSM     O311321   6.689   0.557  10.704 -0.3998  0.3617 -0.1741
  110OSM    HO311322   6.606   0.545  10.751 -1.2420 -0.0514 -1.7144
  110OSM    C4S11323   6.660   0.643  10.481  0.4123 -0.5834  0.3495
  110OSM    H4S11324   6.607   0.732  10.518 -2.1359 -2.1572  0.6035
  110OSM    C5S11325   6.733   0.644  10.366  0.0037 -0.2177 -0.5609
  110OSM    H5S11326   6.783   0.549  10.339 -1.0717 -0.7371 -0.7385
  110OSM    C6S11327   6.745   0.759  10.269 -0.3957  0.0894  0.6529
  110OSM    H6S11328   6.850   0.790  10.251 -0.6966  0.1234 -1.1841
  110OSM    H6T11329   6.695   0.847  10.315  0.5492  1.9088 -1.7342
  110OSM    C7S11330   6.679   0.750  10.129 -0.0329  0.3632  0.1829
  110OSM    H7S11331   6.574   0.717  10.147 -0.6416  2.4104  0.5362
  110OSM    H7T11332   6.734   0.676  10.067  0.2192  0.9857 -0.3420
  110OSM    C8S11333   6.681   0.881  10.046 -0.1911  0.0788  0.2312
  110OSM    H8S11334   6.785   0.921  10.035  0.5518 -2.3847 -2.2838
  110OSM    H8T11335   6.622   0.957  10.102  0.3822  1.4633 -1.0034
  110OSM    C9S11336   6.633   0.853   9.904  1.0346  0.3131  0.1789
  110OSM    H9S11337   6.537   0.798   9.913  0.4619  1.4602  1.2705
  110OSM    H9T11338   6.704   0.784   9.854 -0.7929 -0.0750 -1.9788
  110OSM   C10S11339   6.614   0.978   9.816  0.5706 -0.1679 -0.2527
  110OSM   H10S11340   6.715   1.016   9.787  0.6004 -0.4826 -0.5646
  110OSM   H10T11341   6.569   1.053   9.885 -0.2967  0.1078 -1.1097
  110OSM   C11S11342   6.529   0.956   9.686  0.1033  1.1229 -0.7683
  110OSM   H11S11343   6.493   1.055   9.649 -2.7969  1.1480  1.9059
  110OSM   H11T11344   6.443   0.893   9.718  0.6664  0.6226 -0.2063
  110OSM   C12S11345   6.601   0.881   9.571  0.2927 -0.5155  0.0260
  110OSM   H12S11346   6.611   0.776   9.603 -0.5937 -0.5049  0.3496
  110OSM   H12T11347   6.703   0.922   9.554  1.3160 -1.7633  2.8926
  110OSM   C13S11348   6.523   0.880   9.434  0.4869 -0.6974  0.2577
  110OSM   H13S11349   6.516   0.980   9.387 -0.0023 -0.9064 -0.1178
  110OSM   H13T11350   6.419   0.849   9.456  0.1217 -0.3868 -0.9763
  110OSM   C14S11351   6.586   0.775   9.347 -1.1083 -0.0973  0.4413
  110OSM   H14S11352   6.553   0.674   9.377  0.2420 -0.3089  1.2746
  110OSM   H14T11353   6.697   0.778   9.356 -1.0543  1.9532 -0.5691
  110OSM   C15S11354   6.552   0.799   9.193 -0.4448 -0.0770 -0.0465
  110OSM   H15S11355   6.604   0.716   9.142  4.1780  2.9881 -0.6753
  110OSM   H15T11356   6.589   0.893   9.146  0.7289 -1.7007 -2.4339
  110OSM   C16S11357   6.401   0.776   9.175 -0.0421 -0.0900  0.0246
  110OSM   H16S11358   6.334   0.836   9.239 -0.7760  0.0074 -0.8281
  110OSM   H16T11359   6.381   0.667   9.185  0.9118 -0.3677 -0.8658
  110OSM   C17S11360   6.355   0.813   9.029 -0.4281 -0.2678 -0.1362
  110OSM   H17S11361   6.254   0.768   9.019  0.4881 -2.0134 -1.8588
  110OSM   H17T11362   6.409   0.743   8.962 -1.7437 -2.1977  0.7869
  110OSM   C18S11363   6.363   0.962   8.999 -0.1900 -0.2186 -0.7607
  110OSM   H18S11364   6.316   0.984   8.901 -1.1006  0.5408 -0.1726
  110OSM   H18T11365   6.461   1.015   9.003  1.2005 -2.7388 -0.9471
  110OSM   H18U11366   6.301   1.010   9.079  2.1651  0.8281  0.4943
  110OSM    C1F11367   6.302   0.419  10.436 -0.3231 -0.9461  0.3612
  110OSM     OF11368   6.212   0.438  10.518 -0.0243 -0.1045  0.2769
  110OSM    C2F11369   6.274   0.372  10.297  0.5725  0.7425  0.1087
  110OSM    H2F11370   6.196   0.294  10.310  0.2588  1.0778  0.2341
  110OSM    H2G11371   6.366   0.320  10.261  0.7777  1.0148  0.2336
  110OSM    C3F11372   6.222   0.487  10.214 -0.1294 -0.2148  0.2710
  110OSM    H3F11373   6.303   0.562  10.224 -1.3925  1.2315 -0.1842
  110OSM    H3G11374   6.131   0.530  10.261  0.2529  1.6667 -0.7019
  110OSM    C4F11375   6.202   0.460  10.065  0.1804  0.1323  0.3863
  110OSM    H4F11376   6.109   0.399  10.061 -0.6849  1.3759  1.0129
  110OSM    H4G11377   6.287   0.409  10.016 -0.2179 -0.0978 -0.0632
  110OSM    C5F11378   6.182   0.592   9.988  0.1259  0.0563 -0.6703
  110OSM    H5F11379   6.274   0.654   9.995 -0.4850  0.6617  3.5535
  110OSM    H5G11380   6.108   0.647  10.050 -0.2831 -3.6476  2.3631
  110OSM    C6F11381   6.129   0.576   9.850  0.3509  0.2353  0.9117
  110OSM    H6F11382   6.024   0.540   9.857 -0.3480  2.0122  0.0555
  110OSM    H6G11383   6.197   0.510   9.792  0.1206  0.3662  0.4911
  110OSM    C7F11384   6.113   0.714   9.781 -0.3491 -0.3227  0.1494
  110OSM    H7F11385   6.210   0.765   9.761  1.2720 -3.5875 -0.7602
  110OSM    H7G11386   6.059   0.773   9.857  0.0474 -1.6358  1.4671
  110OSM    C8F11387   6.038   0.712   9.644  0.0082  0.6637  0.3457
  110OSM    H8F11388   6.013   0.817   9.616  0.2913  0.8149  0.6510
  110OSM    H8G11389   5.946   0.652   9.664  0.3545  0.4583  1.3310
  110OSM    C9F11390   6.136   0.672   9.531 -0.3939 -0.3412 -0.1448
  110OSM    H9F11391   6.222   0.611   9.561 -0.6415  0.3626  2.0416
  110OSM   C10F11392   6.110   0.686   9.399  0.1363 -0.9163 -1.0439
  110OSM   H10F11393   6.174   0.645   9.320  0.9668  0.9299 -1.3701
  110OSM   C11F11394   5.990   0.755   9.343 -1.3209 -0.2977  0.7413
  110OSM   H11F11395   6.024   0.789   9.243  0.3223 -0.8793  1.0901
  110OSM   H11G11396   5.954   0.838   9.406  0.6588  0.7471  0.5158
  110OSM   C12F11397   5.866   0.663   9.319 -0.5000  0.0221 -0.4863
  110OSM   H12F11398   5.791   0.735   9.279 -0.7968 -0.5087 -0.8863
  110OSM   H12G11399   5.835   0.620   9.416 -1.7437  1.5827 -0.1784
  110OSM   C13F11400   5.877   0.547   9.223 -0.3453 -0.1065  0.0628
  110OSM   H13F11401   5.906   0.458   9.283 -0.8427  0.0857  0.5983
  110OSM   H13G11402   5.945   0.578   9.141 -0.7498  2.6859  0.7468
  110OSM   C14F11403   5.740   0.499   9.171  0.4806 -0.2990 -0.5378
  110OSM   H14F11404   5.673   0.481   9.258  1.3880 -2.0550 -0.1736
  110OSM   H14G11405   5.746   0.404   9.113 -0.9828 -0.3575 -0.6281
  110OSM   C15F11406   5.662   0.596   9.084 -0.1462 -0.5287  0.4263
  110OSM   H15F11407   5.663   0.697   9.129 -0.8213  0.4472 -1.6748
  110OSM   H15G11408   5.562   0.547   9.086 -0.8643  0.8860  0.2457
  110OSM   C16F11409   5.700   0.607   8.935  0.2237 -0.3947 -0.2330
  110OSM   H16F11410   5.726   0.509   8.889  0.4980 -0.0752 -0.7582
  110OSM   H16G11411   5.793   0.667   8.929  0.7886 -0.9429  2.5137
  110OSM   C17F11412   5.591   0.678   8.855 -0.3559  0.3668  0.2078
  110OSM   H17F11413   5.639   0.728   8.768  1.2009  0.5299  1.1402
  110OSM   H17G11414   5.545   0.768   8.899 -1.2175  0.4582 -0.8634
  110OSM   C18F11415   5.474   0.593   8.811 -0.7126  1.0548  0.4283
  110OSM   H18F11416   5.457   0.515   8.889 -0.7458  1.3338  0.6977
  110OSM   H18G11417   5.497   0.542   8.715 -0.8351 -1.0486  1.4699
  110OSM   H18H11418   5.376   0.643   8.796 -1.6534 -1.8714 -4.1556
  111OSM      N11419   0.231   5.255  10.871  0.2513  0.4720 -0.2953
  111OSM    C1511420   0.135   5.158  10.931  0.1314 -0.1326 -0.1887
  111OSM   H15A11421   0.188   5.109  11.011 -1.8318 -1.5740  0.2614
  111OSM   H15B11422   0.108   5.082  10.859 -0.5232 -0.6077  0.5544
  111OSM   H15C11423   0.040   5.197  10.964  0.7027 -0.3347  1.7337
  111OSM    C1411424   0.266   5.355  10.977  0.1717 -0.7858 -0.5442
  111OSM   H14A11425   0.317   5.306  11.058 -0.1681 -0.2994 -0.0363
  111OSM   H14B11426   0.181   5.407  11.018 -1.0982 -1.4952 -2.2171
  111OSM   H14C11427   0.333   5.428  10.934  0.4596 -0.0863  1.0851
  111OSM    C1311428   0.350   5.174  10.826  0.0409  0.4194 -0.5187
  111OSM   H13A11429   0.319   5.096  10.758 -3.0257  0.0198  1.2566
  111OSM   H13B11430   0.398   5.126  10.909  0.0440  2.5436  0.7692
  111OSM   H13C11431   0.418   5.242  10.776  1.1055 -0.6453 -0.5176
  111OSM    C1211432   0.166   5.338  10.762  0.6111 -0.1887  0.0001
  111OSM   H12A11433   0.092   5.402  10.807  1.3903  0.4254  0.4419
  111OSM   H12B11434   0.108   5.281  10.691  0.8181  2.1786 -2.1692
  111OSM    C1111435   0.255   5.432  10.673 -0.4570  0.2225 -0.2604
  111OSM   H11A11436   0.189   5.485  10.600  1.2332  3.7278  0.6380
  111OSM   H11B11437   0.321   5.366  10.612  0.7142 -1.8408  3.1251
  111OSM      P11438   0.494   5.531  10.736  0.0148 -0.4997 -0.4408
  111OSM    O1311439   0.549   5.628  10.832 -0.6005 -0.3629  0.2306
  111OSM    O1411440   0.555   5.398  10.735  0.2539 -0.1421  0.3795
  111OSM    O1111441   0.499   5.590  10.587 -0.1080 -0.1806  0.1214
  111OSM    O1211442   0.332   5.528  10.754  0.5589  0.2886  0.1453
  111OSM    C1S11443   0.424   5.713  10.562 -0.1765  0.0225 -0.1729
  111OSM    H1S11444   0.447   5.797  10.631  0.5786  0.4561 -0.9274
  111OSM    H1T11445   0.314   5.702  10.570 -0.4283  2.9669  1.4059
  111OSM     NF11446   0.407   5.912  10.399 -0.9482  0.5165  0.1724
  111OSM    HNF11447   0.326   5.924  10.341  0.9078 -0.8267 -2.7895
  111OSM    C2S11448   0.459   5.774  10.420 -0.4180 -0.0184  0.2279
  111OSM    H2S11449   0.570   5.775  10.410 -0.3530 -1.5802  0.6517
  111OSM    C3S11450   0.397   5.674  10.316 -0.2321 -0.0586 -0.2053
  111OSM    H3S11451   0.286   5.675  10.317 -0.2301  0.7456 -0.7620
  111OSM     O311452   0.434   5.536  10.341 -0.2787  0.2141  0.0879
  111OSM    HO311453   0.447   5.532  10.436  0.8470 -0.6860 -0.0927
  111OSM    C4S11454   0.424   5.713  10.174  0.6295 -0.1489 -0.0073
  111OSM    H4S11455   0.337   5.759  10.126  0.8126  2.0818  1.7111
  111OSM    C5S11456   0.535   5.697  10.095 -0.1084  0.7059 -0.3363
  111OSM    H5S11457   0.623   5.642  10.132 -0.0575  0.4639 -0.8055
  111OSM    C6S11458   0.549   5.753   9.954 -0.0488  0.5964  0.1366
  111OSM    H6S11459   0.581   5.673   9.883  1.2683  0.6580  0.6386
  111OSM    H6T11460   0.632   5.825   9.963  1.6721 -1.3618  0.3772
  111OSM    C7S11461   0.428   5.840   9.899  0.0068 -0.2335 -0.0804
  111OSM    H7S11462   0.415   5.924   9.970  0.5113 -0.3990  0.2176
  111OSM    H7T11463   0.336   5.779   9.891 -0.3359  0.0327  1.8228
  111OSM    C8S11464   0.459   5.894   9.760  0.0066 -0.0969  0.1848
  111OSM    H8S11465   0.563   5.932   9.751  0.2187 -0.7018  0.0667
  111OSM    H8T11466   0.388   5.977   9.739 -2.0712 -2.6357 -3.2929
  111OSM    C9S11467   0.435   5.778   9.651  0.1416  0.1798 -0.6480
  111OSM    H9S11468   0.361   5.703   9.685 -1.0219  1.1409 -0.9863
  111OSM    H9T11469   0.529   5.741   9.605  0.4421  1.6959 -1.3069
  111OSM   C10S11470   0.374   5.843   9.526 -0.0532  0.0804 -0.0522
  111OSM   H10S11471   0.291   5.907   9.562 -0.8710  0.6878 -2.8880
  111OSM   H10T11472   0.325   5.761   9.469 -0.3970 -0.4499  0.9771
  111OSM   C11S11473   0.478   5.908   9.434 -0.3456 -0.5595  0.0183
  111OSM   H11S11474   0.552   5.830   9.407  0.1458  0.0025 -0.2745
  111OSM   H11T11475   0.534   5.976   9.501 -1.6086  0.4363  0.0927
  111OSM   C12S11476   0.424   5.977   9.311 -0.4826 -0.2916  0.5302
  111OSM   H12S11477   0.509   6.039   9.275  1.4973 -2.5564  1.1499
  111OSM   H12T11478   0.339   6.044   9.337  0.9283  1.7138  0.1195
  111OSM   C13S11479   0.391   5.879   9.205  0.1102 -0.6272 -0.7016
  111OSM   H13S11480   0.328   5.797   9.245  0.0378 -0.6128 -0.7851
  111OSM   H13T11481   0.480   5.817   9.177  1.7259  0.8740  0.9786
  111OSM   C14S11482   0.321   5.940   9.081 -0.0414 -0.7263  0.0239
  111OSM   H14S11483   0.226   5.989   9.112  1.8540  2.1840  1.3880
  111OSM   H14T11484   0.293   5.865   9.004  2.4268 -0.2811 -1.3471
  111OSM   C15S11485   0.407   6.047   9.016 -0.3549 -0.3260 -0.4618
  111OSM   H15S11486   0.509   6.005   9.011 -0.6400 -0.8529 -2.3240
  111OSM   H15T11487   0.406   6.131   9.089 -1.2462  0.5075 -1.4140
  111OSM   C16S11488   0.340   6.113   8.888 -0.5135 -0.0466 -0.1143
  111OSM   H16S11489   0.233   6.140   8.899 -0.7186 -0.6182 -0.7022
  111OSM   H16T11490   0.348   6.037   8.807 -2.1345 -1.8131  1.3549
  111OSM   C17S11491   0.415   6.246   8.844 -0.5129  0.4428 -0.2118
  111OSM   H17S11492   0.413   6.311   8.933  0.2396 -1.1245  0.9736
  111OSM   H17T11493   0.352   6.298   8.768 -0.5360  1.2045  0.3202
  111OSM   C18S11494   0.563   6.225   8.783  0.6590 -0.0402 -0.1199
  111OSM   H18S11495   0.562   6.231   8.672 -0.6272 -1.9258 -0.2248
  111OSM   H18T11496   0.597   6.125   8.817  0.9928 -0.2506 -1.0685
  111OSM   H18U11497   0.630   6.302   8.827  2.5583 -1.5240 -0.3248
  111OSM    C1F11498   0.458   6.017  10.461  0.6979  0.0584 -0.0811
  111OSM     OF11499   0.556   6.012  10.533  0.1699  0.2396  0.1342
  111OSM    C2F11500   0.390   6.140  10.427  0.7199 -0.7710  0.8523
  111OSM    H2F11501   0.304   6.152  10.496 -0.6444  0.1038 -0.9459
  111OSM    H2G11502   0.352   6.132  10.323 -1.4120  2.6857  1.2631
  111OSM    C3F11503   0.487   6.261  10.436  0.5159 -0.2143 -1.0844
  111OSM    H3F11504   0.520   6.272  10.542 -0.7253  3.4963 -1.0019
  111OSM    H3G11505   0.420   6.344  10.404  0.4916  0.2050  0.0253
  111OSM    C4F11506   0.608   6.247  10.342  0.6874  0.2224  0.3301
  111OSM    H4F11507   0.664   6.154  10.364  0.3237 -0.2360 -0.6260
  111OSM    H4G11508   0.674   6.334  10.363 -1.8335  1.8165  1.8566
  111OSM    C5F11509   0.565   6.266  10.200 -0.4343 -0.9284  0.0026
  111OSM    H5F11510   0.485   6.342  10.194 -0.3515 -0.9047 -0.8213
  111OSM    H5G11511   0.507   6.177  10.168 -0.1327 -1.0275 -0.2729
  111OSM    C6F11512   0.666   6.306  10.101 -0.0375 -0.3981 -0.6743
  111OSM    H6F11513   0.738   6.222  10.097 -0.3266 -0.6896  0.3267
  111OSM    H6G11514   0.708   6.400  10.144  1.4744 -0.4414 -2.0039
  111OSM    C7F11515   0.605   6.355   9.962 -0.8692 -0.4807  0.3326
  111OSM    H7F11516   0.679   6.429   9.925 -0.1959 -0.5130  1.5893
  111OSM    H7G11517   0.503   6.398   9.976 -0.5103  0.0970  1.2441
  111OSM    C8F11518   0.587   6.241   9.861 -0.0386  0.3322  0.6599
  111OSM    H8F11519   0.535   6.287   9.774  2.0764 -1.3527 -1.5674
  111OSM    H8G11520   0.517   6.166   9.903 -1.9738  1.3953 -0.6018
  111OSM    C9F11521   0.722   6.184   9.814  1.1016  0.5755  0.0074
  111OSM    H9F11522   0.787   6.131   9.885  1.3507  1.1419  0.2078
  111OSM   C10F11523   0.764   6.191   9.686 -0.0599 -0.8993  0.2340
  111OSM   H10F11524   0.863   6.153   9.656  0.7051  1.7126 -0.6539
  111OSM   C11F11525   0.710   6.263   9.563 -0.7809 -0.9536  0.3270
  111OSM   H11F11526   0.627   6.336   9.577  1.1376  0.9904  1.8797
  111OSM   H11G11527   0.660   6.182   9.504  0.2528 -0.1035 -1.7495
  111OSM   C12F11528   0.824   6.339   9.486  0.4138  0.6957  0.7773
  111OSM   H12F11529   0.911   6.275   9.461 -0.3193  0.8204 -2.2176
  111OSM   H12G11530   0.863   6.422   9.549 -0.3908  0.1659  2.0146
  111OSM   C13F11531   0.763   6.381   9.346  0.6248 -0.7243  0.0293
  111OSM   H13F11532   0.829   6.460   9.304 -2.7393  0.6264 -2.9676
  111OSM   H13G11533   0.663   6.429   9.351  2.7757  3.8917  1.7404
  111OSM   C14F11534   0.753   6.269   9.243  0.0781 -0.1790 -0.4079
  111OSM   H14F11535   0.707   6.310   9.151 -0.3766 -1.3215 -0.6902
  111OSM   H14G11536   0.694   6.182   9.280 -0.2288 -0.4452 -1.5242
  111OSM   C15F11537   0.895   6.231   9.196  0.1995  0.0886 -0.7329
  111OSM   H15F11538   0.951   6.168   9.268  2.7576  1.1583 -1.6841
  111OSM   H15G11539   0.946   6.326   9.168  0.0000  0.9019  1.5891
  111OSM   C16F11540   0.888   6.144   9.073  0.1133 -0.1444  0.3516
  111OSM   H16F11541   0.995   6.122   9.049 -0.1365 -0.3916 -0.5807
  111OSM   H16G11542   0.838   6.203   8.993 -0.4435 -0.1998  0.6581
  111OSM   C17F11543   0.807   6.011   9.092 -0.0554 -0.0949 -0.3294
  111OSM   H17F11544   0.701   6.042   9.106 -0.2330 -0.6830 -0.3708
  111OSM   H17G11545   0.843   5.954   9.180 -1.9796  0.1808  0.6604
  111OSM   C18F11546   0.804   5.929   8.968  0.2583 -0.5698  0.1059
  111OSM   H18F11547   0.759   5.832   8.998 -0.3701 -0.6512 -1.0943
  111OSM   H18G11548   0.904   5.920   8.920  0.6676  1.6568  0.4766
  111OSM   H18H11549   0.744   5.968   8.883  0.6249  0.7125  0.4219
  112OSM      N11550   6.117   4.062  10.586 -0.1463 -0.1082  0.4433
  112OSM    C1511551   6.262   4.036  10.621 -0.1345  0.6288 -0.2326
  112OSM   H15A11552   6.294   3.944  10.574  1.6220  1.1980 -0.2077
  112OSM   H15B11553   6.270   4.015  10.726  0.1583  3.5176  0.3782
  112OSM   H15C11554   6.329   4.114  10.588 -1.6248  1.6333 -0.9639
  112OSM    C1411555   6.096   4.203  10.627  0.0767  0.7252  0.3396
  112OSM   H14A11556   6.159   4.271  10.571 -2.0825  3.1084  0.6573
  112OSM   H14B11557   6.116   4.211  10.733  0.2508  0.1202  0.3484
  112OSM   H14C11558   5.992   4.233  10.623 -0.1351 -0.1670 -1.5355
  112OSM    C1311559   6.109   4.054  10.435  0.9184  0.7684 -0.0485
  112OSM   H13A11560   6.014   4.101  10.412  0.7816  0.8210  0.6219
  112OSM   H13B11561   6.103   3.949  10.411  2.0972  0.5799  0.4492
  112OSM   H13C11562   6.192   4.099  10.383  0.6999  0.1886 -0.9112
  112OSM    C1211563   6.021   3.971  10.658 -0.3310 -0.6264 -0.2379
  112OSM   H12A11564   5.920   4.004  10.641  0.0701  1.6099  1.4541
  112OSM   H12B11565   6.041   3.993  10.762  1.9890  3.8624 -1.4922
  112OSM    C1111566   6.029   3.818  10.627  0.4346  0.0341  0.8648
  112OSM   H11A11567   6.018   3.799  10.518  0.6082 -0.0486  0.8598
  112OSM   H11B11568   5.946   3.765  10.678  0.0823  2.7493  3.2385
  112OSM      P11569   6.171   3.709  10.813 -0.5021  0.2072 -0.1847
  112OSM    O1311570   6.244   3.809  10.896  0.3475 -0.4279 -0.0701
  112OSM    O1411571   6.045   3.660  10.872  0.3519 -0.3046 -0.2451
  112OSM    O1111572   6.273   3.584  10.769  0.4361 -0.2616 -0.7014
  112OSM    O1211573   6.150   3.765  10.669 -0.3827 -0.2270  0.2918
  112OSM    C1S11574   6.213   3.475  10.701  0.5520  0.6925 -0.1100
  112OSM    H1S11575   6.147   3.510  10.619 -0.9149  2.1142  1.6375
  112OSM    H1T11576   6.154   3.411  10.769  5.0733  0.4668  3.8694
  112OSM     NF11577   6.272   3.296  10.540 -0.0511 -0.1341  0.3799
  112OSM    HNF11578   6.226   3.214  10.574  2.8430 -2.1700 -0.4261
  112OSM    C2S11579   6.322   3.387  10.648  0.3913  0.5628 -0.2579
  112OSM    H2S11580   6.404   3.452  10.612  0.7838  1.2927  1.8922
  112OSM    C3S11581   6.376   3.305  10.760 -0.8066  0.1427 -0.9003
  112OSM    H3S11582   6.294   3.242  10.801 -0.0955 -0.7711 -0.8591
  112OSM     O311583   6.418   3.381  10.875  0.1223 -0.0034 -1.0546
  112OSM    HO311584   6.363   3.460  10.871 -2.1289 -1.4892 -0.9585
  112OSM    C4S11585   6.492   3.228  10.705  0.7667 -0.1282 -0.5371
  112OSM    H4S11586   6.450   3.138  10.659 -1.3634 -0.7317  2.4419
  112OSM    C5S11587   6.621   3.270  10.691 -0.4417  0.0618 -0.0020
  112OSM    H5S11588   6.658   3.372  10.708  2.4534 -0.9250 -0.1173
  112OSM    C6S11589   6.732   3.191  10.625 -0.5861  0.0939 -0.0970
  112OSM    H6S11590   6.808   3.161  10.700  1.2250 -0.3326 -2.0471
  112OSM    H6T11591   6.774   3.268  10.557 -2.7438  2.7318  1.4922
  112OSM    C7S11592   6.702   3.055  10.550  0.7245  0.6800  0.1748
  112OSM    H7S11593   6.662   2.993  10.632 -0.3303  2.9658  1.4199
  112OSM    H7T11594   6.798   3.007  10.519  0.0793 -1.3924  1.2874
  112OSM    C8S11595   6.615   3.069  10.423  0.2564 -0.1270 -0.4450
  112OSM    H8S11596   6.659   3.152  10.364 -0.7976  1.5717  1.0845
  112OSM    H8T11597   6.510   3.087  10.454  0.1408  0.7070 -1.3142
  112OSM    C9S11598   6.622   2.948  10.334  0.7576  0.3174 -0.4580
  112OSM    H9S11599   6.600   2.853  10.387  0.4719  0.9240  0.5140
  112OSM    H9T11600   6.725   2.940  10.292  0.4088 -0.5152 -1.1794
  112OSM   C10S11601   6.514   2.973  10.228 -0.3382 -0.8426 -0.7180
  112OSM   H10S11602   6.539   3.076  10.196 -1.7195 -0.7212 -1.4709
  112OSM   H10T11603   6.418   2.963  10.284  0.3226  0.2204  0.6400
  112OSM   C11S11604   6.514   2.898  10.094  0.1377 -0.6427 -0.5065
  112OSM   H11S11605   6.487   2.791  10.105  1.4359 -0.6803  2.8171
  112OSM   H11T11606   6.609   2.912  10.038  0.9976 -2.5118  0.4345
  112OSM   C12S11607   6.408   2.964  10.005 -0.6846 -0.1747  0.1930
  112OSM   H12S11608   6.427   3.074  10.011  2.0949 -0.5332 -1.3100
  112OSM   H12T11609   6.308   2.930  10.040 -0.5048 -1.0784 -0.1558
  112OSM   C13S11610   6.428   2.925   9.859  0.2172 -0.7176  0.1302
  112OSM   H13S11611   6.393   2.823   9.834  0.1608 -0.4564 -0.8436
  112OSM   H13T11612   6.529   2.950   9.819  0.5036 -2.6367 -0.3894
  112OSM   C14S11613   6.331   3.014   9.772 -0.5083  0.1057 -0.4977
  112OSM   H14S11614   6.324   3.121   9.798 -1.5439 -0.1749  0.4064
  112OSM   H14T11615   6.229   2.979   9.796 -1.1090  1.2348 -1.3653
  112OSM   C15S11616   6.346   2.979   9.621  0.1611 -0.0556  0.0555
  112OSM   H15S11617   6.324   2.873   9.597 -0.7953  0.1382  0.0873
  112OSM   H15T11618   6.447   3.006   9.584 -0.1145  0.9162  0.0024
  112OSM   C16S11619   6.253   3.051   9.525 -0.2964  0.3677 -0.0423
  112OSM   H16S11620   6.235   3.150   9.573  0.6130  0.5315 -0.0137
  112OSM   H16T11621   6.155   3.001   9.515  1.7995 -3.4737 -2.3125
  112OSM   C17S11622   6.305   3.055   9.379  0.3997  0.3162  0.1910
  112OSM   H17S11623   6.333   2.952   9.348 -2.7124  0.2264 -2.4696
  112OSM   H17T11624   6.394   3.122   9.379 -0.3858  1.4578 -2.7144
  112OSM   C18S11625   6.195   3.112   9.289 -0.6518 -0.0442  0.7672
  112OSM   H18S11626   6.227   3.143   9.187  1.1638  1.7158  1.8303
  112OSM   H18T11627   6.163   3.208   9.335 -0.3331 -0.8466  2.7066
  112OSM   H18U11628   6.109   3.042   9.281  0.1252 -0.9059 -0.3686
  112OSM    C1F11629   6.244   3.334  10.418 -0.7464 -0.0280 -0.5007
  112OSM     OF11630   6.290   3.438  10.375  0.2981 -0.0758  0.1317
  112OSM    C2F11631   6.152   3.249  10.340  0.0899 -0.0906 -0.2725
  112OSM    H2F11632   6.050   3.289  10.362  0.2472  0.4088 -0.4448
  112OSM    H2G11633   6.152   3.145  10.379  0.3738 -0.9267 -2.4106
  112OSM    C3F11634   6.184   3.246  10.190 -0.9934  0.3533  0.0500
  112OSM    H3F11635   6.276   3.186  10.173 -1.5868 -0.1685 -1.4021
  112OSM    H3G11636   6.204   3.349  10.154  1.8295  0.1805  0.9755
  112OSM    C4F11637   6.061   3.207  10.110 -0.6742  0.2138  0.3881
  112OSM    H4F11638   6.083   3.227  10.003 -2.2930 -0.8629 -0.1539
  112OSM    H4G11639   5.974   3.270  10.139 -0.7803  0.1654  0.1690
  112OSM    C5F11640   6.025   3.061  10.109  0.9389  0.3780  0.2428
  112OSM    H5F11641   6.014   3.015  10.210  0.7360  1.2938  0.6446
  112OSM    H5G11642   6.104   3.009  10.050  0.6151  1.0111 -0.7530
  112OSM    C6F11643   5.890   3.024  10.046  0.0931  0.4331  0.2499
  112OSM    H6F11644   5.811   3.059  10.117  1.7051 -0.6570  2.6646
  112OSM    H6G11645   5.869   2.915  10.040  0.1986  0.4860 -1.2019
  112OSM    C7F11646   5.853   3.091   9.913 -0.4463  0.3386 -0.1609
  112OSM    H7F11647   5.934   3.093   9.837 -1.7772 -0.3413 -1.6154
  112OSM    H7G11648   5.839   3.200   9.931  0.2295  0.2881  0.7028
  112OSM    C8F11649   5.731   3.027   9.844 -0.5970 -0.3574  0.1337
  112OSM    H8F11650   5.655   3.008   9.924  0.4563 -0.7932  1.0554
  112OSM    H8G11651   5.748   2.919   9.821  0.2429 -0.6865  2.1217
  112OSM    C9F11652   5.670   3.106   9.728  0.2494  0.4898 -0.6265
  112OSM    H9F11653   5.608   3.187   9.768 -1.7268 -0.7122 -1.2283
  112OSM   C10F11654   5.667   3.063   9.599  0.3925  0.1572 -0.0013
  112OSM   H10F11655   5.594   3.118   9.538 -0.7540  0.4592  1.6340
  112OSM   C11F11656   5.729   2.932   9.550 -0.1446 -0.5566 -0.7681
  112OSM   H11F11657   5.695   2.847   9.612  1.8627  0.4061  1.7217
  112OSM   H11G11658   5.839   2.943   9.543 -0.4315  3.1396 -0.8021
  112OSM   C12F11659   5.674   2.900   9.405  0.0153 -0.2404  0.6058
  112OSM   H12F11660   5.674   2.991   9.341  0.9751  0.1859  1.2011
  112OSM   H12G11661   5.572   2.858   9.416  0.4013 -1.2645  0.3116
  112OSM   C13F11662   5.758   2.786   9.336 -0.1052  0.1819 -0.5615
  112OSM   H13F11663   5.785   2.717   9.418 -2.6477  1.7205  1.6738
  112OSM   H13G11664   5.847   2.840   9.298 -0.5666 -0.6465 -2.9054
  112OSM   C14F11665   5.681   2.724   9.210 -0.0690  0.6535  0.0522
  112OSM   H14F11666   5.596   2.664   9.248 -1.3582  2.2276 -0.2563
  112OSM   H14G11667   5.749   2.650   9.163 -0.6530  0.5890 -0.7015
  112OSM   C15F11668   5.632   2.829   9.111  0.4779  0.4818 -0.7869
  112OSM   H15F11669   5.714   2.889   9.065  2.7159 -0.2123  2.1969
  112OSM   H15G11670   5.566   2.907   9.155  0.4100  0.7739 -1.3964
  112OSM   C16F11671   5.539   2.765   9.012 -0.1137  0.4075  0.3999
  112OSM   H16F11672   5.479   2.843   8.963  0.6800 -1.1284 -3.1306
  112OSM   H16G11673   5.478   2.687   9.063 -0.1219 -2.3794 -3.6833
  112OSM   C17F11674   5.625   2.699   8.906  0.4367 -0.3818  0.4767
  112OSM   H17F11675   5.711   2.642   8.948 -0.5891 -1.0894  1.6163
  112OSM   H17G11676   5.667   2.776   8.837  0.3532  2.3884  3.4355
  112OSM   C18F11677   5.533   2.603   8.830  0.4746 -0.1308  0.2715
  112OSM   H18F11678   5.501   2.523   8.899 -0.6730  0.5108  0.5008
  112OSM   H18G11679   5.594   2.546   8.756 -0.0308 -0.4707  0.1175
  112OSM   H18H11680   5.457   2.667   8.780  0.7033 -0.1416 -0.0917
  113OSM      N11681   0.182   1.839  11.137  0.4424 -0.0321  0.1406
  113OSM    C1511682   0.090   1.722  11.150  0.1464  0.2052 -0.3831
  113OSM   H15A11683   0.124   1.656  11.228  2.1788  0.5243 -0.9717
  113OSM   H15B11684   0.082   1.659  11.063 -1.0262 -3.7283  2.4250
  113OSM   H15C11685  -0.014   1.747  11.169  0.1478 -0.2570  0.2143
  113OSM    C1411686   0.185   1.909  11.269 -0.6663  0.4432  0.0149
  113OSM   H14A11687   0.192   1.838  11.351 -0.2002  1.5388  0.9387
  113OSM   H14B11688   0.105   1.978  11.289 -1.1163 -1.3163  4.8736
  113OSM   H14C11689   0.273   1.971  11.271  1.0071 -1.8839  0.9320
  113OSM    C1311690   0.312   1.778  11.108  0.0911  0.2616  0.4760
  113OSM   H13A11691   0.303   1.713  11.022  1.8561  3.3410 -2.1512
  113OSM   H13B11692   0.357   1.719  11.187  0.2740  0.1901  0.3191
  113OSM   H13C11693   0.378   1.854  11.069  0.7177 -0.2978  0.4177
  113OSM    C1211694   0.148   1.936  11.026 -0.5014  0.3368  1.0581
  113OSM   H12A11695   0.212   2.023  11.034  1.1641 -0.9058  1.7312
  113OSM   H12B11696   0.050   1.975  11.047 -0.6259  1.9553 -2.3036
  113OSM    C1111697   0.140   1.897  10.876  0.1724 -1.0998 -0.0791
  113OSM   H11A11698   0.223   1.833  10.842  0.4341 -1.6453  1.5607
  113OSM   H11B11699   0.137   1.985  10.807 -1.6984  0.9248  2.4611
  113OSM      P11700  -0.115   1.896  10.828  0.1609  0.8060 -0.0168
  113OSM    O1311701  -0.221   1.796  10.813  0.0016  0.8353  0.0428
  113OSM    O1411702  -0.137   1.987  10.939  0.1852  1.4319 -0.6176
  113OSM    O1111703  -0.095   1.986  10.696  0.5719 -0.1505  0.5554
  113OSM    O1211704   0.019   1.821  10.856 -0.1004 -0.2943  0.2227
  113OSM    C1S11705  -0.040   1.934  10.580  0.0736 -0.4745  0.2580
  113OSM    H1S11706  -0.094   1.840  10.555 -0.6334 -0.2871  1.0429
  113OSM    H1T11707   0.065   1.903  10.598 -0.2550 -1.3159  0.7729
  113OSM     NF11708   0.021   1.991  10.349 -0.3665  0.1340  0.7998
  113OSM    HNF11709   0.112   2.022  10.324  0.9156 -2.2796  2.2563
  113OSM    C2S11710  -0.036   2.044  10.469 -0.4130 -1.1515  0.5437
  113OSM    H2S11711  -0.140   2.071  10.438  0.2362 -0.5321 -1.1629
  113OSM    C3S11712   0.031   2.176  10.516  0.0593 -0.4592 -1.0526
  113OSM    H3S11713   0.137   2.152  10.542  0.1949  1.1471 -0.0248
  113OSM     O311714  -0.014   2.237  10.640 -0.3983 -0.0002 -0.5382
  113OSM    HO311715  -0.051   2.161  10.684  1.2813 -0.7632 -0.3879
  113OSM    C4S11716   0.040   2.278  10.416  0.1762 -0.3855 -0.2571
  113OSM    H4S11717   0.136   2.285  10.362  1.2014  1.5680  1.7653
  113OSM    C5S11718  -0.048   2.379  10.382  0.0443  0.2087  0.1125
  113OSM    H5S11719  -0.142   2.402  10.435  0.9305  1.1756  1.3062
  113OSM    C6S11720  -0.017   2.482  10.275  0.8686 -0.5474  0.1142
  113OSM    H6S11721   0.083   2.478  10.227  1.9466  0.5138  2.1979
  113OSM    H6T11722  -0.008   2.585  10.315  1.3250  0.1768 -1.8067
  113OSM    C7S11723  -0.115   2.502  10.152 -0.4202 -0.4114 -0.8225
  113OSM    H7S11724  -0.213   2.532  10.195 -0.8050 -2.6382 -0.0829
  113OSM    H7T11725  -0.125   2.407  10.095  0.7402 -0.8388 -0.3249
  113OSM    C8S11726  -0.063   2.609  10.061 -0.3065 -0.4157  0.2632
  113OSM    H8S11727   0.047   2.595  10.055 -0.4781 -0.8330 -2.8795
  113OSM    H8T11728  -0.083   2.709  10.105 -3.1616 -2.2164  3.2589
  113OSM    C9S11729  -0.112   2.604   9.918 -0.1512 -0.3547 -0.7252
  113OSM    H9S11730  -0.221   2.623   9.913 -0.1910  0.5185  2.5357
  113OSM    H9T11731  -0.095   2.502   9.878 -1.7254 -0.0173 -2.2995
  113OSM   C10S11732  -0.048   2.705   9.827 -0.1683  0.0231 -0.6357
  113OSM   H10S11733   0.062   2.705   9.848 -0.3972  0.4640  0.6301
  113OSM   H10T11734  -0.072   2.811   9.852 -2.8574 -0.6987  0.0243
  113OSM   C11S11735  -0.072   2.668   9.680 -0.8135 -0.5424  0.3129
  113OSM   H11S11736  -0.023   2.575   9.645 -1.5405 -1.3968  1.5776
  113OSM   H11T11737  -0.011   2.747   9.629 -0.1991 -2.1382 -1.4779
  113OSM   C12S11738  -0.219   2.678   9.631  0.3280  0.0622  0.1444
  113OSM   H12S11739  -0.262   2.759   9.694 -0.8075 -1.3963  1.2763
  113OSM   H12T11740  -0.270   2.580   9.643  0.3432  0.0669  0.2445
  113OSM   C13S11741  -0.233   2.696   9.480 -0.5263 -0.5449  0.8556
  113OSM   H13S11742  -0.166   2.781   9.454  1.0333 -1.4549  1.8408
  113OSM   H13T11743  -0.335   2.713   9.440  0.0666 -2.0010 -1.3305
  113OSM   C14S11744  -0.189   2.569   9.396 -0.5142  1.2433  0.1459
  113OSM   H14S11745  -0.273   2.497   9.408 -0.8686  1.5476 -0.5011
  113OSM   H14T11746  -0.090   2.529   9.427 -0.3231  0.8799 -0.9109
  113OSM   C15S11747  -0.178   2.593   9.248  0.1045  0.7456 -0.4407
  113OSM   H15S11748  -0.085   2.653   9.232  1.5549 -1.4396 -0.4197
  113OSM   H15T11749  -0.269   2.649   9.219 -0.4664  0.1874  0.2828
  113OSM   C16S11750  -0.178   2.464   9.172  0.1424  0.0059  0.2804
  113OSM   H16S11751  -0.261   2.403   9.212  2.0105 -0.2305  3.9916
  113OSM   H16T11752  -0.086   2.408   9.201 -0.3966 -0.5907  0.8270
  113OSM   C17S11753  -0.171   2.497   9.023  0.2292 -0.0930  0.4906
  113OSM   H17S11754  -0.085   2.561   8.993  1.3963 -1.3968  1.0017
  113OSM   H17T11755  -0.263   2.555   9.000  1.2319  2.1306  1.9399
  113OSM   C18S11756  -0.176   2.368   8.941 -0.5585 -0.2805  0.3064
  113OSM   H18S11757  -0.159   2.384   8.832  1.4457  1.2988  0.8079
  113OSM   H18T11758  -0.272   2.315   8.954 -0.6472 -0.8684 -2.3553
  113OSM   H18U11759  -0.091   2.311   8.984 -1.0217 -0.7796  0.5667
  113OSM    C1F11760  -0.034   1.890  10.272 -0.1858  0.4276  0.0289
  113OSM     OF11761  -0.143   1.843  10.300  0.0511  0.5041 -0.0615
  113OSM    C2F11762   0.066   1.837  10.170  0.9318  0.1264 -0.1416
  113OSM    H2F11763   0.064   1.726  10.176  2.0104 -0.0172 -2.0977
  113OSM    H2G11764   0.166   1.883  10.178  0.8873  0.1689  0.1833
  113OSM    C3F11765  -0.000   1.858  10.023 -1.0774 -0.5371 -0.1043
  113OSM    H3F11766  -0.007   1.966   9.997  1.1416 -0.9893 -2.7949
  113OSM    H3G11767  -0.098   1.806  10.036  0.4783 -3.3885  0.8126
  113OSM    C4F11768   0.068   1.787   9.903  0.6066  0.0569 -0.0861
  113OSM    H4F11769   0.035   1.681   9.916  0.6074  0.1174  0.4427
  113OSM    H4G11770   0.179   1.784   9.907  0.6022  0.7252  0.5629
  113OSM    C5F11771   0.010   1.836   9.774 -0.2013 -0.2154  0.8536
  113OSM    H5F11772   0.037   1.944   9.769  2.7807 -0.9432  0.3951
  113OSM    H5G11773  -0.101   1.833   9.772 -0.2044 -0.3490 -2.3000
  113OSM    C6F11774   0.048   1.753   9.650  0.0539  0.4390 -0.1328
  113OSM    H6F11775   0.038   1.643   9.660 -0.1985  0.2997 -1.7890
  113OSM    H6G11776   0.151   1.777   9.615  0.0101  0.8845  0.0448
  113OSM    C7F11777  -0.038   1.801   9.529 -0.2452  0.4541  0.8215
  113OSM    H7F11778  -0.016   1.908   9.510 -0.4790  0.4588  0.5655
  113OSM    H7G11779  -0.144   1.782   9.552 -0.1201 -1.0193  0.2499
  113OSM    C8F11780   0.004   1.729   9.391  0.8085  0.0939  0.0391
  113OSM    H8F11781  -0.011   1.619   9.403 -0.7227  0.3862  0.7993
  113OSM    H8G11782   0.113   1.743   9.369  1.1166 -0.8967  0.8993
  113OSM    C9F11783  -0.092   1.759   9.281 -0.0276  0.0219 -0.1375
  113OSM    H9F11784  -0.175   1.686   9.275 -1.2167  1.3306  0.1455
  113OSM   C10F11785  -0.088   1.857   9.183 -0.2351 -0.0087  0.1725
  113OSM   H10F11786  -0.168   1.875   9.109  1.0770  1.5235 -0.9140
  113OSM   C11F11787   0.025   1.954   9.174  0.0753  0.1921 -0.6724
  113OSM   H11F11788   0.058   1.960   9.068 -0.6254  1.9061 -0.7997
  113OSM   H11G11789   0.109   1.925   9.242 -0.9871 -3.7123 -0.8524
  113OSM   C12F11790  -0.019   2.096   9.193 -0.2852  0.2480 -0.1396
  113OSM   H12F11791  -0.112   2.124   9.139  0.4058  4.6666  0.7882
  113OSM   H12G11792   0.060   2.169   9.163 -0.2046 -0.3467 -1.3769
  113OSM   C13F11793  -0.034   2.139   9.346  0.4453 -0.2953  0.6628
  113OSM   H13F11794  -0.099   2.075   9.409 -0.2462 -1.8730 -1.6324
  113OSM   H13G11795  -0.081   2.238   9.329  0.3631 -0.5201 -0.4038
  113OSM   C14F11796   0.092   2.170   9.428 -0.1391 -0.1082  0.2585
  113OSM   H14F11797   0.150   2.254   9.384  2.1215 -1.4920  0.5699
  113OSM   H14G11798   0.157   2.083   9.452 -0.7204 -0.5798  0.1386
  113OSM   C15F11799   0.035   2.213   9.568  0.5005  0.7000  0.0335
  113OSM   H15F11800  -0.024   2.134   9.620 -1.0302  2.2915  0.7783
  113OSM   H15G11801  -0.042   2.290   9.546  0.0681  0.4737  0.7253
  113OSM   C16F11802   0.146   2.254   9.658 -0.4141 -0.1720 -0.7307
  113OSM   H16F11803   0.207   2.332   9.607  1.9493 -0.7677  1.1284
  113OSM   H16G11804   0.218   2.170   9.666  0.0118  0.3076  0.6555
  113OSM   C17F11805   0.121   2.309   9.799  0.4798  0.6228 -0.2111
  113OSM   H17F11806   0.078   2.235   9.869  0.1875  0.0974 -0.9305
  113OSM   H17G11807   0.047   2.390   9.788 -0.6935 -0.0779  2.3285
  113OSM   C18F11808   0.234   2.363   9.879  0.6465 -0.6115 -0.2228
  113OSM   H18F11809   0.211   2.383   9.986  1.1806  1.8403 -0.5441
  113OSM   H18G11810   0.272   2.458   9.835 -0.5773  0.8473  1.8057
  113OSM   H18H11811   0.311   2.283   9.873  0.3944 -0.7715 -1.5326
  114OSM      N11812   1.879   0.625  11.150  0.7609  0.0247 -1.0386
  114OSM    C1511813   1.886   0.737  11.057 -0.1452 -0.4928  0.7109
  114OSM   H15A11814   1.985   0.778  11.071 -1.0610  2.0081  0.2119
  114OSM   H15B11815   1.827   0.822  11.088 -0.8155 -0.0240 -1.7023
  114OSM   H15C11816   1.868   0.698  10.957 -1.5226  1.2002  0.2658
  114OSM    C1411817   1.742   0.564  11.125  0.5766  0.6414  0.4992
  114OSM   H14A11818   1.701   0.488  11.191  0.3246  2.3452  2.3475
  114OSM   H14B11819   1.733   0.527  11.024  0.2931 -0.2069  0.8246
  114OSM   H14C11820   1.673   0.647  11.129  0.2393  0.5194 -1.8929
  114OSM    C1311821   1.980   0.514  11.125  0.6424 -0.8926 -0.5415
  114OSM   H13A11822   1.962   0.428  11.187 -1.4371 -0.8159 -1.0092
  114OSM   H13B11823   2.081   0.553  11.134  0.7516 -0.9365 -1.5662
  114OSM   H13C11824   1.975   0.478  11.024  1.8324  0.6396 -1.1690
  114OSM    C1211825   1.897   0.671  11.295  0.1128  0.1642 -0.2593
  114OSM   H12A11826   1.975   0.746  11.293 -1.1754  1.5903  1.7512
  114OSM   H12B11827   1.920   0.587  11.359 -1.6492 -0.7975 -0.8570
  114OSM    C1111828   1.769   0.739  11.360 -0.5653  0.1384 -0.7587
  114OSM   H11A11829   1.795   0.765  11.465 -1.3194 -0.5050 -0.4048
  114OSM   H11B11830   1.682   0.670  11.369  0.2379 -0.5171  2.8139
  114OSM      P11831   1.614   0.940  11.359 -0.4350  0.0563 -0.1555
  114OSM    O1311832   1.521   0.860  11.440  0.0156  0.7875  0.4998
  114OSM    O1411833   1.679   1.056  11.429 -0.4940  0.2147  0.1715
  114OSM    O1111834   1.523   0.996  11.246  0.3617  0.0218  0.2620
  114OSM    O1211835   1.718   0.845  11.280  0.4526  0.2059 -0.3977
  114OSM    C1S11836   1.556   0.989  11.110  0.3124  0.0129  0.4363
  114OSM    H1S11837   1.526   0.886  11.081 -2.9538  0.8353  0.7737
  114OSM    H1T11838   1.666   1.001  11.095  0.2714  1.2911  1.1400
  114OSM     NF11839   1.514   1.059  10.880  0.5346  0.6967  0.2225
  114OSM    HNF11840   1.564   1.124  10.824  0.7147  0.8506  0.5653
  114OSM    C2S11841   1.488   1.088  11.017  0.3143  0.0325  0.7436
  114OSM    H2S11842   1.383   1.061  11.042 -0.4015  0.5629 -1.5649
  114OSM    C3S11843   1.513   1.231  11.059 -0.1751  0.4622  0.1783
  114OSM    H3S11844   1.619   1.260  11.047 -0.2512  0.8560  0.4085
  114OSM     O311845   1.491   1.248  11.201 -0.7772  0.1458 -0.1228
  114OSM    HO311846   1.506   1.155  11.220  0.1110  0.1214 -0.9090
  114OSM    C4S11847   1.439   1.337  10.988 -0.1157  0.4868 -0.1183
  114OSM    H4S11848   1.476   1.376  10.892  0.4269 -0.9595 -0.5211
  114OSM    C5S11849   1.313   1.382  11.011  0.2994  0.2382 -0.8258
  114OSM    H5S11850   1.265   1.347  11.104  0.8076  0.6700 -0.3964
  114OSM    C6S11851   1.254   1.487  10.928  0.0555 -0.3655  0.4009
  114OSM    H6S11852   1.318   1.578  10.934 -1.0262  0.3421  1.3539
  114OSM    H6T11853   1.151   1.512  10.961  0.9260  3.8505  0.0919
  114OSM    C7S11854   1.241   1.445  10.775  0.5565 -0.8337  0.1678
  114OSM    H7S11855   1.344   1.429  10.736  0.1846 -1.6658 -0.4953
  114OSM    H7T11856   1.193   1.529  10.721 -1.5109 -1.2489  1.2996
  114OSM    C8S11857   1.173   1.315  10.735  0.3258 -0.6340 -0.1352
  114OSM    H8S11858   1.064   1.331  10.727  0.3439 -1.2366 -1.6107
  114OSM    H8T11859   1.190   1.230  10.804  1.2290  0.3172  0.8486
  114OSM    C9S11860   1.218   1.275  10.594 -0.1970  0.0573 -0.8320
  114OSM    H9S11861   1.167   1.177  10.586  0.6622 -0.6621  2.0319
  114OSM    H9T11862   1.328   1.259  10.583 -0.0380  0.1946  0.4707
  114OSM   C10S11863   1.163   1.376  10.490  0.3415 -0.9000 -0.1535
  114OSM   H10S11864   1.211   1.473  10.513 -0.3770 -0.5118 -0.2801
  114OSM   H10T11865   1.054   1.392  10.505  0.5891 -1.1719  2.1228
  114OSM   C11S11866   1.191   1.322  10.347  0.0598  0.3723 -0.9916
  114OSM   H11S11867   1.132   1.386  10.278 -0.8242  0.1386 -0.4712
  114OSM   H11T11868   1.147   1.219  10.351  2.2213 -0.5028  2.7475
  114OSM   C12S11869   1.337   1.327  10.301 -0.2097 -0.5261  1.7160
  114OSM   H12S11870   1.407   1.263  10.360 -0.3836 -2.2855  0.1025
  114OSM   H12T11871   1.378   1.430  10.298  0.9679 -1.0021 -0.1947
  114OSM   C13S11872   1.340   1.272  10.157  0.1761 -0.2035  0.5415
  114OSM   H13S11873   1.287   1.174  10.152 -0.4217  0.0687  1.4401
  114OSM   H13T11874   1.449   1.254  10.145  0.4189 -0.3809  2.7671
  114OSM   C14S11875   1.287   1.368  10.047  0.6984 -0.1443  0.1228
  114OSM   H14S11876   1.310   1.473  10.075  1.6820 -0.6324  1.1596
  114OSM   H14T11877   1.176   1.363  10.048  0.7730 -2.1758 -0.6533
  114OSM   C15S11878   1.348   1.336   9.912  0.1282  0.1654  0.1747
  114OSM   H15S11879   1.457   1.325   9.930  0.5241  0.2944 -1.9591
  114OSM   H15T11880   1.339   1.427   9.849  0.0544  1.0864  1.5044
  114OSM   C16S11881   1.291   1.219   9.835 -0.1970 -0.4831  0.7699
  114OSM   H16S11882   1.197   1.244   9.780 -0.3894  1.5638  1.9911
  114OSM   H16T11883   1.271   1.145   9.915  2.7425 -1.4362  0.6707
  114OSM   C17S11884   1.382   1.164   9.728 -0.3229  0.7784  0.4265
  114OSM   H17S11885   1.356   1.060   9.697  0.6757 -0.5368  3.7350
  114OSM   H17T11886   1.488   1.148   9.758 -0.7230 -3.0571  0.0915
  114OSM   C18S11887   1.380   1.243   9.595 -0.3764 -0.1464 -0.6374
  114OSM   H18S11888   1.405   1.351   9.600  2.5814 -0.7981 -0.6267
  114OSM   H18T11889   1.279   1.230   9.550 -0.6139 -3.4111  0.6257
  114OSM   H18U11890   1.452   1.192   9.527 -0.6497  0.8381 -1.6631
  114OSM    C1F11891   1.457   0.967  10.819 -0.2604  0.1525  0.5804
  114OSM     OF11892   1.359   0.908  10.863  1.0895 -0.0059 -0.2486
  114OSM    C2F11893   1.513   0.933  10.684  0.1705  0.4552 -0.8345
  114OSM    H2F11894   1.468   0.836  10.657  1.7533 -0.5914  0.1885
  114OSM    H2G11895   1.623   0.922  10.693  0.3600  1.6785 -1.5731
  114OSM    C3F11896   1.480   1.037  10.574 -0.1164  0.4214  0.8062
  114OSM    H3F11897   1.520   1.139  10.591  0.0248  0.9141 -2.2083
  114OSM    H3G11898   1.369   1.032  10.569 -0.0330 -0.4063 -0.4467
  114OSM    C4F11899   1.504   0.996  10.432  0.1437 -0.2056  0.0126
  114OSM    H4F11900   1.430   1.059  10.377 -1.8719 -2.1825  0.3721
  114OSM    H4G11901   1.466   0.894  10.413 -1.9432  0.0502  2.5947
  114OSM    C5F11902   1.645   1.015  10.388 -0.3589  0.3545 -0.5983
  114OSM    H5F11903   1.712   0.973  10.466 -0.2424  1.0761 -0.2958
  114OSM    H5G11904   1.659   1.126  10.384  0.4841  0.3375  1.1750
  114OSM    C6F11905   1.684   0.941  10.258  0.0300 -0.6451 -0.1373
  114OSM    H6F11906   1.665   0.833  10.274 -2.3713 -0.5406 -1.9749
  114OSM    H6G11907   1.794   0.952  10.253 -0.3111  2.5337 -1.9405
  114OSM    C7F11908   1.618   0.994  10.133  0.2211  0.2312 -0.4624
  114OSM    H7F11909   1.633   1.104  10.129  0.5332  0.1769 -0.7416
  114OSM    H7G11910   1.508   0.994  10.148  0.2956 -1.4292  0.1150
  114OSM    C8F11911   1.669   0.919  10.002 -0.5655  0.2828 -0.5781
  114OSM    H8F11912   1.610   0.957   9.917  0.8076  0.4558 -1.4771
  114OSM    H8G11913   1.644   0.812  10.014  1.9424 -0.1577  1.4160
  114OSM    C9F11914   1.811   0.939   9.973 -0.7383  0.1243  0.0396
  114OSM    H9F11915   1.867   0.998  10.046  1.3048 -2.4219  0.5910
  114OSM   C10F11916   1.876   0.892   9.856  0.6083  0.9976 -0.0819
  114OSM   H10F11917   1.979   0.918   9.826  0.7750  1.5093  0.9221
  114OSM   C11F11918   1.797   0.814   9.750 -0.5174  0.1010  0.0811
  114OSM   H11F11919   1.688   0.796   9.760 -0.4790  0.3770  1.0263
  114OSM   H11G11920   1.844   0.714   9.734 -0.1930  0.4237 -1.0650
  114OSM   C12F11921   1.799   0.883   9.611 -0.2107  0.0528  0.1969
  114OSM   H12F11922   1.788   0.804   9.533  0.0159 -1.1487  1.3637
  114OSM   H12G11923   1.899   0.929   9.596 -0.2384  0.1850  0.4186
  114OSM   C13F11924   1.700   0.988   9.590 -0.4159  0.2261  0.0388
  114OSM   H13F11925   1.736   1.079   9.643 -1.5981  0.7620 -0.0526
  114OSM   H13G11926   1.597   0.963   9.623 -0.8793  2.4837  0.4045
  114OSM   C14F11927   1.686   1.032   9.437  0.7775 -0.6078  1.1380
  114OSM   H14F11928   1.626   1.125   9.446 -2.6264 -2.7218  0.8428
  114OSM   H14G11929   1.626   0.953   9.387 -0.7053  0.5388  1.0666
  114OSM   C15F11930   1.813   1.073   9.361 -0.3516 -0.9819  0.3631
  114OSM   H15F11931   1.862   0.977   9.332 -0.6643 -0.8820 -0.5033
  114OSM   H15G11932   1.890   1.124   9.423 -1.8176  2.2101 -0.3492
  114OSM   C16F11933   1.793   1.173   9.240  0.0047  0.5639  0.5568
  114OSM   H16F11934   1.877   1.239   9.210  0.3919  0.0280  0.4547
  114OSM   H16G11935   1.716   1.241   9.282  2.3612  1.3239  3.8308
  114OSM   C17F11936   1.751   1.097   9.116  0.0418 -0.2808 -0.5372
  114OSM   H17F11937   1.658   1.037   9.127  0.8890 -1.2473  1.7837
  114OSM   H17G11938   1.828   1.026   9.079  0.4399 -0.2459  0.2225
  114OSM   C18F11939   1.704   1.187   9.005 -0.0527  0.3353  0.1579
  114OSM   H18F11940   1.795   1.237   8.967 -0.4580  2.1819  1.5354
  114OSM   H18G11941   1.627   1.264   9.030 -0.9502 -0.3539 -0.4398
  114OSM   H18H11942   1.672   1.119   8.923 -0.2918 -0.5397  0.9483
  115OSM      N11943   2.474   5.404   5.988 -0.5930  0.2809 -0.3254
  115OSM    C1511944   2.602   5.326   5.999 -0.6538 -0.1304  0.2708
  115OSM   H15A11945   2.587   5.243   6.066  1.4108 -0.6878  0.0854
  115OSM   H15B11946   2.670   5.392   6.051 -0.9670  0.8549 -0.5483
  115OSM   H15C11947   2.644   5.297   5.904 -0.7949 -0.7779  0.4020
  115OSM    C1411948   2.512   5.515   5.897 -0.2247  0.0148 -0.4740
  115OSM   H14A11949   2.546   5.481   5.800  1.4673  1.9832 -0.6246
  115OSM   H14B11950   2.589   5.582   5.932  0.5913 -0.7384 -0.8218
  115OSM   H14C11951   2.418   5.564   5.879 -0.0336  0.4274 -0.3550
  115OSM    C1311952   2.375   5.310   5.927  0.1042  0.1019 -0.7313
  115OSM   H13A11953   2.287   5.368   5.901  0.9913  1.2153 -1.3272
  115OSM   H13B11954   2.338   5.247   6.006 -1.1859  2.2039  0.4060
  115OSM   H13C11955   2.414   5.261   5.839  1.1441  0.6459 -0.5811
  115OSM    C1211956   2.437   5.454   6.122 -0.4541 -0.4547 -0.7372
  115OSM   H12A11957   2.415   5.365   6.179  0.2678 -0.9720 -1.2592
  115OSM   H12B11958   2.347   5.514   6.115 -0.9333 -0.8576  1.5147
  115OSM    C1111959   2.552   5.542   6.183  0.0001  0.7413 -0.0190
  115OSM   H11A11960   2.653   5.497   6.192  0.5528  1.8956 -0.3018
  115OSM   H11B11961   2.519   5.538   6.289  2.1988 -0.3326  0.6658
  115OSM      P11962   2.489   5.793   6.189  0.0871  0.0403 -0.0329
  115OSM    O1311963   2.528   5.916   6.127  0.3395  0.1661 -0.3200
  115OSM    O1411964   2.343   5.774   6.192  0.1064  0.3208 -0.0523
  115OSM    O1111965   2.548   5.784   6.332  0.1531 -0.1564 -0.4222
  115OSM    O1211966   2.559   5.669   6.121 -0.6865 -0.8280 -0.2583
  115OSM    C1S11967   2.678   5.840   6.368 -0.1260  0.5791  0.2699
  115OSM    H1S11968   2.691   5.943   6.331 -0.9282  0.1153 -1.3481
  115OSM    H1T11969   2.754   5.777   6.318 -3.5788 -3.4054 -0.2325
  115OSM     NF11970   2.846   5.896   6.540  0.4467 -0.6544  0.1576
  115OSM    HNF11971   2.919   5.831   6.562  0.8227 -0.5052 -0.6279
  115OSM    C2S11972   2.708   5.841   6.517  0.3315 -0.4855 -0.7134
  115OSM    H2S11973   2.636   5.909   6.566 -0.0810 -0.4811 -1.3218
  115OSM    C3S11974   2.699   5.698   6.578 -0.0800  0.4065  1.3481
  115OSM    H3S11975   2.781   5.641   6.528 -1.1686  1.2541 -1.5446
  115OSM     O311976   2.584   5.619   6.551  0.1379 -0.1461  0.5934
  115OSM    HO311977   2.547   5.654   6.470  0.3453  0.0671  0.5912
  115OSM    C4S11978   2.712   5.721   6.728 -0.1644 -0.5358 -0.0391
  115OSM    H4S11979   2.816   5.718   6.764 -0.2646  0.6851  0.3698
  115OSM    C5S11980   2.613   5.764   6.815 -0.2342  0.2117  0.0074
  115OSM    H5S11981   2.509   5.778   6.783 -0.6520 -1.6650  0.4897
  115OSM    C6S11982   2.631   5.783   6.968  0.4005 -0.4444  0.5719
  115OSM    H6S11983   2.713   5.854   6.994  0.2223 -0.5469  1.4524
  115OSM    H6T11984   2.671   5.686   7.005 -1.9790 -1.6256  0.1070
  115OSM    C7S11985   2.511   5.819   7.045 -0.1208 -0.4576 -0.2847
  115OSM    H7S11986   2.441   5.734   7.037  0.1939 -0.8452  0.8580
  115OSM    H7T11987   2.469   5.919   7.020  2.2628  1.7968  3.9611
  115OSM    C8S11988   2.536   5.850   7.192 -0.5998 -1.0029  0.7378
  115OSM    H8S11989   2.621   5.921   7.201 -1.4621  0.2299 -0.6415
  115OSM    H8T11990   2.574   5.762   7.249 -0.2940  1.2509  4.1808
  115OSM    C9S11991   2.423   5.902   7.270  0.0813 -0.2189 -0.4742
  115OSM    H9S11992   2.352   5.817   7.279  0.9902 -0.9619 -0.2250
  115OSM    H9T11993   2.358   5.976   7.219 -1.3515 -0.8144  0.4855
  115OSM   C10S11994   2.460   5.967   7.406  0.0596  0.7307 -0.2491
  115OSM   H10S11995   2.529   6.053   7.389 -3.5832  3.7694 -0.3115
  115OSM   H10T11996   2.525   5.896   7.461 -0.9886 -0.9511 -1.1183
  115OSM   C11S11997   2.343   5.998   7.497  0.5370  0.4542 -0.6711
  115OSM   H11S11998   2.268   5.919   7.520 -0.9441  1.7141 -1.0623
  115OSM   H11T11999   2.285   6.078   7.446 -0.5286  0.2424  0.1947
  115OSM   C12S12000   2.391   6.043   7.636 -0.4743  0.2470 -0.7677
  115OSM   H12S12001   2.418   6.150   7.623  1.7169 -0.5721 -3.4581
  115OSM   H12T12002   2.473   5.971   7.656 -1.8125 -0.6328  1.7068
  115OSM   C13S12003   2.279   6.037   7.740  0.4042 -0.3945 -0.9110
  115OSM   H13S12004   2.238   5.937   7.766  0.2027  0.0556  0.5589
  115OSM   H13T12005   2.191   6.097   7.706  0.0209 -0.1753  0.4218
  115OSM   C14S12006   2.317   6.100   7.880  0.1704  0.2433 -0.3608
  115OSM   H14S12007   2.407   6.162   7.865  0.6974 -0.1108  1.2078
  115OSM   H14T12008   2.351   6.024   7.954 -3.0967 -2.2152 -1.2025
  115OSM   C15S12009   2.206   6.192   7.953  0.9975  0.7500 -0.1214
  115OSM   H15S12010   2.167   6.256   7.870  0.3011  1.1539  0.5167
  115OSM   H15T12011   2.253   6.257   8.029  0.2600 -0.1171  1.0874
  115OSM   C16S12012   2.095   6.117   8.014  0.3993  0.4765 -0.0931
  115OSM   H16S12013   2.143   6.069   8.101  0.6859  1.8153  0.4997
  115OSM   H16T12014   2.054   6.049   7.936  0.6176  1.3012 -0.9498
  115OSM   C17S12015   1.990   6.216   8.074  0.6001 -0.2190  0.4753
  115OSM   H17S12016   1.889   6.171   8.074  0.5131 -0.0633 -1.5794
  115OSM   H17T12017   1.978   6.305   8.009 -4.0542  0.6669  2.3481
  115OSM   C18S12018   2.024   6.262   8.218 -0.0816 -0.0353  0.6260
  115OSM   H18S12019   1.960   6.344   8.257  0.9358  0.8597  0.4489
  115OSM   H18T12020   2.127   6.304   8.211 -1.4745  3.3192 -1.1893
  115OSM   H18U12021   2.025   6.165   8.272  0.3674 -1.1690 -1.3511
  115OSM    C1F12022   2.883   6.024   6.515 -0.3982  0.1830  0.4374
  115OSM     OF12023   2.801   6.102   6.467  0.2826  0.6644  0.4665
  115OSM    C2F12024   3.033   6.054   6.544 -0.2152 -0.4609 -0.3388
  115OSM    H2F12025   3.070   6.084   6.444  1.4218 -0.5753  0.2065
  115OSM    H2G12026   3.082   5.958   6.572 -2.0884 -1.1025  0.8016
  115OSM    C3F12027   3.047   6.170   6.646 -0.0484  0.2265  0.1423
  115OSM    H3F12028   2.994   6.260   6.608 -3.0384 -1.6427 -0.2736
  115OSM    H3G12029   3.157   6.185   6.639 -0.1837  1.6333  0.8784
  115OSM    C4F12030   3.007   6.143   6.793  0.2981  0.1532 -0.1237
  115OSM    H4F12031   2.899   6.121   6.785 -0.1463  1.5434  1.6779
  115OSM    H4G12032   3.030   6.238   6.847 -0.7852  0.0535  0.5227
  115OSM    C5F12033   3.096   6.041   6.859 -0.5964  0.6277  0.3255
  115OSM    H5F12034   3.195   6.087   6.882  1.3662 -2.5959 -1.3079
  115OSM    H5G12035   3.118   5.958   6.789  0.5015  0.5632  0.7374
  115OSM    C6F12036   3.026   5.998   6.984 -0.9030 -0.3516 -0.1149
  115OSM    H6F12037   2.919   5.973   6.965 -1.5374  2.0553  0.2153
  115OSM    H6G12038   3.016   6.082   7.056 -1.2616  0.7928 -1.4947
  115OSM    C7F12039   3.089   5.877   7.048 -0.0614  0.9703  0.2043
  115OSM    H7F12040   3.199   5.888   7.053 -0.0560  1.2803 -0.6259
  115OSM    H7G12041   3.069   5.788   6.985 -0.8110  0.0592  1.6940
  115OSM    C8F12042   3.037   5.855   7.191  0.6324 -0.0234  0.3125
  115OSM    H8F12043   3.095   5.765   7.220  0.5571 -0.9240 -2.1747
  115OSM    H8G12044   2.931   5.821   7.197  0.5248  0.0911 -0.8786
  115OSM    C9F12045   3.062   5.965   7.293 -0.0735 -0.0853  0.2831
  115OSM    H9F12046   3.166   6.002   7.280  0.7823 -2.1894  0.9910
  115OSM   C10F12047   2.985   6.016   7.392  0.2422 -0.6178 -0.7242
  115OSM   H10F12048   3.028   6.103   7.444 -0.8773 -1.6755  2.0783
  115OSM   C11F12049   2.842   5.973   7.433 -0.1424  0.2571  0.0880
  115OSM   H11F12050   2.790   5.907   7.360  3.4755 -1.2178 -1.2382
  115OSM   H11G12051   2.784   6.067   7.448 -2.5595 -1.2995  0.8711
  115OSM   C12F12052   2.860   5.890   7.569  0.2005  0.7710  0.2342
  115OSM   H12F12053   2.955   5.831   7.569 -0.5694 -0.4831  0.7101
  115OSM   H12G12054   2.769   5.828   7.581  0.5055  0.3544  0.4145
  115OSM   C13F12055   2.847   5.984   7.693 -0.2794 -0.1811  0.0810
  115OSM   H13F12056   2.743   6.021   7.697 -0.3293 -0.3710  0.6061
  115OSM   H13G12057   2.922   6.065   7.678  0.1609 -0.1078  2.4030
  115OSM   C14F12058   2.884   5.898   7.815 -0.7484  0.1604  0.1477
  115OSM   H14F12059   2.991   5.920   7.834 -0.8877  1.0407 -0.0284
  115OSM   H14G12060   2.888   5.791   7.788  0.0013 -0.3773  2.2994
  115OSM   C15F12061   2.800   5.919   7.940 -0.0424  0.2849 -0.2751
  115OSM   H15F12062   2.812   5.836   8.013  2.3781 -0.5258 -1.5493
  115OSM   H15G12063   2.692   5.925   7.915  0.3669 -0.1889 -2.2817
  115OSM   C16F12064   2.851   6.049   8.011 -0.3240  0.1867  0.5386
  115OSM   H16F12065   2.772   6.068   8.086 -0.6992  0.4395  0.0873
  115OSM   H16G12066   2.850   6.131   7.936  1.1189 -1.1882 -1.0358
  115OSM   C17F12067   2.989   6.038   8.083  0.4693 -0.4061  0.7499
  115OSM   H17F12068   3.023   6.141   8.107  1.2166 -0.5793  0.4459
  115OSM   H17G12069   3.067   6.007   8.010 -1.2342 -0.4003 -1.0841
  115OSM   C18F12070   2.984   5.954   8.211 -0.5958  0.3553 -0.8937
  115OSM   H18F12071   2.914   5.869   8.196 -1.1420  0.6431  0.0464
  115OSM   H18G12072   2.946   6.016   8.294  0.5124  1.4499 -1.1721
  115OSM   H18H12073   3.086   5.920   8.240 -1.7036 -1.1507  1.4059
  116OSM      N12074   1.986   3.585   6.218  0.4479  0.2133  0.0363
  116OSM    C1512075   1.952   3.725   6.217 -0.2674  0.0442 -0.1230
  116OSM   H15A12076   1.980   3.762   6.120  0.2827  2.6201  0.9778
  116OSM   H15B12077   2.008   3.787   6.285 -0.1322  0.7618 -0.8756
  116OSM   H15C12078   1.846   3.725   6.236 -0.0892 -0.0873  0.9027
  116OSM    C1412079   1.958   3.511   6.087 -0.2489  0.4574  0.8177
  116OSM   H14A12080   1.856   3.508   6.050  1.5928  1.1720 -4.7423
  116OSM   H14B12081   1.996   3.412   6.106  1.6776  1.1426  0.6064
  116OSM   H14C12082   2.016   3.556   6.008  0.7334  0.8693  1.7561
  116OSM    C1312083   2.135   3.567   6.230  0.5490 -0.0135  0.1380
  116OSM   H13A12084   2.158   3.472   6.274  1.4075 -0.8484 -2.0647
  116OSM   H13B12085   2.180   3.645   6.290 -0.3738  1.5559 -1.1606
  116OSM   H13C12086   2.176   3.566   6.131 -1.5212 -0.5983 -0.7415
  116OSM    C1212087   1.912   3.505   6.323 -0.6333  0.5690  0.0546
  116OSM   H12A12088   1.808   3.506   6.294 -0.2388 -2.3790 -1.7478
  116OSM   H12B12089   1.916   3.558   6.417  2.3291  3.9676 -1.8502
  116OSM    C1112090   1.945   3.353   6.356  0.1457 -0.3114 -0.5981
  116OSM   H11A12091   1.884   3.324   6.444 -0.1572  2.3594  0.1089
  116OSM   H11B12092   2.052   3.344   6.384 -0.4671 -0.9784  1.6411
  116OSM      P12093   1.767   3.243   6.195 -0.2684  0.4918  0.2999
  116OSM    O1312094   1.705   3.363   6.139 -0.6871 -0.2948  0.1487
  116OSM    O1412095   1.758   3.120   6.120  0.1961 -0.3581 -0.0885
  116OSM    O1112096   1.688   3.205   6.331  0.0973 -0.2205  0.4181
  116OSM    O1212097   1.919   3.268   6.242  0.3477  0.4753 -0.1370
  116OSM    C1S12098   1.723   3.085   6.401 -0.3106  0.5005 -0.0318
  116OSM    H1S12099   1.829   3.056   6.391 -0.8814 -1.1336 -1.4641
  116OSM    H1T12100   1.654   3.007   6.363  0.2922  0.2434 -0.5915
  116OSM     NF12101   1.705   2.984   6.634  0.5162 -0.8475 -0.6193
  116OSM    HNF12102   1.630   2.933   6.675 -0.0393  0.9666  0.7146
  116OSM    C2S12103   1.679   3.098   6.553 -0.0918 -0.3134 -0.5744
  116OSM    H2S12104   1.747   3.178   6.589  1.2210 -0.9989 -1.4950
  116OSM    C3S12105   1.533   3.142   6.566  0.4715  0.0143  0.0590
  116OSM    H3S12106   1.472   3.056   6.532  0.4844  0.7193 -1.8607
  116OSM     O312107   1.499   3.256   6.482 -0.1184 -0.4237  0.1774
  116OSM    HO312108   1.577   3.273   6.428 -2.3501 -1.3250 -3.4616
  116OSM    C4S12109   1.506   3.187   6.705 -0.4560  0.6450 -0.2658
  116OSM    H4S12110   1.551   3.284   6.732  2.4014 -1.0336  1.2412
  116OSM    C5S12111   1.432   3.118   6.802  0.5410 -0.3266 -0.2430
  116OSM    H5S12112   1.369   3.032   6.774 -1.9318  1.5093 -0.4417
  116OSM    C6S12113   1.400   3.187   6.931 -0.2427 -0.0812 -0.3401
  116OSM    H6S12114   1.474   3.269   6.945  0.5426 -1.2300  2.3671
  116OSM    H6T12115   1.418   3.111   7.010 -0.3705  0.2779  0.0364
  116OSM    C7S12116   1.256   3.248   6.957  0.6519  0.1257 -0.0282
  116OSM    H7S12117   1.177   3.181   6.916 -0.9065  2.3695 -0.7661
  116OSM    H7T12118   1.255   3.331   6.883 -2.0347 -0.1227 -0.3209
  116OSM    C8S12119   1.234   3.270   7.109  0.3128 -0.3141 -0.7246
  116OSM    H8S12120   1.324   3.326   7.144 -0.3997  1.4203 -1.5889
  116OSM    H8T12121   1.226   3.182   7.175 -1.5578  0.8451  0.6384
  116OSM    C9S12122   1.107   3.348   7.129  0.0952 -0.1780  0.3015
  116OSM    H9S12123   1.029   3.316   7.056  0.6809 -1.9167  0.3976
  116OSM    H9T12124   1.146   3.447   7.100  2.0022 -0.7913  0.7007
  116OSM   C10S12125   1.046   3.335   7.265 -0.1150 -0.3760 -0.1625
  116OSM   H10S12126   0.982   3.243   7.264  0.8336 -1.0359 -0.6263
  116OSM   H10T12127   0.960   3.404   7.279 -2.8853 -3.3995 -1.5615
  116OSM   C11S12128   1.150   3.342   7.384 -0.7139  0.4751  0.3209
  116OSM   H11S12129   1.208   3.435   7.363 -0.7346  0.3249 -0.4166
  116OSM   H11T12130   1.213   3.251   7.377  0.0610  0.9446  1.1126
  116OSM   C12S12131   1.090   3.356   7.525 -0.0557  0.0600  0.3065
  116OSM   H12S12132   1.031   3.268   7.559 -1.4328  0.6113 -0.6202
  116OSM   H12T12133   1.029   3.448   7.514 -0.0912  0.1736  1.3696
  116OSM   C13S12134   1.205   3.358   7.636  0.3413  0.1996  0.0169
  116OSM   H13S12135   1.242   3.462   7.628  0.2637  0.2713  0.5811
  116OSM   H13T12136   1.297   3.300   7.614  1.1785  1.3614  0.4181
  116OSM   C14S12137   1.142   3.330   7.772 -0.1880 -0.3246  0.4565
  116OSM   H14S12138   1.101   3.228   7.783  0.9835 -0.8078  0.4210
  116OSM   H14T12139   1.057   3.400   7.789  1.8969  2.7000 -1.0963
  116OSM   C15S12140   1.242   3.346   7.889  0.2029  0.6086  0.3543
  116OSM   H15S12141   1.292   3.443   7.870  1.6817 -0.2321 -0.1634
  116OSM   H15T12142   1.319   3.266   7.878  0.7657  1.3050 -0.8658
  116OSM   C16S12143   1.174   3.355   8.025 -0.3337  0.1019  0.0513
  116OSM   H16S12144   1.114   3.261   8.033 -0.7005  0.3132 -0.1749
  116OSM   H16T12145   1.107   3.444   8.017 -0.1374  0.5167  2.8018
  116OSM   C17S12146   1.265   3.358   8.151  0.8793  0.6157 -0.2847
  116OSM   H17S12147   1.331   3.446   8.170  1.0455  0.5550 -0.5831
  116OSM   H17T12148   1.323   3.264   8.157 -0.0724  0.0552  0.2110
  116OSM   C18S12149   1.172   3.357   8.276 -0.8094 -0.3302  0.3433
  116OSM   H18S12150   1.097   3.436   8.256  1.3989  1.7780  0.2257
  116OSM   H18T12151   1.226   3.382   8.370  0.2172  0.6773 -0.5070
  116OSM   H18U12152   1.116   3.261   8.271  0.3514 -0.9245 -1.8390
  116OSM    C1F12153   1.833   2.956   6.664  0.8981 -1.1549 -0.6738
  116OSM     OF12154   1.928   2.988   6.597  0.4680 -0.0801 -0.4510
  116OSM    C2F12155   1.847   2.882   6.789 -0.3090 -0.2366 -0.1961
  116OSM    H2F12156   1.821   2.777   6.763  3.0228 -1.3243  0.6897
  116OSM    H2G12157   1.764   2.908   6.858  1.1487  3.9255  0.1673
  116OSM    C3F12158   1.976   2.898   6.864 -0.4423  0.2355  0.1903
  116OSM    H3F12159   2.001   3.006   6.874 -0.4528  0.1846  0.7660
  116OSM    H3G12160   2.059   2.844   6.812  1.6070  0.6117  2.9664
  116OSM    C4F12161   1.970   2.842   7.009  0.3813  0.8273 -0.1372
  116OSM    H4F12162   1.861   2.839   7.029  0.0069 -4.7917 -2.2371
  116OSM    H4G12163   2.013   2.915   7.081  0.9374  0.9943 -0.6279
  116OSM    C5F12164   2.005   2.694   7.008 -0.0793  0.2972 -0.5038
  116OSM    H5F12165   2.101   2.678   6.954  0.0573 -2.2288  0.4513
  116OSM    H5G12166   1.932   2.643   6.942 -1.6884  2.2079 -0.2665
  116OSM    C6F12167   2.018   2.622   7.144 -0.2012  0.2028 -0.3734
  116OSM    H6F12168   1.986   2.517   7.127  2.1721 -0.9737  2.0263
  116OSM    H6G12169   1.945   2.668   7.215  1.0192  1.8385 -0.1684
  116OSM    C7F12170   2.158   2.614   7.206 -0.3817  0.1472  0.2066
  116OSM    H7F12171   2.202   2.710   7.240 -0.9974  0.2107  0.8218
  116OSM    H7G12172   2.220   2.562   7.130 -0.2000 -1.6056  1.5135
  116OSM    C8F12173   2.156   2.525   7.333  0.1868 -0.6688  0.0060
  116OSM    H8F12174   2.251   2.471   7.351  0.2006 -0.3085  1.0179
  116OSM    H8G12175   2.095   2.437   7.302  0.1077 -0.1003 -1.4826
  116OSM    C9F12176   2.094   2.592   7.455 -0.0871 -0.4620  0.5119
  116OSM    H9F12177   1.999   2.639   7.426  0.9628  0.8248 -0.8603
  116OSM   C10F12178   2.138   2.604   7.586  0.0406  0.4444 -0.8634
  116OSM   H10F12179   2.066   2.652   7.654  1.0994  1.8733 -0.7185
  116OSM   C11F12180   2.265   2.554   7.646 -0.6570 -0.1611  0.0861
  116OSM   H11F12181   2.332   2.635   7.682 -1.1209  0.6345 -0.8193
  116OSM   H11G12182   2.317   2.501   7.563 -1.2896 -0.7038  0.0323
  116OSM   C12F12183   2.248   2.461   7.759  0.1073 -0.1459 -0.0982
  116OSM   H12F12184   2.350   2.425   7.784  0.2580  1.3209  1.4727
  116OSM   H12G12185   2.192   2.372   7.721 -0.4444 -0.8585  2.2621
  116OSM   C13F12186   2.191   2.518   7.891  0.0155  0.0244  0.4852
  116OSM   H13F12187   2.090   2.563   7.880  0.1071  1.2854  4.0429
  116OSM   H13G12188   2.261   2.592   7.935  0.5628  0.3092 -0.8634
  116OSM   C14F12189   2.166   2.404   7.989  0.2977  0.1382 -0.0233
  116OSM   H14F12190   2.252   2.334   7.983  0.6600  0.5192  0.5308
  116OSM   H14G12191   2.075   2.347   7.963  0.8497 -0.8153  0.1216
  116OSM   C15F12192   2.169   2.453   8.137 -0.4859  1.2540  0.1979
  116OSM   H15F12193   2.270   2.483   8.170 -0.9383 -0.3911  3.2373
  116OSM   H15G12194   2.147   2.367   8.203  1.7865  0.0428 -0.5930
  116OSM   C16F12195   2.070   2.568   8.172  0.2017 -0.0594 -0.1178
  116OSM   H16F12196   1.970   2.534   8.136  0.9837 -0.7735 -1.6667
  116OSM   H16G12197   2.103   2.663   8.124  0.9958  0.0622  0.6574
  116OSM   C17F12198   2.063   2.599   8.326  0.8832 -0.0163  0.1751
  116OSM   H17F12199   2.007   2.517   8.377  2.7014 -0.6019  1.2862
  116OSM   H17G12200   2.009   2.695   8.345 -0.1417 -0.6037  0.2665
  116OSM   C18F12201   2.200   2.606   8.397 -0.1958 -0.0617  0.0816
  116OSM   H18F12202   2.181   2.623   8.505  1.2474 -1.2603  0.5450
  116OSM   H18G12203   2.268   2.683   8.353 -0.9932  2.2716  2.7448
  116OSM   H18H12204   2.255   2.511   8.379  0.8954  0.7546 -0.9720
  117OSM      N12205   0.562   5.763   6.043  0.0364  0.3562 -0.3884
  117OSM    C1512206   0.418   5.748   6.008  0.2019  0.3546  0.1770
  117OSM   H15A12207   0.368   5.804   6.086  0.6333  0.8752  0.0851
  117OSM   H15B12208   0.392   5.644   6.015  0.4845  0.1205 -1.8385
  117OSM   H15C12209   0.400   5.776   5.905  0.2453  0.0398  0.0835
  117OSM    C1412210   0.640   5.657   5.975 -0.1268 -0.4441  0.3002
  117OSM   H14A12211   0.636   5.566   6.032  0.0423 -0.9539 -0.4986
  117OSM   H14B12212   0.746   5.674   5.969  0.0313 -0.8840  1.7096
  117OSM   H14C12213   0.598   5.639   5.877  2.0285  0.3406 -0.7904
  117OSM    C1312214   0.612   5.897   5.989  0.0457 -0.0585 -0.1479
  117OSM   H13A12215   0.572   5.913   5.890 -0.5943  0.7497  0.2332
  117OSM   H13B12216   0.720   5.896   5.980  0.0955  2.6876 -0.2558
  117OSM   H13C12217   0.586   5.985   6.046  1.3318  0.6744 -0.6558
  117OSM    C1212218   0.574   5.756   6.197 -0.4264 -0.5567 -0.5139
  117OSM   H12A12219   0.522   5.842   6.237  1.0161 -0.0453  0.3158
  117OSM   H12B12220   0.679   5.762   6.223  0.0258 -2.0546 -1.9751
  117OSM    C1112221   0.527   5.637   6.282  0.0212  0.4211 -0.3449
  117OSM   H11A12222   0.422   5.614   6.254  0.2843  1.8083 -2.5621
  117OSM   H11B12223   0.524   5.673   6.387  0.0734  0.6203 -0.4123
  117OSM      P12224   0.750   5.508   6.325 -0.1295  0.4062 -0.2614
  117OSM    O1312225   0.819   5.397   6.257  0.8333  0.6257 -0.0867
  117OSM    O1412226   0.810   5.643   6.320  0.4366  0.4138  0.3755
  117OSM    O1112227   0.734   5.471   6.478  0.2130  0.1103  0.6191
  117OSM    O1212228   0.607   5.518   6.255  0.7550 -0.4299  1.1081
  117OSM    C1S12229   0.615   5.387   6.516 -0.2011  0.0633 -0.7972
  117OSM    H1S12230   0.621   5.281   6.485  1.2789 -0.2913  0.6206
  117OSM    H1T12231   0.526   5.423   6.461 -1.2151  0.0156  0.7971
  117OSM     NF12232   0.464   5.295   6.691 -0.1387  0.6515 -0.8585
  117OSM    HNF12233   0.368   5.320   6.688  0.2418  2.2726 -0.0879
  117OSM    C2S12234   0.563   5.393   6.662 -0.5397  0.0050  0.2636
  117OSM    H2S12235   0.652   5.377   6.727 -0.1257  0.6927 -0.1297
  117OSM    C3S12236   0.521   5.537   6.691 -0.3532  0.6709  0.3645
  117OSM    H3S12237   0.431   5.567   6.633 -0.7205  1.3982  1.2936
  117OSM     O312238   0.625   5.629   6.671  0.3624 -0.2464 -0.5022
  117OSM    HO312239   0.676   5.585   6.603  1.0087  0.3372 -0.4012
  117OSM    C4S12240   0.473   5.543   6.828  0.5999 -0.2504 -0.0458
  117OSM    H4S12241   0.558   5.565   6.895  0.9488 -0.0679 -0.5423
  117OSM    C5S12242   0.347   5.552   6.876  0.1952  0.2438 -0.4304
  117OSM    H5S12243   0.258   5.563   6.813 -0.4639  2.6602  0.8545
  117OSM    C6S12244   0.307   5.557   7.020 -0.2519  0.8128  1.1125
  117OSM    H6S12245   0.230   5.479   7.039  1.5380 -1.0804  0.7176
  117OSM    H6T12246   0.267   5.660   7.034 -2.0457  0.4322 -0.9790
  117OSM    C7S12247   0.419   5.530   7.126 -0.1789 -0.4252 -0.3190
  117OSM    H7S12248   0.492   5.612   7.142  0.3363 -0.6005 -1.7311
  117OSM    H7T12249   0.474   5.436   7.104 -0.5263 -0.5759 -0.5458
  117OSM    C8S12250   0.355   5.497   7.265  0.1890 -0.0634  0.5134
  117OSM    H8S12251   0.284   5.412   7.254  1.7626 -1.2385 -0.9605
  117OSM    H8T12252   0.311   5.594   7.297  2.0379  1.2027 -0.6850
  117OSM    C9S12253   0.459   5.455   7.378 -0.2807  0.0632  0.6754
  117OSM    H9S12254   0.534   5.536   7.389 -0.3077  0.1982 -0.1158
  117OSM    H9T12255   0.509   5.362   7.343  1.9329  1.4434  0.0637
  117OSM   C10S12256   0.393   5.429   7.514 -1.1108  0.1508  0.0340
  117OSM   H10S12257   0.326   5.347   7.479 -0.2971 -2.0780  3.4553
  117OSM   H10T12258   0.331   5.516   7.543  2.2264  2.7347 -0.2744
  117OSM   C11S12259   0.479   5.389   7.636 -0.0459 -0.7422  0.1657
  117OSM   H11S12260   0.548   5.470   7.666 -0.1405 -0.6125  0.0329
  117OSM   H11T12261   0.541   5.300   7.612 -0.7258 -1.0467 -0.4716
  117OSM   C12S12262   0.380   5.347   7.748 -0.2445 -0.1514 -0.9049
  117OSM   H12S12263   0.308   5.278   7.699  0.8131 -1.5436 -0.5153
  117OSM   H12T12264   0.327   5.440   7.779 -1.7519 -1.1886 -0.2920
  117OSM   C13S12265   0.457   5.276   7.855 -0.4514  1.0164 -0.1364
  117OSM   H13S12266   0.538   5.342   7.895  0.6731 -1.3679  1.6199
  117OSM   H13T12267   0.498   5.180   7.816  2.2722  1.5968  1.1501
  117OSM   C14S12268   0.357   5.220   7.959 -0.0322 -0.2566 -0.3312
  117OSM   H14S12269   0.279   5.156   7.913  1.4919 -1.1600 -1.7431
  117OSM   H14T12270   0.312   5.312   8.001 -2.1995 -0.6840 -1.6369
  117OSM   C15S12271   0.414   5.131   8.076 -0.3101 -0.6038  0.9461
  117OSM   H15S12272   0.468   5.192   8.151 -1.0653  1.4741 -0.1291
  117OSM   H15T12273   0.492   5.068   8.030  0.5416  2.7242 -2.3957
  117OSM   C16S12274   0.303   5.039   8.135 -0.6362 -0.2542  0.3903
  117OSM   H16S12275   0.250   4.981   8.057  0.4285 -0.2003 -0.3786
  117OSM   H16T12276   0.222   5.104   8.175 -0.6686  0.6827 -1.1703
  117OSM   C17S12277   0.343   4.948   8.255 -0.5187 -0.6002  0.0025
  117OSM   H17S12278   0.369   5.012   8.342 -1.5393  1.4823 -1.1868
  117OSM   H17T12279   0.433   4.892   8.223 -0.1610 -0.3199  0.5139
  117OSM   C18S12280   0.232   4.846   8.286  0.3815  0.4317 -0.8449
  117OSM   H18S12281   0.274   4.784   8.367  1.2380  1.1233 -0.7467
  117OSM   H18T12282   0.201   4.786   8.198  1.1447 -2.4945  0.8311
  117OSM   H18U12283   0.154   4.904   8.340 -0.3636 -1.3889  0.0823
  117OSM    C1F12284   0.498   5.166   6.708 -0.6253 -0.5543 -0.2374
  117OSM     OF12285   0.616   5.127   6.698  0.3633  0.4425  0.0407
  117OSM    C2F12286   0.386   5.063   6.735  0.8209  0.1194 -0.4307
  117OSM    H2F12287   0.399   4.976   6.667  0.8310 -0.0006 -0.2736
  117OSM    H2G12288   0.288   5.104   6.703 -0.2800 -2.7640 -0.8064
  117OSM    C3F12289   0.384   5.014   6.882  0.1005  0.4748  0.0279
  117OSM    H3F12290   0.489   4.987   6.904 -0.5194 -1.1128  1.1150
  117OSM    H3G12291   0.318   4.925   6.894  0.3781  0.2897  0.2008
  117OSM    C4F12292   0.353   5.123   6.985  0.7388 -0.0715  0.0799
  117OSM    H4F12293   0.258   5.178   6.965  0.7633  0.3145  1.0175
  117OSM    H4G12294   0.423   5.207   6.968  0.7738 -0.2733 -0.8051
  117OSM    C5F12295   0.329   5.094   7.134 -0.5430  0.1733  0.5863
  117OSM    H5F12296   0.222   5.062   7.142 -1.7571  4.1276  1.1770
  117OSM    H5G12297   0.344   5.185   7.195 -0.9614  0.6038  0.0567
  117OSM    C6F12298   0.426   4.988   7.187 -0.1175 -0.3796  0.3573
  117OSM    H6F12299   0.530   5.020   7.165 -0.5444  0.4497 -0.4822
  117OSM    H6G12300   0.411   4.888   7.140  0.7882  0.0967 -0.9801
  117OSM    C7F12301   0.411   4.972   7.342  0.5913 -0.9334  0.4500
  117OSM    H7F12302   0.319   4.910   7.348 -1.9689  2.7190 -0.1983
  117OSM    H7G12303   0.380   5.067   7.389  1.0098  0.9157 -2.9031
  117OSM    C8F12304   0.537   4.900   7.406  0.3719  0.1101  0.7005
  117OSM    H8F12305   0.537   4.799   7.358  1.0447  0.5551 -0.2554
  117OSM    H8G12306   0.499   4.879   7.509  1.4636  0.0796  1.0961
  117OSM    C9F12307   0.666   4.972   7.411 -0.1085 -0.8186 -0.7177
  117OSM    H9F12308   0.658   5.081   7.420  0.1842 -0.8295 -0.3001
  117OSM   C10F12309   0.786   4.912   7.413  0.3198  0.4494 -0.1357
  117OSM   H10F12310   0.874   4.976   7.399 -0.5981  1.6801 -0.3906
  117OSM   C11F12311   0.820   4.770   7.413 -0.1249  0.4378 -0.7110
  117OSM   H11F12312   0.927   4.758   7.387 -0.2334 -1.5468 -0.3234
  117OSM   H11G12313   0.770   4.702   7.340  0.7616  1.6187 -2.4657
  117OSM   C12F12314   0.807   4.702   7.551  0.0579  0.1249  0.2627
  117OSM   H12F12315   0.850   4.600   7.541  3.1004  1.4062 -0.5376
  117OSM   H12G12316   0.700   4.706   7.579  0.2263 -2.2437  1.3448
  117OSM   C13F12317   0.897   4.765   7.659  0.4486  0.0914  1.0078
  117OSM   H13F12318   0.829   4.842   7.703  0.3651 -0.3191  1.6011
  117OSM   H13G12319   0.989   4.816   7.622  1.3395 -4.0711 -2.8864
  117OSM   C14F12320   0.927   4.679   7.783  0.3913 -0.7905  0.0563
  117OSM   H14F12321   0.980   4.585   7.754  0.1327 -1.2082  0.9230
  117OSM   H14G12322   0.832   4.643   7.829 -1.1716  2.6526 -0.3478
  117OSM   C15F12323   1.002   4.746   7.893  0.0179  0.0563  0.2536
  117OSM   H15F12324   0.951   4.842   7.915  0.7029  0.1133  1.5846
  117OSM   H15G12325   1.101   4.773   7.850 -0.7813  0.2575 -1.5340
  117OSM   C16F12326   1.025   4.664   8.021 -0.4689 -1.1172  0.0418
  117OSM   H16F12327   1.094   4.732   8.076 -1.7566  0.5946 -0.4261
  117OSM   H16G12328   1.069   4.567   7.988  1.7636  0.0533 -0.4892
  117OSM   C17F12329   0.894   4.635   8.090  0.6310  0.0116  0.0086
  117OSM   H17F12330   0.830   4.722   8.066 -0.5384 -0.1363  2.4070
  117OSM   H17G12331   0.848   4.538   8.060  0.3902 -0.0766  0.6510
  117OSM   C18F12332   0.910   4.624   8.243  0.8847  0.1737 -0.2948
  117OSM   H18F12333   0.954   4.718   8.283 -2.4280  2.1151 -1.1045
  117OSM   H18G12334   0.976   4.538   8.269  1.2303  0.5257 -0.0038
  117OSM   H18H12335   0.813   4.620   8.297  1.2225  2.0403  0.4669
  118OSM      N12336   3.467   0.646   6.086 -0.6811 -0.4549  0.5548
  118OSM    C1512337   3.617   0.622   6.067  0.1634 -0.1706  0.2518
  118OSM   H15A12338   3.678   0.701   6.109  1.6245  0.1949 -2.3936
  118OSM   H15B12339   3.642   0.632   5.962 -1.9639  1.5029 -0.1293
  118OSM   H15C12340   3.642   0.525   6.108 -0.7402 -1.2920 -1.7688
  118OSM    C1412341   3.439   0.786   6.036 -0.2680  0.1116  0.4604
  118OSM   H14A12342   3.472   0.865   6.102 -1.1344  0.4095  0.5489
  118OSM   H14B12343   3.332   0.798   6.024 -0.4745 -1.5854  0.4809
  118OSM   H14C12344   3.480   0.796   5.937 -0.4722 -1.9759  0.1338
  118OSM    C1312345   3.399   0.545   6.002 -0.3591 -0.7194 -0.0135
  118OSM   H13A12346   3.300   0.578   5.977  0.2411  0.0077 -1.5058
  118OSM   H13B12347   3.400   0.442   6.036 -0.0429 -0.1361  1.7628
  118OSM   H13C12348   3.452   0.534   5.908  0.1153 -1.4604  0.3318
  118OSM    C1212349   3.440   0.633   6.240 -0.5271 -0.2326 -0.1985
  118OSM   H12A12350   3.480   0.721   6.288  1.2642 -0.5198 -1.1308
  118OSM   H12B12351   3.498   0.549   6.274 -2.0493 -0.8179  1.0165
  118OSM    C1112352   3.295   0.627   6.301  0.0891  0.6164 -0.2303
  118OSM   H11A12353   3.242   0.716   6.262 -0.8495  0.4037  0.5450
  118OSM   H11B12354   3.300   0.630   6.412  0.0542 -1.3776 -0.1611
  118OSM      P12355   3.077   0.512   6.227  0.1877  0.0854 -0.4134
  118OSM    O1312356   3.049   0.615   6.126 -0.1837 -0.1334  0.2745
  118OSM    O1412357   3.030   0.373   6.204  0.2272  0.1592  0.5099
  118OSM    O1112358   3.028   0.560   6.364 -0.2101  0.3206 -1.0018
  118OSM    O1212359   3.228   0.508   6.256 -0.1839 -0.3118  0.4134
  118OSM    C1S12360   3.012   0.467   6.473 -0.3284  0.7571 -0.3447
  118OSM    H1S12361   3.060   0.368   6.458 -1.5600  0.0045  0.5331
  118OSM    H1T12362   2.903   0.444   6.475 -0.4451  1.2192 -1.2049
  118OSM     NF12363   3.054   0.420   6.714  0.1517 -0.4397 -1.0234
  118OSM    HNF12364   2.971   0.413   6.769  0.4160  0.2576 -0.5218
  118OSM    C2S12365   3.056   0.517   6.612  0.1872  0.8489 -0.4948
  118OSM    H2S12366   3.157   0.564   6.603  0.3873  1.1519  2.5909
  118OSM    C3S12367   2.972   0.640   6.657 -0.2183  0.7635  0.8546
  118OSM    H3S12368   2.864   0.613   6.653 -0.7227  2.8487 -1.1992
  118OSM     O312369   2.968   0.750   6.566 -0.3666 -0.0739  0.1605
  118OSM    HO312370   2.995   0.710   6.483 -3.5180 -4.0985  0.9242
  118OSM    C4S12371   3.028   0.684   6.782  0.0283 -0.4530 -0.0910
  118OSM    H4S12372   3.137   0.696   6.787 -0.1838  1.6886 -0.0553
  118OSM    C5S12373   2.952   0.705   6.892  0.3965 -0.7095  0.1452
  118OSM    H5S12374   2.845   0.680   6.891  0.0151  0.8713 -1.5630
  118OSM    C6S12375   3.020   0.764   7.017  0.3092  0.3634 -0.4200
  118OSM    H6S12376   3.130   0.771   7.002  0.1082 -1.1727 -2.8429
  118OSM    H6T12377   3.009   0.689   7.098  1.3421 -0.1706 -0.7717
  118OSM    C7S12378   2.957   0.890   7.074 -0.1301 -0.2767  0.2294
  118OSM    H7S12379   2.846   0.885   7.082 -0.0648 -1.2212  0.5595
  118OSM    H7T12380   2.981   0.973   7.004 -2.0108  2.1835  2.3825
  118OSM    C8S12381   3.014   0.914   7.219 -0.1889  0.3241  0.0821
  118OSM    H8S12382   3.125   0.913   7.216 -0.1907 -2.0686 -0.1656
  118OSM    H8T12383   2.968   0.829   7.274 -1.3070  0.5542 -0.4870
  118OSM    C9S12384   2.968   1.049   7.272  0.3181 -0.2144  0.1351
  118OSM    H9S12385   2.857   1.048   7.281  0.3001 -0.5423 -0.1139
  118OSM    H9T12386   2.985   1.131   7.199  0.1968  0.6127  1.0283
  118OSM   C10S12387   3.029   1.079   7.412 -0.2748  0.1113 -0.2584
  118OSM   H10S12388   3.137   1.059   7.395 -0.0771 -0.8512  1.9448
  118OSM   H10T12389   2.986   1.003   7.481 -1.9236 -0.2535 -1.6488
  118OSM   C11S12390   3.003   1.225   7.470 -0.0900  0.3165  0.4583
  118OSM   H11S12391   2.895   1.245   7.483  0.0452  0.9412  0.6215
  118OSM   H11T12392   3.041   1.296   7.394 -1.0126 -0.3992 -0.7028
  118OSM   C12S12393   3.091   1.252   7.592 -0.1390  0.1541 -0.4916
  118OSM   H12S12394   3.170   1.321   7.557 -0.8081  1.2397  0.1354
  118OSM   H12T12395   3.158   1.166   7.618  2.0179  2.2077  0.9371
  118OSM   C13S12396   3.028   1.322   7.711  0.5448  0.1330  0.1036
  118OSM   H13S12397   2.940   1.380   7.674  2.3255  2.2157 -1.0259
  118OSM   H13T12398   3.092   1.398   7.760  1.0099 -0.2667  0.1204
  118OSM   C14S12399   2.966   1.225   7.814 -0.0424  0.2132  0.1798
  118OSM   H14S12400   3.037   1.142   7.837  1.2936  0.2016 -3.7208
  118OSM   H14T12401   2.894   1.165   7.755  1.3132 -0.9129 -0.3771
  118OSM   C15S12402   2.925   1.297   7.939 -0.4076 -0.6809 -0.5407
  118OSM   H15S12403   2.846   1.366   7.902 -0.7793 -0.7899  0.0369
  118OSM   H15T12404   3.014   1.349   7.980 -0.7386 -1.4357  1.2236
  118OSM   C16S12405   2.871   1.193   8.043 -0.1810 -0.1289  0.4811
  118OSM   H16S12406   2.951   1.121   8.071 -1.0711 -1.9476 -1.5596
  118OSM   H16T12407   2.781   1.135   8.013  0.1941 -0.7029  0.4483
  118OSM   C17S12408   2.846   1.261   8.179  0.2743 -0.4958  1.1828
  118OSM   H17S12409   2.797   1.186   8.245 -3.3440  0.5896 -0.1582
  118OSM   H17T12410   2.776   1.348   8.175  0.8403 -0.1222 -1.7659
  118OSM   C18S12411   2.988   1.303   8.235 -0.2016 -0.5105 -0.1150
  118OSM   H18S12412   3.058   1.222   8.205  0.4569 -0.3256  0.8813
  118OSM   H18T12413   2.982   1.309   8.346  1.3371  0.6511 -0.0650
  118OSM   H18U12414   3.031   1.397   8.194  0.8715 -0.7759  0.3647
  118OSM    C1F12415   3.144   0.324   6.721 -0.1330  0.6567 -0.4670
  118OSM     OF12416   3.218   0.295   6.625  0.1653 -0.1046 -0.0217
  118OSM    C2F12417   3.143   0.241   6.842  0.3844  0.0405  0.4081
  118OSM    H2F12418   3.054   0.174   6.842 -2.0724  3.1520 -0.0250
  118OSM    H2G12419   3.114   0.307   6.926 -1.4865 -0.3937  0.1369
  118OSM    C3F12420   3.270   0.170   6.875  1.0429  0.0847 -0.0853
  118OSM    H3F12421   3.356   0.239   6.878  0.9374  0.1501  1.6322
  118OSM    H3G12422   3.278   0.086   6.802  0.3815  1.0798 -1.3372
  118OSM    C4F12423   3.271   0.087   7.009 -0.4017  0.0887  0.1592
  118OSM    H4F12424   3.188   0.013   7.011  0.7173 -1.1669  1.9944
  118OSM    H4G12425   3.257   0.156   7.095  0.9471  1.8137 -0.9786
  118OSM    C5F12426   3.403   0.001   7.008  0.0632 -0.2297 -0.5901
  118OSM    H5F12427   3.480   0.065   6.960  0.6426 -2.4082 -2.6623
  118OSM    H5G12428   3.396  -0.086   6.939 -0.1370 -0.9106  0.2682
  118OSM    C6F12429   3.453  -0.037   7.146 -0.7331  0.1156 -0.0679
  118OSM    H6F12430   3.495   0.050   7.200  0.2114  0.5108 -1.4229
  118OSM    H6G12431   3.523  -0.121   7.126 -3.3811 -1.6901 -2.1048
  118OSM    C7F12432   3.341  -0.103   7.227  0.1766 -0.0144  0.3526
  118OSM    H7F12433   3.305  -0.187   7.164  0.4729  0.7090 -0.8005
  118OSM    H7G12434   3.256  -0.035   7.254  0.0282 -0.4507  0.9992
  118OSM    C8F12435   3.378  -0.168   7.367  0.0265  0.7043  0.5382
  118OSM    H8F12436   3.433  -0.096   7.431 -0.7424  2.1245 -0.3974
  118OSM    H8G12437   3.450  -0.250   7.347  0.4027  2.0721 -4.2900
  118OSM    C9F12438   3.266  -0.229   7.455 -0.2520 -0.1504 -0.3439
  118OSM    H9F12439   3.235  -0.332   7.433  1.9729 -0.6664 -1.1638
  118OSM   C10F12440   3.198  -0.161   7.553  0.1963 -0.2138  0.2045
  118OSM   H10F12441   3.114  -0.212   7.603 -1.0143  0.0269 -1.4980
  118OSM   C11F12442   3.215  -0.012   7.580  0.6226 -0.2695 -0.4549
  118OSM   H11F12443   3.109   0.021   7.586  1.2737  1.6268  1.1386
  118OSM   H11G12444   3.258   0.057   7.505 -0.9534  2.8189  1.3837
  118OSM   C12F12445   3.299   0.002   7.703 -0.3709 -0.4094 -1.0520
  118OSM   H12F12446   3.407  -0.020   7.685 -0.7396 -0.1670 -3.8464
  118OSM   H12G12447   3.266  -0.070   7.780  0.4909 -0.2711 -0.5461
  118OSM   C13F12448   3.292   0.146   7.765 -0.5658 -0.8071  0.2601
  118OSM   H13F12449   3.185   0.177   7.753 -0.4996 -0.3772  0.7600
  118OSM   H13G12450   3.355   0.218   7.708 -2.3356  0.7731  0.2296
  118OSM   C14F12451   3.321   0.151   7.915  0.0851 -0.0885 -0.4952
  118OSM   H14F12452   3.430   0.137   7.931  0.4160  2.4374 -0.3487
  118OSM   H14G12453   3.266   0.072   7.971  2.3104 -0.5690  1.0552
  118OSM   C15F12454   3.292   0.282   7.985  0.1814 -0.0916 -0.4616
  118OSM   H15F12455   3.194   0.323   7.954 -0.3012 -1.8476 -1.2939
  118OSM   H15G12456   3.372   0.349   7.946 -1.5252  1.9553 -0.5417
  118OSM   C16F12457   3.299   0.277   8.142 -0.0884  0.7875  0.2123
  118OSM   H16F12458   3.403   0.257   8.174 -0.1778 -2.9525 -1.5618
  118OSM   H16G12459   3.230   0.206   8.191 -0.1356 -0.4262 -1.5813
  118OSM   C17F12460   3.273   0.417   8.203  0.6598  0.4186 -0.3502
  118OSM   H17F12461   3.256   0.401   8.312 -1.2857 -0.5620 -0.7722
  118OSM   H17G12462   3.182   0.457   8.154  0.7919 -2.3867 -2.9620
  118OSM   C18F12463   3.397   0.500   8.191 -0.3040 -0.6620 -0.1284
  118OSM   H18F12464   3.428   0.505   8.084  0.4706 -1.7656  0.0386
  118OSM   H18G12465   3.491   0.464   8.238  0.4313  2.6284  1.0217
  118OSM   H18H12466   3.376   0.604   8.224 -1.8002 -0.4768 -1.5728
  119OSM      N12467   4.682   6.801   5.918 -0.0322  0.2380 -0.4630
  119OSM    C1512468   4.821   6.847   5.934  0.1055  0.3143  0.2132
  119OSM   H15A12469   4.825   6.955   5.935 -0.5551  0.3543 -0.7563
  119OSM   H15B12470   4.878   6.813   5.849 -0.5518 -1.7149  0.5693
  119OSM   H15C12471   4.864   6.818   6.028  0.2236 -0.9265 -0.2178
  119OSM    C1412472   4.622   6.864   5.805  0.2987  0.2636 -0.2682
  119OSM   H14A12473   4.603   6.968   5.829 -1.0303  0.0865 -0.5132
  119OSM   H14B12474   4.518   6.835   5.796 -0.9924  3.9808  1.5823
  119OSM   H14C12475   4.670   6.844   5.711 -2.7447  1.4962 -2.1889
  119OSM    C1312476   4.669   6.652   5.889  0.0440  0.9229  0.2610
  119OSM   H13A12477   4.695   6.632   5.786  1.7901 -0.8334  1.0038
  119OSM   H13B12478   4.564   6.628   5.896  0.2666 -0.4433 -0.8622
  119OSM   H13C12479   4.731   6.590   5.953 -0.2672 -0.7424 -1.0189
  119OSM    C1212480   4.606   6.839   6.046 -0.1598 -0.1565  0.6697
  119OSM   H12A12481   4.621   6.942   6.071  1.0043 -0.2005  0.1874
  119OSM   H12B12482   4.653   6.780   6.123  1.1405  0.1617  0.1290
  119OSM    C1112483   4.451   6.820   6.040  0.5090  0.4849  0.2193
  119OSM   H11A12484   4.416   6.907   5.980 -1.1987 -0.2981  0.0597
  119OSM   H11B12485   4.410   6.819   6.144 -0.2396  3.4407 -0.0111
  119OSM      P12486   4.256   6.651   5.988  0.1194 -0.5440 -0.1741
  119OSM    O1312487   4.176   6.759   5.927  0.4548 -0.2772  0.1051
  119OSM    O1412488   4.232   6.519   5.934 -0.5458  0.4062  0.3932
  119OSM    O1112489   4.235   6.647   6.147  0.1960 -0.6141  0.6235
  119OSM    O1212490   4.405   6.692   5.986 -0.7684  0.0131  0.1077
  119OSM    C1S12491   4.274   6.539   6.228 -0.2819 -0.2405  0.0324
  119OSM    H1S12492   4.385   6.542   6.237 -0.2868 -0.9449  0.3771
  119OSM    H1T12493   4.248   6.440   6.185  1.5612 -1.0039  0.6081
  119OSM     NF12494   4.304   6.471   6.452 -0.2455 -0.8045 -0.5279
  119OSM    HNF12495   4.280   6.376   6.470  0.2060 -0.9715 -0.8115
  119OSM    C2S12496   4.209   6.549   6.367 -0.2608 -0.2079  0.2661
  119OSM    H2S12497   4.207   6.650   6.412  0.0013  0.7626 -1.8552
  119OSM    C3S12498   4.071   6.486   6.368 -0.3037  0.6245 -0.4241
  119OSM    H3S12499   4.082   6.377   6.350  0.8901  0.9806 -2.0461
  119OSM     O312500   3.998   6.530   6.257 -0.0393 -0.8000  0.0141
  119OSM    HO312501   4.063   6.586   6.214  2.4587 -3.3793  0.3573
  119OSM    C4S12502   4.008   6.497   6.500 -0.2602  0.0162  0.1565
  119OSM    H4S12503   4.052   6.441   6.584  1.3164 -1.0975 -1.3854
  119OSM    C5S12504   3.907   6.580   6.545 -0.3359 -0.1492 -0.0776
  119OSM    H5S12505   3.868   6.663   6.484  1.7248  0.7238 -0.2570
  119OSM    C6S12506   3.862   6.590   6.687 -0.2601  0.5435 -0.1477
  119OSM    H6S12507   3.751   6.588   6.691 -0.3479  1.9870 -1.7130
  119OSM    H6T12508   3.898   6.690   6.719 -0.8335  0.7050 -0.0117
  119OSM    C7S12509   3.903   6.496   6.801  0.8652  0.4446  0.6286
  119OSM    H7S12510   4.014   6.494   6.801  0.8854  1.2835 -0.4011
  119OSM    H7T12511   3.873   6.392   6.774 -1.6271  0.5335  2.8391
  119OSM    C8S12512   3.833   6.543   6.930 -0.1155  0.3915  0.3160
  119OSM    H8S12513   3.724   6.535   6.912 -0.6606  1.1846  3.0796
  119OSM    H8T12514   3.862   6.650   6.936 -1.4290  0.7565  0.1383
  119OSM    C9S12515   3.871   6.471   7.060  0.2406 -0.0180  0.7146
  119OSM    H9S12516   3.975   6.491   7.094 -0.0565  0.0941  1.5810
  119OSM    H9T12517   3.865   6.360   7.050  0.1870 -0.0123  0.6797
  119OSM   C10S12518   3.779   6.510   7.179  0.5083 -0.7162 -1.1296
  119OSM   H10S12519   3.681   6.457   7.172  0.1097 -0.1395 -0.0263
  119OSM   H10T12520   3.760   6.619   7.172  1.3202 -0.4565  0.4032
  119OSM   C11S12521   3.836   6.484   7.316 -0.6756  0.4938 -0.3355
  119OSM   H11S12522   3.937   6.529   7.314 -1.2724  1.8720 -0.2595
  119OSM   H11T12523   3.855   6.375   7.329  2.8334  0.8179 -2.1849
  119OSM   C12S12524   3.748   6.530   7.433 -0.1762  0.7198  0.0970
  119OSM   H12S12525   3.660   6.462   7.434  0.7565 -0.5044  0.2184
  119OSM   H12T12526   3.716   6.633   7.408  0.5987  0.9744  0.1463
  119OSM   C13S12527   3.830   6.521   7.564 -0.1843 -0.4449 -0.0146
  119OSM   H13S12528   3.924   6.580   7.554 -0.0544 -1.1418 -3.1022
  119OSM   H13T12529   3.852   6.417   7.596 -1.9243 -0.8849 -0.2160
  119OSM   C14S12530   3.759   6.584   7.692 -0.1968  0.8390  0.0490
  119OSM   H14S12531   3.735   6.693   7.692 -0.6671  0.8048  4.3041
  119OSM   H14T12532   3.819   6.560   7.782  2.2044  0.4147 -1.6240
  119OSM   C15S12533   3.633   6.518   7.738  0.6719 -0.0209  0.0519
  119OSM   H15S12534   3.634   6.409   7.714 -1.0741 -0.3746  1.3770
  119OSM   H15T12535   3.551   6.551   7.671 -0.0728 -1.1261  0.3771
  119OSM   C16S12536   3.588   6.556   7.874  0.2575 -0.5522 -0.0496
  119OSM   H16S12537   3.586   6.665   7.893  3.4294 -0.6997  1.5715
  119OSM   H16T12538   3.657   6.519   7.954 -0.0888 -1.5947 -0.2155
  119OSM   C17S12539   3.445   6.515   7.904  0.2625 -0.0395 -0.3711
  119OSM   H17S12540   3.386   6.541   7.814 -0.0826  2.2354  0.4695
  119OSM   H17T12541   3.403   6.580   7.984  2.0840  0.7082  0.0301
  119OSM   C18S12542   3.423   6.368   7.943  0.3188 -0.1852 -0.0998
  119OSM   H18S12543   3.492   6.343   8.026 -0.3526  0.9950  0.8323
  119OSM   H18T12544   3.448   6.299   7.860  1.3345  0.0514 -0.0001
  119OSM   H18U12545   3.318   6.347   7.973  0.3582 -0.0832  0.1115
  119OSM    C1F12546   4.420   6.519   6.493  0.9791 -0.8014  0.0656
  119OSM     OF12547   4.464   6.629   6.466 -1.1724 -0.0439 -0.0980
  119OSM    C2F12548   4.506   6.428   6.569  0.2723  1.1286  0.4826
  119OSM    H2F12549   4.600   6.386   6.527  0.4538 -1.1365  2.9842
  119OSM    H2G12550   4.449   6.333   6.580  2.5955 -0.4093 -0.2762
  119OSM    C3F12551   4.535   6.493   6.703 -0.2736 -0.3503  0.0109
  119OSM    H3F12552   4.468   6.578   6.729 -0.5220  0.2416 -2.4516
  119OSM    H3G12553   4.635   6.541   6.697  0.0798 -0.9214  1.1578
  119OSM    C4F12554   4.532   6.387   6.813  0.1937  0.1775 -0.0658
  119OSM    H4F12555   4.599   6.428   6.892  1.1243 -2.2597  0.4581
  119OSM    H4G12556   4.573   6.293   6.771 -1.8208 -1.0734  0.6736
  119OSM    C5F12557   4.397   6.357   6.875 -0.3004  0.0194 -0.1892
  119OSM    H5F12558   4.341   6.276   6.824  1.5907 -0.9191 -0.7993
  119OSM    H5G12559   4.338   6.451   6.874  1.4890  1.1590 -2.3642
  119OSM    C6F12560   4.397   6.321   7.032  0.4041 -0.0361  0.4970
  119OSM    H6F12561   4.442   6.405   7.090 -0.3971  0.1989  0.7866
  119OSM    H6G12562   4.455   6.233   7.065 -0.5064 -1.2598 -1.1098
  119OSM    C7F12563   4.250   6.307   7.081 -0.2404  0.2624 -0.4872
  119OSM    H7F12564   4.191   6.234   7.022  0.5819 -2.5686  2.0905
  119OSM    H7G12565   4.204   6.408   7.072  1.6630  1.1825 -0.2361
  119OSM    C8F12566   4.240   6.277   7.229 -0.2295 -0.0906 -0.1834
  119OSM    H8F12567   4.315   6.195   7.236  0.3935  0.3518 -1.4930
  119OSM    H8G12568   4.137   6.239   7.244 -0.3200 -0.4256 -1.5430
  119OSM    C9F12569   4.297   6.382   7.321 -0.4704 -0.4771 -0.2065
  119OSM    H9F12570   4.371   6.454   7.281 -0.0710 -0.8065 -0.0662
  119OSM   C10F12571   4.256   6.399   7.450 -0.8493  0.2406  0.0158
  119OSM   H10F12572   4.320   6.467   7.509  1.6647 -1.4316 -0.6933
  119OSM   C11F12573   4.159   6.318   7.521 -0.2416  0.8105 -0.2075
  119OSM   H11F12574   4.185   6.211   7.529  1.9793  1.3359 -0.0733
  119OSM   H11G12575   4.069   6.322   7.455  0.6024  0.3545 -1.4095
  119OSM   C12F12576   4.137   6.389   7.655  0.1496 -1.1123 -0.4993
  119OSM   H12F12577   4.039   6.356   7.695 -1.5761  0.8564 -2.9325
  119OSM   H12G12578   4.122   6.498   7.640 -2.5432 -1.0127  2.3651
  119OSM   C13F12579   4.244   6.361   7.759 -0.1923 -0.2133  0.0099
  119OSM   H13F12580   4.350   6.383   7.735  0.3139  0.8221  2.9894
  119OSM   H13G12581   4.238   6.253   7.784  0.1821  0.1812  1.8736
  119OSM   C14F12582   4.210   6.435   7.891  0.2079 -0.4713 -0.0049
  119OSM   H14F12583   4.163   6.531   7.859 -2.2108 -0.5359  3.0870
  119OSM   H14G12584   4.303   6.462   7.946  1.0220 -0.2864 -1.4402
  119OSM   C15F12585   4.105   6.378   7.982  0.3084  0.2907  0.1879
  119OSM   H15F12586   4.020   6.352   7.916  0.6337 -1.1457  0.3239
  119OSM   H15G12587   4.073   6.457   8.054  0.8499 -0.2759  1.0648
  119OSM   C16F12588   4.150   6.253   8.058 -0.9097  0.2984 -0.4615
  119OSM   H16F12589   4.197   6.178   7.991 -0.1474 -0.6853  1.1370
  119OSM   H16G12590   4.059   6.211   8.105  0.7755 -1.3827  1.4247
  119OSM   C17F12591   4.255   6.269   8.168  0.2917  0.5258 -0.3062
  119OSM   H17F12592   4.341   6.329   8.131  1.3919  0.1123  1.5417
  119OSM   H17G12593   4.290   6.175   8.214  1.1138  1.9396  2.0772
  119OSM   C18F12594   4.192   6.345   8.289 -0.5442 -0.6202  0.3780
  119OSM   H18F12595   4.108   6.289   8.336 -0.9794 -0.5032 -0.2533
  119OSM   H18G12596   4.133   6.434   8.257 -1.1885 -0.9951  0.5151
  119OSM   H18H12597   4.264   6.367   8.371 -1.1204 -1.3993  1.1047
  120OSM      N12598   1.662   4.237   6.192  0.3997 -0.2220  0.1632
  120OSM    C1512599   1.766   4.342   6.226  0.2726 -0.1970 -0.4468
  120OSM   H15A12600   1.777   4.367   6.330 -1.2628  1.5510 -0.6858
  120OSM   H15B12601   1.753   4.432   6.168 -1.1266  0.7450  1.3252
  120OSM   H15C12602   1.862   4.308   6.188  0.6700  0.8929 -0.4207
  120OSM    C1412603   1.579   4.301   6.088  0.5062  0.2041 -1.3700
  120OSM   H14A12604   1.528   4.388   6.127  1.0606 -0.0760  0.0068
  120OSM   H14B12605   1.505   4.240   6.037 -2.0148 -0.4483  2.8541
  120OSM   H14C12606   1.641   4.349   6.014 -0.3533 -0.0193 -2.2400
  120OSM    C1312607   1.741   4.123   6.120  0.1771 -0.4584 -0.2206
  120OSM   H13A12608   1.676   4.051   6.075  1.6044 -1.7059 -0.3122
  120OSM   H13B12609   1.805   4.067   6.187  4.2484  1.0425 -2.6311
  120OSM   H13C12610   1.808   4.159   6.044  2.4596 -1.3064  1.3335
  120OSM    C1212611   1.587   4.192   6.309  0.0036  0.2094 -0.0745
  120OSM   H12A12612   1.502   4.133   6.278 -0.1587 -1.5945  3.5281
  120OSM   H12B12613   1.550   4.281   6.358  0.1143  1.3492 -2.0066
  120OSM    C1112614   1.672   4.119   6.422  0.1321 -0.5670 -0.0333
  120OSM   H11A12615   1.602   4.110   6.508  1.6793  1.0673  1.4416
  120OSM   H11B12616   1.752   4.187   6.458  2.0201 -3.2262  0.9149
  120OSM      P12617   1.658   3.866   6.376 -0.0230 -0.0234  0.1515
  120OSM    O1312618   1.523   3.871   6.443 -0.5090 -0.0080 -0.1716
  120OSM    O1412619   1.657   3.816   6.241 -0.2354  0.6962  0.1587
  120OSM    O1112620   1.749   3.775   6.455  0.5213 -0.7164  0.0073
  120OSM    O1212621   1.731   4.002   6.384 -0.3319 -0.0858 -0.4828
  120OSM    C1S12622   1.836   3.809   6.568 -0.2245  0.2532  0.4269
  120OSM    H1S12623   1.834   3.917   6.591  0.0302  0.9782 -2.6724
  120OSM    H1T12624   1.940   3.793   6.531 -0.8123 -0.0179 -1.1702
  120OSM     NF12625   1.887   3.769   6.803  0.0316 -0.1655 -0.5468
  120OSM    HNF12626   1.937   3.699   6.855  1.5138  0.7717 -0.6979
  120OSM    C2S12627   1.795   3.730   6.697 -0.0754 -0.1116  0.2835
  120OSM    H2S12628   1.688   3.756   6.714 -0.3714 -1.7945  1.0757
  120OSM    C3S12629   1.799   3.579   6.676  0.0645 -0.5708 -0.4431
  120OSM    H3S12630   1.903   3.551   6.649 -0.5399 -1.8699 -1.4514
  120OSM     O312631   1.732   3.527   6.561  1.1180  0.3605  0.5871
  120OSM    HO312632   1.690   3.605   6.523 -0.1849 -1.6315 -2.2165
  120OSM    C4S12633   1.748   3.503   6.804  0.0198 -0.0523  0.1259
  120OSM    H4S12634   1.679   3.561   6.867  0.5122 -0.6732  1.2545
  120OSM    C5S12635   1.783   3.381   6.851 -0.4743 -0.3465  0.3410
  120OSM    H5S12636   1.839   3.316   6.781 -0.4520 -0.3530  0.3650
  120OSM    C6S12637   1.752   3.306   6.984 -1.1264 -0.4616  0.3067
  120OSM    H6S12638   1.698   3.211   6.965 -0.0657 -1.1303  0.6011
  120OSM    H6T12639   1.693   3.373   7.051  0.4556  2.5773 -1.2114
  120OSM    C7S12640   1.887   3.281   7.054  0.1176  0.5479 -0.2369
  120OSM    H7S12641   1.930   3.366   7.112  1.1180  1.5654 -2.4274
  120OSM    H7T12642   1.962   3.243   6.982  1.5847 -0.5668  1.8342
  120OSM    C8S12643   1.876   3.171   7.166 -0.0424  0.5376  0.3220
  120OSM    H8S12644   1.852   3.073   7.119  1.3451  0.4087 -0.1368
  120OSM    H8T12645   1.793   3.192   7.237 -0.4806  0.0797 -0.0447
  120OSM    C9S12646   2.004   3.154   7.233  0.0160  0.2979 -0.4693
  120OSM    H9S12647   2.055   3.247   7.268 -1.2720  0.7244  0.3266
  120OSM    H9T12648   2.070   3.100   7.162  1.8467  0.8901  0.7437
  120OSM   C10S12649   1.985   3.061   7.361 -0.0948 -0.0769  0.8803
  120OSM   H10S12650   1.946   2.960   7.335  0.3791  0.4806 -2.1495
  120OSM   H10T12651   1.912   3.110   7.429 -1.3746  1.4806 -1.5726
  120OSM   C11S12652   2.117   3.036   7.427 -0.2610 -0.4324  0.2985
  120OSM   H11S12653   2.184   3.125   7.427  1.5482 -1.7734 -0.3842
  120OSM   H11T12654   2.164   2.967   7.354  1.4116  0.0854  0.8773
  120OSM   C12S12655   2.104   2.968   7.559  0.5507  0.3051  0.2581
  120OSM   H12S12656   2.194   2.904   7.568 -1.4495 -3.2022 -3.0918
  120OSM   H12T12657   2.029   2.887   7.548 -0.0359  0.9851 -0.7927
  120OSM   C13S12658   2.085   3.055   7.683 -0.7857 -0.0285 -0.3894
  120OSM   H13S12659   1.987   3.107   7.667 -0.6745 -0.0733 -1.2480
  120OSM   H13T12660   2.165   3.132   7.681 -1.3025  0.6450  2.7334
  120OSM   C14S12661   2.093   2.977   7.808  0.4781 -0.1164 -0.1875
  120OSM   H14S12662   2.182   2.911   7.804  0.8480  0.4071 -0.7611
  120OSM   H14T12663   2.005   2.910   7.819  0.4823 -0.0525  0.2241
  120OSM   C15S12664   2.095   3.068   7.937 -0.0620 -0.2611  0.3352
  120OSM   H15S12665   1.997   3.119   7.932 -0.0871 -0.3357  0.0472
  120OSM   H15T12666   2.177   3.140   7.917  0.7865 -1.3113 -0.0742
  120OSM   C16S12667   2.113   2.994   8.067  0.8624 -0.5922  0.5258
  120OSM   H16S12668   2.184   2.910   8.048  0.5394 -0.2043 -2.6938
  120OSM   H16T12669   2.016   2.946   8.093 -0.0644  1.5207  1.0147
  120OSM   C17S12670   2.163   3.090   8.180  0.1817  0.7239  0.3825
  120OSM   H17S12671   2.091   3.174   8.195 -0.2431 -0.0976  3.2883
  120OSM   H17T12672   2.263   3.125   8.147  0.7075 -0.5338  0.6284
  120OSM   C18S12673   2.177   3.017   8.317 -0.6626 -0.1321 -0.1808
  120OSM   H18S12674   2.255   3.060   8.383 -1.6358  1.3539  0.0420
  120OSM   H18T12675   2.200   2.913   8.286  0.3822  0.7424 -2.4856
  120OSM   H18U12676   2.086   3.011   8.381  0.2946  0.3163  1.2319
  120OSM    C1F12677   1.903   3.894   6.850  0.3008 -0.0430 -0.4412
  120OSM     OF12678   1.818   3.975   6.824  0.1198  0.0857  0.5064
  120OSM    C2F12679   2.020   3.934   6.933 -0.5420  0.0869  0.1328
  120OSM    H2F12680   2.108   3.976   6.880 -0.5353  1.9492  1.5581
  120OSM    H2G12681   2.066   3.846   6.984 -0.7658  0.9707  1.8880
  120OSM    C3F12682   1.986   4.043   7.044 -0.2085  0.2927 -0.2807
  120OSM    H3F12683   1.945   4.131   6.991  0.7134  0.8885 -0.0133
  120OSM    H3G12684   2.086   4.069   7.083  1.1257 -1.9626 -2.0708
  120OSM    C4F12685   1.900   4.000   7.161 -0.0980  0.3324  0.1612
  120OSM    H4F12686   1.949   3.914   7.211  0.1213  0.3516 -0.0232
  120OSM    H4G12687   1.799   3.958   7.139 -0.4216  0.9645  0.4461
  120OSM    C5F12688   1.874   4.115   7.255 -0.6729  0.3114 -0.3341
  120OSM    H5F12689   1.787   4.166   7.209 -1.7822 -1.0099  0.2581
  120OSM    H5G12690   1.964   4.179   7.254 -1.2422  1.1105 -1.3090
  120OSM    C6F12691   1.836   4.079   7.398 -0.1745  0.1102 -0.1987
  120OSM    H6F12692   1.920   4.018   7.438 -0.8075  0.6435  1.9786
  120OSM    H6G12693   1.742   4.020   7.391  0.3557 -0.6056 -1.5854
  120OSM    C7F12694   1.813   4.201   7.483  0.0171  0.4385  0.1710
  120OSM    H7F12695   1.704   4.217   7.470 -0.4421 -0.3158  2.8695
  120OSM    H7G12696   1.863   4.288   7.433 -1.8451  0.2708 -2.0977
  120OSM    C8F12697   1.831   4.187   7.634  0.4024 -0.2837  0.4145
  120OSM    H8F12698   1.793   4.283   7.677 -1.2086 -1.1596  0.9970
  120OSM    H8G12699   1.940   4.185   7.656  0.6177 -2.1883 -0.7962
  120OSM    C9F12700   1.754   4.079   7.693  1.0826  0.1437 -0.3886
  120OSM    H9F12701   1.762   3.985   7.636  1.9016 -1.3861  2.1683
  120OSM   C10F12702   1.654   4.084   7.795  0.0545  0.0815  0.2214
  120OSM   H10F12703   1.599   3.993   7.823  1.2599 -0.2880  1.4737
  120OSM   C11F12704   1.609   4.207   7.871  0.6153  0.3838 -0.0461
  120OSM   H11F12705   1.507   4.221   7.827  1.1935  0.0333 -1.5328
  120OSM   H11G12706   1.677   4.294   7.863  1.5571 -0.4090 -0.6931
  120OSM   C12F12707   1.598   4.181   8.019  0.2477  0.7381  0.6255
  120OSM   H12F12708   1.684   4.126   8.064 -1.2336 -3.0007 -0.8612
  120OSM   H12G12709   1.514   4.108   8.024  0.1608  0.8507  0.7991
  120OSM   C13F12710   1.566   4.307   8.102 -0.0713 -0.0922  0.5673
  120OSM   H13F12711   1.469   4.350   8.072 -1.5743 -3.1908  0.7618
  120OSM   H13G12712   1.634   4.385   8.062 -1.7738  0.6372 -0.9643
  120OSM   C14F12713   1.563   4.282   8.254 -0.1554  0.1433 -0.1713
  120OSM   H14F12714   1.655   4.225   8.278 -1.3697 -0.7068  2.8034
  120OSM   H14G12715   1.475   4.222   8.287  0.1582 -0.2620 -0.0652
  120OSM   C15F12716   1.574   4.415   8.333  0.0559  0.1650 -0.5194
  120OSM   H15F12717   1.475   4.464   8.321 -0.5920 -1.7762 -3.7679
  120OSM   H15G12718   1.643   4.485   8.281  1.1087  0.4325  1.2176
  120OSM   C16F12719   1.592   4.409   8.484  0.4362  0.5067 -0.5901
  120OSM   H16F12720   1.519   4.336   8.523  1.0912  1.5610  2.7880
  120OSM   H16G12721   1.565   4.510   8.523 -1.4493 -0.1272 -0.2004
  120OSM   C17F12722   1.721   4.366   8.558 -0.5747 -0.1464  0.8166
  120OSM   H17F12723   1.788   4.455   8.551 -2.5672  1.2539 -1.5438
  120OSM   H17G12724   1.771   4.282   8.504 -0.4516  1.3679 -1.5119
  120OSM   C18F12725   1.698   4.315   8.701 -0.0947  0.3149  0.8542
  120OSM   H18F12726   1.795   4.291   8.750 -0.8212 -2.2581  1.0969
  120OSM   H18G12727   1.641   4.219   8.701 -0.0722  0.2999  1.0555
  120OSM   H18H12728   1.639   4.395   8.752 -1.1608 -0.0321  0.1876
  121OSM      N12729   4.482   5.652   6.316 -0.1000 -0.1799 -0.1483
  121OSM    C1512730   4.611   5.634   6.370  0.1044 -0.3615 -0.5341
  121OSM   H15A12731   4.684   5.635   6.291  0.3083  0.0306 -0.3421
  121OSM   H15B12732   4.621   5.539   6.421 -0.4165 -0.4372 -0.5700
  121OSM   H15C12733   4.637   5.717   6.433 -2.0593  1.2590 -1.6918
  121OSM    C1412734   4.380   5.633   6.423  0.1738 -0.0996  0.3436
  121OSM   H14A12735   4.374   5.720   6.486  0.3391  0.5028 -0.4717
  121OSM   H14B12736   4.417   5.553   6.486 -3.3094 -1.3551  0.9437
  121OSM   H14C12737   4.289   5.612   6.369 -0.1791  1.3726  0.3438
  121OSM    C1312738   4.455   5.786   6.252  0.6629 -0.1325 -0.5089
  121OSM   H13A12739   4.352   5.789   6.222 -0.0000 -3.0208  1.3353
  121OSM   H13B12740   4.521   5.795   6.167  0.6113  0.8684 -0.4589
  121OSM   H13C12741   4.473   5.864   6.326 -1.6101  1.3883 -1.4964
  121OSM    C1212742   4.450   5.542   6.210 -0.0334  0.1738  0.4057
  121OSM   H12A12743   4.416   5.458   6.269  0.7380  0.8129  1.8017
  121OSM   H12B12744   4.542   5.520   6.158 -0.3536  0.4588 -0.2894
  121OSM    C1112745   4.338   5.580   6.112  0.0317  0.1779  0.8049
  121OSM   H11A12746   4.328   5.496   6.039  0.1369  2.7284 -2.2723
  121OSM   H11B12747   4.362   5.668   6.049 -1.0829 -0.0456  0.0355
  121OSM      P12748   4.084   5.646   6.117  0.3158  0.2814 -0.2553
  121OSM    O1312749   4.092   5.793   6.129  0.4627  0.2669 -0.3088
  121OSM    O1412750   4.060   5.589   5.980 -0.0095 -0.2894  0.3616
  121OSM    O1112751   3.963   5.597   6.208 -0.3050 -0.1408  0.3103
  121OSM    O1212752   4.215   5.590   6.180 -0.2840 -0.4653 -0.1982
  121OSM    C1S12753   4.002   5.538   6.338  0.7138  0.4728  0.4921
  121OSM    H1S12754   4.106   5.556   6.373  1.1399 -2.9986  1.1394
  121OSM    H1T12755   3.975   5.431   6.346  0.8036  0.2616 -1.6446
  121OSM     NF12756   3.935   5.545   6.573 -0.3708  0.1346 -0.5866
  121OSM    HNF12757   3.874   5.485   6.624  0.6181  0.0950  0.5790
  121OSM    C2S12758   3.904   5.594   6.441  0.0377 -0.5321 -0.3624
  121OSM    H2S12759   3.907   5.704   6.452 -0.4759 -0.3643 -1.8475
  121OSM    C3S12760   3.755   5.559   6.399  0.0322  0.1790  0.1103
  121OSM    H3S12761   3.755   5.448   6.389  0.4489  0.0322  1.5571
  121OSM     O312762   3.717   5.608   6.278 -0.1187 -0.0253 -0.4327
  121OSM    HO312763   3.802   5.631   6.239  0.9539  0.8493  2.3142
  121OSM    C4S12764   3.665   5.609   6.519  0.5802  0.2566  0.4377
  121OSM    H4S12765   3.639   5.530   6.591  1.2942 -1.2376 -0.8952
  121OSM    C5S12766   3.608   5.731   6.539 -0.1994 -0.2256 -0.3021
  121OSM    H5S12767   3.624   5.807   6.461  1.9605  1.1607  1.4473
  121OSM    C6S12768   3.529   5.765   6.665 -0.3302 -0.1880 -0.1693
  121OSM    H6S12769   3.421   5.758   6.643 -0.4269  1.2311 -0.2405
  121OSM    H6T12770   3.557   5.870   6.689 -0.6841 -0.1406  0.0370
  121OSM    C7S12771   3.569   5.687   6.794 -0.1641  0.2279  0.4871
  121OSM    H7S12772   3.673   5.716   6.819  0.4838 -1.4709 -0.1454
  121OSM    H7T12773   3.563   5.577   6.776 -0.3753  0.6013 -1.8422
  121OSM    C8S12774   3.488   5.731   6.915 -0.5873 -0.2542  0.2071
  121OSM    H8S12775   3.384   5.698   6.899 -0.8823  0.7009  0.1457
  121OSM    H8T12776   3.486   5.842   6.922 -0.2958 -0.3002  1.1965
  121OSM    C9S12777   3.547   5.691   7.049 -0.4281  0.8798  0.3364
  121OSM    H9S12778   3.643   5.745   7.067  0.7192 -0.4082 -1.7193
  121OSM    H9T12779   3.561   5.581   7.057 -0.4735  0.7116 -1.6179
  121OSM   C10S12780   3.439   5.721   7.160 -0.4426  0.2253  0.0397
  121OSM   H10S12781   3.348   5.670   7.122 -0.2112 -0.5186  0.4683
  121OSM   H10T12782   3.396   5.823   7.160  0.3907  0.6257  2.7355
  121OSM   C11S12783   3.488   5.686   7.303  0.0334 -0.0487  0.1319
  121OSM   H11S12784   3.582   5.740   7.326  0.2879  1.0348 -3.2362
  121OSM   H11T12785   3.505   5.577   7.317 -1.2559 -0.0845  1.5280
  121OSM   C12S12786   3.392   5.732   7.406 -0.1392  0.2641  0.1120
  121OSM   H12S12787   3.296   5.678   7.407 -1.1198  1.9298 -1.0881
  121OSM   H12T12788   3.363   5.839   7.396 -1.6604 -0.3881 -3.1680
  121OSM   C13S12789   3.443   5.718   7.547 -0.6341  0.8590  0.4281
  121OSM   H13S12790   3.535   5.779   7.548 -0.2607  0.3237  3.3816
  121OSM   H13T12791   3.481   5.619   7.579  0.5427  0.3418 -2.4364
  121OSM   C14S12792   3.343   5.758   7.662 -0.2382  0.1240  0.3335
  121OSM   H14S12793   3.253   5.695   7.652  0.8611 -1.2410 -1.1223
  121OSM   H14T12794   3.323   5.865   7.642 -1.6595  0.1420  1.7190
  121OSM   C15S12795   3.386   5.754   7.805  0.2457 -0.2631  0.5689
  121OSM   H15S12796   3.456   5.835   7.833 -0.9850  1.9168 -2.4156
  121OSM   H15T12797   3.426   5.657   7.842  3.0427  0.0494 -1.5173
  121OSM   C16S12798   3.266   5.790   7.892 -0.1415  0.4637  0.1756
  121OSM   H16S12799   3.178   5.726   7.871  1.1815 -0.9557 -1.2769
  121OSM   H16T12800   3.237   5.891   7.859 -0.9057 -0.1774 -1.1565
  121OSM   C17S12801   3.294   5.795   8.038 -0.1481 -0.5557 -0.1712
  121OSM   H17S12802   3.213   5.849   8.092  0.2003  0.5303 -0.7128
  121OSM   H17T12803   3.391   5.847   8.053 -0.7358 -0.1281  2.2778
  121OSM   C18S12804   3.313   5.664   8.111 -0.3018 -0.1259  0.4699
  121OSM   H18S12805   3.225   5.598   8.120  0.7672 -1.9887 -2.1219
  121OSM   H18T12806   3.347   5.691   8.214 -2.8342 -2.3916  1.9547
  121OSM   H18U12807   3.397   5.601   8.075 -0.0878  0.6902 -0.4777
  121OSM    C1F12808   4.046   5.597   6.631 -0.3280  0.4138 -1.1452
  121OSM     OF12809   4.116   5.680   6.571 -0.0197 -0.0037  0.2535
  121OSM    C2F12810   4.084   5.544   6.767  0.1756 -0.9136  0.2681
  121OSM    H2F12811   4.187   5.578   6.788 -0.7482  1.2782  1.4829
  121OSM    H2G12812   4.095   5.434   6.763 -1.3509 -1.1172  0.9844
  121OSM    C3F12813   3.974   5.583   6.870  0.4832 -0.0306  0.4001
  121OSM    H3F12814   3.876   5.541   6.841 -0.2388  1.4119  0.7341
  121OSM    H3G12815   3.970   5.693   6.886 -2.2348 -0.4072  2.7076
  121OSM    C4F12816   4.005   5.541   7.021 -0.4120 -0.5542 -0.2771
  121OSM    H4F12817   4.095   5.591   7.062  1.6399 -3.5679 -0.9594
  121OSM    H4G12818   4.029   5.433   7.024 -0.0491 -0.4730 -0.2378
  121OSM    C5F12819   3.891   5.564   7.121 -0.2010 -1.1882 -0.0101
  121OSM    H5F12820   3.796   5.518   7.087 -0.3610  0.1810 -1.5202
  121OSM    H5G12821   3.879   5.674   7.130 -1.0403 -1.4133  1.7870
  121OSM    C6F12822   3.930   5.503   7.252 -1.0750 -0.2351 -0.5701
  121OSM    H6F12823   4.028   5.539   7.291 -0.5369 -0.7656 -1.4285
  121OSM    H6G12824   3.941   5.394   7.235  1.3536 -0.7854  3.7673
  121OSM    C7F12825   3.826   5.523   7.363 -0.6422  0.1482  0.3903
  121OSM    H7F12826   3.741   5.454   7.342 -0.8909  0.5504  0.0661
  121OSM    H7G12827   3.794   5.629   7.363  1.2586  0.7516 -1.1775
  121OSM    C8F12828   3.864   5.491   7.511  0.0132  0.2214  0.3211
  121OSM    H8F12829   3.945   5.560   7.543  1.7239 -1.0874 -1.0170
  121OSM    H8G12830   3.901   5.386   7.500 -0.3846  0.2812 -1.8361
  121OSM    C9F12831   3.746   5.503   7.595 -0.4555 -0.2454  0.5614
  121OSM    H9F12832   3.663   5.442   7.557 -0.2422  0.8292 -1.7707
  121OSM   C10F12833   3.721   5.579   7.700  0.2180 -0.1663 -0.7238
  121OSM   H10F12834   3.630   5.555   7.756  0.2757  1.6796  0.2272
  121OSM   C11F12835   3.808   5.690   7.754 -0.1832 -0.0642  0.0851
  121OSM   H11F12836   3.745   5.781   7.764  1.0153  1.2477 -3.4765
  121OSM   H11G12837   3.892   5.732   7.695 -1.7118  3.4850  0.2862
  121OSM   C12F12838   3.853   5.662   7.900  0.3926  0.2339 -0.6079
  121OSM   H12F12839   3.917   5.747   7.931 -0.4663  0.7446 -0.2306
  121OSM   H12G12840   3.914   5.570   7.896 -0.1819 -0.1452 -0.7651
  121OSM   C13F12841   3.737   5.644   7.999  0.1262  0.4445  0.0156
  121OSM   H13F12842   3.667   5.570   7.954 -0.4883  0.3648  1.0998
  121OSM   H13G12843   3.685   5.742   8.000 -1.8514 -0.5806 -0.0921
  121OSM   C14F12844   3.777   5.605   8.142 -0.3642  0.0478  1.0193
  121OSM   H14F12845   3.841   5.691   8.171 -0.5304 -0.0629  1.7426
  121OSM   H14G12846   3.826   5.507   8.155 -1.0988 -1.0063 -3.3272
  121OSM   C15F12847   3.658   5.606   8.240 -0.2957  1.1069 -0.2671
  121OSM   H15F12848   3.600   5.700   8.230  1.4623  1.9339 -3.1624
  121OSM   H15G12849   3.708   5.610   8.339 -0.4343 -2.6944  0.0064
  121OSM   C16F12850   3.565   5.486   8.231 -0.2528  0.1455  0.1161
  121OSM   H16F12851   3.546   5.460   8.124 -0.0559  2.4227 -0.5019
  121OSM   H16G12852   3.471   5.513   8.284 -0.0263 -0.0651  0.6250
  121OSM   C17F12853   3.613   5.356   8.291  0.2970 -0.6279  0.7564
  121OSM   H17F12854   3.647   5.371   8.396  4.0311 -2.0860 -0.1543
  121OSM   H17G12855   3.709   5.328   8.241  0.3164 -1.2578  1.1317
  121OSM   C18F12856   3.517   5.238   8.291 -0.1069 -0.2317 -0.2377
  121OSM   H18F12857   3.473   5.234   8.393  1.1884 -1.2185  0.2923
  121OSM   H18G12858   3.571   5.148   8.257 -1.0101 -0.8751 -0.0034
  121OSM   H18H12859   3.449   5.265   8.208  1.1469 -0.2329 -1.2665
  122OSM      N12860   3.092   1.370   5.788  0.0147  0.3095 -0.6451
  122OSM    C1512861   3.036   1.417   5.653 -0.4038  0.5070  0.0162
  122OSM   H15A12862   3.044   1.346   5.573 -0.1326  1.2128 -0.5916
  122OSM   H15B12863   3.094   1.503   5.624 -1.2443  1.1996  0.3621
  122OSM   H15C12864   2.936   1.458   5.650 -0.6536 -0.1234 -0.3089
  122OSM    C1412865   3.232   1.306   5.769  0.0541  0.3225  0.2076
  122OSM   H14A12866   3.304   1.376   5.728 -0.4930  1.4289  1.1110
  122OSM   H14B12867   3.221   1.225   5.698 -0.1203 -2.3481  3.1701
  122OSM   H14C12868   3.267   1.257   5.859  1.4816 -0.4007 -0.7135
  122OSM    C1312869   3.110   1.487   5.881 -0.2697 -0.4333  0.2822
  122OSM   H13A12870   3.155   1.463   5.977  0.6371  2.6899  0.6813
  122OSM   H13B12871   3.017   1.537   5.904 -0.2244  0.1587 -0.8023
  122OSM   H13C12872   3.162   1.565   5.828 -0.3724 -0.2548  0.4419
  122OSM    C1212873   3.003   1.268   5.857 -0.4456  0.4708 -0.7118
  122OSM   H12A12874   2.980   1.190   5.786 -1.6889 -1.2780  1.5713
  122OSM   H12B12875   2.907   1.315   5.867 -0.2488  0.4507  1.3575
  122OSM    C1112876   3.035   1.205   5.992  0.0003 -0.7179  0.6538
  122OSM   H11A12877   3.120   1.135   5.982 -1.5880 -2.6738  0.6146
  122OSM   H11B12878   2.955   1.128   6.002 -0.8121  0.0353  0.0123
  122OSM      P12879   2.917   1.329   6.187 -0.2497 -0.4211  0.0465
  122OSM    O1312880   2.950   1.438   6.286 -0.3320  0.2122 -0.0507
  122OSM    O1412881   2.802   1.364   6.098  0.2082  0.3555  0.0278
  122OSM    O1112882   2.886   1.195   6.261 -0.0427  0.2131  0.6495
  122OSM    O1212883   3.048   1.286   6.104  0.6480 -0.3396 -0.4527
  122OSM    C1S12884   2.968   1.123   6.349 -0.2743  0.3674  0.3012
  122OSM    H1S12885   3.067   1.169   6.367 -0.3626  0.8448 -0.4246
  122OSM    H1T12886   2.996   1.029   6.297  0.1397  0.7978 -0.2560
  122OSM     NF12887   3.009   1.022   6.567  0.4497  0.6361  0.7092
  122OSM    HNF12888   2.999   0.923   6.573 -1.1806  0.8747  2.3672
  122OSM    C2S12889   2.911   1.087   6.488  0.3839  0.4458  0.1962
  122OSM    H2S12890   2.884   1.180   6.541 -1.8374 -0.2879  0.3923
  122OSM    C3S12891   2.778   1.013   6.464  0.5618  0.1441  0.0823
  122OSM    H3S12892   2.803   0.916   6.417  0.9231 -0.6323  1.8454
  122OSM     O312893   2.681   1.074   6.377  0.4007  0.1070 -0.2505
  122OSM    HO312894   2.716   1.156   6.341  0.7820 -0.5400 -1.3816
  122OSM    C4S12895   2.715   0.970   6.594  0.5205  0.1905 -0.2205
  122OSM    H4S12896   2.748   0.871   6.629 -1.0692  0.3357  1.7874
  122OSM    C5S12897   2.625   1.038   6.675 -0.9281 -0.1326  0.9931
  122OSM    H5S12898   2.581   1.130   6.633  0.2309  0.3915  0.9055
  122OSM    C6S12899   2.564   0.991   6.805 -0.5365 -0.2712 -0.4352
  122OSM    H6S12900   2.595   0.886   6.820 -0.0529 -0.3330 -1.7780
  122OSM    H6T12901   2.455   0.994   6.787 -0.6600  1.9484  0.4206
  122OSM    C7S12902   2.607   1.083   6.920 -0.0945  0.0750 -0.2149
  122OSM    H7S12903   2.576   1.185   6.887  2.0169  0.7315 -0.2215
  122OSM    H7T12904   2.718   1.081   6.927 -0.0386  0.2632 -1.0452
  122OSM    C8S12905   2.546   1.049   7.058 -0.4983 -0.1880  0.3506
  122OSM    H8S12906   2.612   0.970   7.100  0.3266  0.5806  0.5021
  122OSM    H8T12907   2.443   1.009   7.043 -0.2365 -0.9560  0.5534
  122OSM    C9S12908   2.528   1.176   7.143 -1.0474 -0.4474  0.8224
  122OSM    H9S12909   2.470   1.249   7.083 -1.6740 -1.3524  0.3284
  122OSM    H9T12910   2.623   1.235   7.151 -1.4177  0.0480  1.7135
  122OSM   C10S12911   2.477   1.156   7.281  0.5573 -0.1062  0.4911
  122OSM   H10S12912   2.559   1.117   7.344 -0.7237 -0.7232  1.8146
  122OSM   H10T12913   2.396   1.079   7.277 -0.1248  0.5765  1.0129
  122OSM   C11S12914   2.416   1.281   7.338 -0.4852 -0.5327 -0.1224
  122OSM   H11S12915   2.338   1.314   7.265 -2.6513 -2.2821  1.3148
  122OSM   H11T12916   2.490   1.364   7.331 -1.0250  0.0033  0.5066
  122OSM   C12S12917   2.355   1.272   7.478  0.0772 -0.7075  0.3181
  122OSM   H12S12918   2.288   1.183   7.474 -0.5814 -0.1789 -0.8018
  122OSM   H12T12919   2.290   1.358   7.501  0.0324 -0.5465 -0.4049
  122OSM   C13S12920   2.455   1.243   7.585 -0.4086 -0.1599 -0.2174
  122OSM   H13S12921   2.526   1.329   7.583 -2.0933  1.2781  0.7644
  122OSM   H13T12922   2.516   1.151   7.581 -1.0667 -0.8319  3.6726
  122OSM   C14S12923   2.384   1.230   7.725 -0.1620  0.3746  0.1182
  122OSM   H14S12924   2.307   1.151   7.717  1.0261 -0.8921  1.0436
  122OSM   H14T12925   2.330   1.324   7.751  0.2544  0.9686 -1.1543
  122OSM   C15S12926   2.480   1.207   7.843  0.4539 -0.6378 -0.4758
  122OSM   H15S12927   2.556   1.288   7.840  0.7961 -0.8398  1.9284
  122OSM   H15T12928   2.531   1.109   7.831 -0.2816 -1.3421  1.9521
  122OSM   C16S12929   2.403   1.213   7.979  0.2272 -0.1162 -0.0201
  122OSM   H16S12930   2.342   1.121   7.994 -0.6146  0.2914 -0.9024
  122OSM   H16T12931   2.331   1.297   7.986 -0.4962 -0.7341  0.1164
  122OSM   C17S12932   2.501   1.207   8.093  0.1630  0.1325  0.1808
  122OSM   H17S12933   2.575   1.287   8.070 -0.0636  0.8056  1.7345
  122OSM   H17T12934   2.560   1.114   8.084  1.1446  0.6949  0.6896
  122OSM   C18S12935   2.441   1.228   8.226 -0.3578 -0.1718  0.9376
  122OSM   H18S12936   2.393   1.327   8.237  0.8405  0.6855 -1.1330
  122OSM   H18T12937   2.522   1.217   8.301  0.7291  0.5244 -0.1066
  122OSM   H18U12938   2.364   1.150   8.242 -0.6962 -0.1206 -0.3488
  122OSM    C1F12939   3.121   1.088   6.606 -0.7183  0.6214 -0.4755
  122OSM     OF12940   3.128   1.209   6.613 -0.3431 -0.4017 -0.4467
  122OSM    C2F12941   3.239   1.010   6.648  0.0972  0.3266 -0.2079
  122OSM    H2F12942   3.320   0.997   6.573 -0.0328 -3.9326  0.2757
  122OSM    H2G12943   3.222   0.901   6.662  0.0811  0.1979 -1.1707
  122OSM    C3F12944   3.309   1.077   6.766  0.7580 -0.1590 -0.3528
  122OSM    H3F12945   3.336   1.183   6.744  1.9879 -0.2652  0.5509
  122OSM    H3G12946   3.411   1.034   6.772  1.5409  1.4610 -1.5717
  122OSM    C4F12947   3.246   1.074   6.910  0.6783 -0.3608 -0.4404
  122OSM    H4F12948   3.279   0.994   6.980  2.0236  1.3813  0.9529
  122OSM    H4G12949   3.137   1.057   6.896  1.2769 -2.4485 -2.9557
  122OSM    C5F12950   3.244   1.211   6.979 -0.0020  0.1442 -0.6989
  122OSM    H5F12951   3.204   1.202   7.083  1.2263  0.1507 -0.2215
  122OSM    H5G12952   3.176   1.277   6.921 -1.6110 -0.6877  0.2012
  122OSM    C6F12953   3.383   1.271   6.994  0.1281  0.0796  0.4780
  122OSM    H6F12954   3.428   1.296   6.896 -0.3456  0.1978  0.2893
  122OSM    H6G12955   3.438   1.191   7.049  1.4316  0.6498  0.0171
  122OSM    C7F12956   3.383   1.395   7.084  0.2521  0.0998  0.0433
  122OSM    H7F12957   3.349   1.366   7.186 -0.4368 -1.5543 -0.6483
  122OSM    H7G12958   3.302   1.462   7.048 -0.6956 -1.3273 -0.5418
  122OSM    C8F12959   3.522   1.464   7.092  0.3936 -0.1388 -0.7132
  122OSM    H8F12960   3.574   1.485   6.996 -0.8008 -2.7343 -1.9939
  122OSM    H8G12961   3.591   1.400   7.150 -0.6524  1.0737  1.9487
  122OSM    C9F12962   3.507   1.603   7.160 -0.7562 -0.3214 -0.2450
  122OSM    H9F12963   3.434   1.671   7.114  0.7132  1.4987  0.0834
  122OSM   C10F12964   3.586   1.649   7.262  0.0602  0.1942  0.3150
  122OSM   H10F12965   3.568   1.748   7.307  1.2094 -0.0212  1.2691
  122OSM   C11F12966   3.700   1.577   7.335 -0.3573  0.1791  0.0610
  122OSM   H11F12967   3.786   1.644   7.315 -0.1746 -0.6339 -2.0238
  122OSM   H11G12968   3.720   1.476   7.294  1.2684  0.0484  1.1621
  122OSM   C12F12969   3.684   1.579   7.482  0.2477 -0.2553  0.3247
  122OSM   H12F12970   3.674   1.687   7.506  0.8246 -0.1462  0.0764
  122OSM   H12G12971   3.778   1.533   7.520  0.0180  0.3819  1.6794
  122OSM   C13F12972   3.570   1.510   7.555  0.6635  0.2050 -0.2374
  122OSM   H13F12973   3.578   1.400   7.540  0.3507  0.1964 -0.3471
  122OSM   H13G12974   3.473   1.530   7.505  0.7017  1.5599  0.2222
  122OSM   C14F12975   3.574   1.556   7.700 -0.2941  0.0760  0.3145
  122OSM   H14F12976   3.557   1.665   7.714  2.0120  0.5311 -0.1501
  122OSM   H14G12977   3.676   1.536   7.739 -0.6402 -2.8504 -0.1670
  122OSM   C15F12978   3.482   1.474   7.788  0.0949  0.4036 -0.2580
  122OSM   H15F12979   3.511   1.367   7.771 -0.2306  0.1525  0.7858
  122OSM   H15G12980   3.375   1.490   7.762 -0.4831 -2.4597  0.1668
  122OSM   C16F12981   3.486   1.512   7.932  0.1654 -0.0882 -0.7618
  122OSM   H16F12982   3.427   1.606   7.944 -0.2527 -0.6594  1.9602
  122OSM   H16G12983   3.593   1.527   7.959  0.0997  1.4657 -1.2990
  122OSM   C17F12984   3.452   1.404   8.034  0.1119 -0.1273 -0.5006
  122OSM   H17F12985   3.466   1.454   8.132  0.3074 -2.7809  0.8642
  122OSM   H17G12986   3.522   1.319   8.022 -0.4591 -0.7612  0.5324
  122OSM   C18F12987   3.310   1.352   8.012  0.0644 -0.8866  0.1093
  122OSM   H18F12988   3.242   1.437   8.035  0.5303 -0.6554  0.6376
  122OSM   H18G12989   3.282   1.255   8.056  1.7955 -0.6633  1.7345
  122OSM   H18H12990   3.306   1.331   7.903 -0.8407 -0.3267  0.0304
  123OSM      N12991   6.569   3.179   6.164  0.2092  0.3000  0.6973
  123OSM    C1512992   6.472   3.093   6.084  0.4348  0.6191  0.1250
  123OSM   H15A12993   6.464   3.130   5.983 -2.7341 -2.0591 -0.6959
  123OSM   H15B12994   6.376   3.106   6.132  0.3647  2.3493 -0.4550
  123OSM   H15C12995   6.497   2.988   6.090 -0.3396  0.4711  0.8830
  123OSM    C1412996   6.708   3.179   6.109 -0.5639  0.4607  0.4852
  123OSM   H14A12997   6.750   3.080   6.105 -1.3778  0.1621 -1.2565
  123OSM   H14B12998   6.778   3.236   6.168  1.3510 -1.1739 -0.1660
  123OSM   H14C12999   6.703   3.217   6.008  1.2436 -1.8532 -0.5251
  123OSM    C1313000   6.518   3.322   6.148  0.2560 -0.1501  0.7128
  123OSM   H13A13001   6.421   3.331   6.195 -1.0242 -3.8114 -1.0539
  123OSM   H13B13002   6.502   3.343   6.043  1.0251  1.6631  0.9278
  123OSM   H13C13003   6.582   3.400   6.188  1.8853 -0.2491 -1.5915
  123OSM    C1213004   6.560   3.138   6.314  0.0424 -0.7258  0.5414
  123OSM   H12A13005   6.610   3.044   6.327  2.7413  0.6566  0.5758
  123OSM   H12B13006   6.459   3.121   6.350 -0.3471  3.1556  1.5357
  123OSM    C1113007   6.628   3.239   6.413 -0.4995 -0.4051 -0.2594
  123OSM   H11A13008   6.595   3.234   6.519  0.8908 -0.0806  0.2006
  123OSM   H11B13009   6.586   3.341   6.395  1.2631 -0.1453 -3.1858
  123OSM      P13010   6.861   3.133   6.434 -0.2849  0.0223 -0.1320
  123OSM    O1313011   6.822   3.003   6.372 -0.5642  0.3488  0.6438
  123OSM    O1413012   7.002   3.167   6.422 -0.0432 -0.0442  0.2389
  123OSM    O1113013   6.827   3.120   6.593 -0.3588  0.1908  0.2207
  123OSM    O1213014   6.766   3.249   6.392 -0.4951  0.4196  0.3152
  123OSM    C1S13015   6.897   3.215   6.681 -0.1714 -0.3206  0.3099
  123OSM    H1S13016   6.857   3.319   6.673 -0.5102 -0.5564 -1.1324
  123OSM    H1T13017   7.006   3.221   6.660 -0.3349 -2.2664 -1.2104
  123OSM     NF13018   6.881   3.281   6.914  0.7774 -0.0444 -0.2730
  123OSM    HNF13019   6.974   3.298   6.945  0.0564  0.3672  1.7169
  123OSM    C2S13020   6.876   3.164   6.832  0.5353  0.6599  0.4878
  123OSM    H2S13021   6.773   3.122   6.821  0.4090  1.2733 -0.8047
  123OSM    C3S13022   6.974   3.047   6.866 -0.6518  0.2981 -0.7387
  123OSM    H3S13023   7.078   3.083   6.863 -0.3634 -0.5664 -1.3266
  123OSM     O313024   6.963   2.934   6.783 -0.2434  0.7322 -0.5435
  123OSM    HO313025   6.918   2.977   6.709 -1.9877 -1.9729 -1.1261
  123OSM    C4S13026   6.947   3.009   7.008  0.5631  0.1853 -0.1574
  123OSM    H4S13027   7.006   3.073   7.075 -0.4179 -0.6217  1.5168
  123OSM    C5S13028   6.868   2.912   7.073 -0.0516 -0.3298  0.5025
  123OSM    H5S13029   6.806   2.849   7.008  0.4109  3.0467 -3.4010
  123OSM    C6S13030   6.853   2.909   7.222 -0.0447  0.2750 -0.3378
  123OSM    H6S13031   6.751   2.880   7.255 -0.0374  0.1062 -0.4638
  123OSM    H6T13032   6.863   3.003   7.280  1.3336 -0.9084  1.3898
  123OSM    C7S13033   6.955   2.822   7.294 -0.1361  0.1818 -0.1480
  123OSM    H7S13034   7.052   2.872   7.317 -0.3188  1.5403 -2.1361
  123OSM    H7T13035   6.961   2.727   7.237 -1.4755  0.4693 -0.7788
  123OSM    C8S13036   6.913   2.791   7.439 -0.1175  0.8869  0.8376
  123OSM    H8S13037   6.974   2.709   7.483 -1.3742 -1.5282 -1.7386
  123OSM    H8T13038   6.812   2.745   7.426  0.0271  0.2368  1.9809
  123OSM    C9S13039   6.911   2.913   7.533 -0.9382  0.0931  0.0457
  123OSM    H9S13040   6.837   2.983   7.488  1.4436  0.9429 -2.7208
  123OSM    H9T13041   7.010   2.964   7.531  0.2003 -1.9711  1.2133
  123OSM   C10S13042   6.891   2.877   7.680 -0.3983  0.2379 -0.2639
  123OSM   H10S13043   6.905   2.965   7.747 -0.7575 -0.2295  0.4298
  123OSM   H10T13044   6.966   2.804   7.718  1.4402  2.2985  0.1334
  123OSM   C11S13045   6.747   2.823   7.707 -0.3042 -0.1172 -0.4666
  123OSM   H11S13046   6.752   2.724   7.658 -0.7704  1.1664 -3.1992
  123OSM   H11T13047   6.666   2.885   7.663 -1.5963 -1.1075  0.4695
  123OSM   C12S13048   6.730   2.802   7.856 -0.5474  0.5417 -0.5946
  123OSM   H12S13049   6.825   2.764   7.901  0.0152  1.1023 -1.2990
  123OSM   H12T13050   6.651   2.726   7.874 -1.8515  2.1990  0.8562
  123OSM   C13S13051   6.684   2.929   7.935  0.5538  0.4025  0.4416
  123OSM   H13S13052   6.592   2.976   7.893  1.0559  1.8889  0.9831
  123OSM   H13T13053   6.765   3.004   7.931  2.0903 -1.2312  0.3994
  123OSM   C14S13054   6.647   2.896   8.079 -0.4077  0.9429  0.6223
  123OSM   H14S13055   6.736   2.855   8.130 -0.5891 -0.4543 -0.1546
  123OSM   H14T13056   6.580   2.807   8.085  0.5892  0.2893  2.0472
  123OSM   C15S13057   6.592   3.015   8.155  0.0248 -0.5486 -0.1251
  123OSM   H15S13058   6.500   3.055   8.107  0.1596 -1.1732 -0.9061
  123OSM   H15T13059   6.663   3.097   8.130  0.0619 -0.3410  0.6493
  123OSM   C16S13060   6.569   2.986   8.304  0.0161 -0.0345  0.2108
  123OSM   H16S13061   6.666   2.947   8.341 -0.6910 -3.7260 -1.6584
  123OSM   H16T13062   6.483   2.916   8.309 -0.3378  0.3612 -0.3223
  123OSM   C17S13063   6.533   3.116   8.384 -0.0833  0.3887 -0.1847
  123OSM   H17S13064   6.430   3.142   8.350  0.1109  1.1288 -0.2196
  123OSM   H17T13065   6.609   3.195   8.367 -0.7686  1.1778  0.3377
  123OSM   C18S13066   6.502   3.093   8.532 -0.3633 -0.5371 -0.4131
  123OSM   H18S13067   6.424   3.015   8.549 -2.0278  0.5597 -2.7268
  123OSM   H18T13068   6.463   3.190   8.569  2.0248  0.9695 -1.7161
  123OSM   H18U13069   6.597   3.068   8.585 -0.0087 -1.7127 -1.5834
  123OSM    C1F13070   6.784   3.372   6.942 -0.3793 -0.1342  0.1839
  123OSM     OF13071   6.672   3.368   6.895  0.0143  0.1573  0.1164
  123OSM    C2F13072   6.829   3.496   7.024  0.6187 -0.3518 -0.3965
  123OSM    H2F13073   6.792   3.583   6.966  1.8108  2.1028  2.3777
  123OSM    H2G13074   6.940   3.495   7.024  0.7049  1.5230  2.9604
  123OSM    C3F13075   6.759   3.507   7.159 -0.0180  0.0333 -0.6938
  123OSM    H3F13076   6.648   3.518   7.159  0.3239  4.6764 -2.2689
  123OSM    H3G13077   6.794   3.605   7.199 -0.4405 -0.4267  0.8098
  123OSM    C4F13078   6.802   3.395   7.246 -0.1488 -0.4724 -0.9295
  123OSM    H4F13079   6.911   3.381   7.232  0.1670  1.7872 -0.8643
  123OSM    H4G13080   6.753   3.299   7.220 -1.0761 -0.4604  0.7177
  123OSM    C5F13081   6.787   3.425   7.390  0.0037  0.7711 -0.4848
  123OSM    H5F13082   6.678   3.426   7.411  0.1554  0.3528  0.3287
  123OSM    H5G13083   6.826   3.525   7.419  1.1718  0.8870 -2.3910
  123OSM    C6F13084   6.844   3.319   7.488  0.5028  0.2779 -0.0530
  123OSM    H6F13085   6.954   3.311   7.488  0.4606 -0.3196 -0.3847
  123OSM    H6G13086   6.813   3.223   7.443  0.2208  0.7517 -0.8822
  123OSM    C7F13087   6.774   3.351   7.624 -0.2346 -0.6030 -0.0381
  123OSM    H7F13088   6.667   3.321   7.619 -0.2521 -0.7303  0.9661
  123OSM    H7G13089   6.787   3.458   7.649 -0.0090 -0.5794 -0.2544
  123OSM    C8F13090   6.830   3.268   7.745  0.5201 -0.3718  0.3874
  123OSM    H8F13091   6.933   3.310   7.755  0.2798  0.3819 -0.2455
  123OSM    H8G13092   6.835   3.159   7.729  0.8443 -0.4385  0.9118
  123OSM    C9F13093   6.750   3.305   7.867 -0.3321  0.3235  0.3731
  123OSM    H9F13094   6.643   3.327   7.852 -0.0798  1.3120  0.0311
  123OSM   C10F13095   6.788   3.333   7.993 -0.0878 -0.3717  0.4010
  123OSM   H10F13096   6.711   3.366   8.064 -0.5959  2.4761 -1.3883
  123OSM   C11F13097   6.928   3.341   8.042  0.2883 -0.0659 -0.7175
  123OSM   H11F13098   6.973   3.442   8.027  3.6678 -1.2283  0.9799
  123OSM   H11G13099   6.992   3.260   7.999  1.1115  0.4878 -0.5584
  123OSM   C12F13100   6.937   3.305   8.191  0.3700 -0.2566  0.4557
  123OSM   H12F13101   7.048   3.297   8.202  0.7920  1.1254 -2.2778
  123OSM   H12G13102   6.897   3.203   8.210 -1.9603  0.4439 -0.5458
  123OSM   C13F13103   6.881   3.406   8.290  0.7234 -0.7642  0.1600
  123OSM   H13F13104   6.919   3.375   8.389 -0.3434 -2.9401 -0.0568
  123OSM   H13G13105   6.770   3.401   8.291  0.6764 -1.0613 -2.5407
  123OSM   C14F13106   6.936   3.545   8.272  0.1852  0.1317  0.1955
  123OSM   H14F13107   6.895   3.594   8.181  0.5156  2.3243  1.1951
  123OSM   H14G13108   7.046   3.540   8.256  0.0020 -0.3394 -0.9675
  123OSM   C15F13109   6.940   3.625   8.402 -0.5784 -1.1613  0.1358
  123OSM   H15F13110   7.000   3.564   8.473  1.8000  1.3783  0.3858
  123OSM   H15G13111   6.843   3.630   8.456 -1.1681 -1.8308 -0.8445
  123OSM   C16F13112   7.000   3.766   8.408  0.0276  0.3232  0.7723
  123OSM   H16F13113   6.998   3.791   8.516  0.5097 -0.4039  0.9571
  123OSM   H16G13114   6.922   3.829   8.362 -1.4156 -0.4672  2.0974
  123OSM   C17F13115   7.151   3.781   8.367 -0.0179  0.0926  0.4324
  123OSM   H17F13116   7.151   3.789   8.256 -0.3064  2.1720  0.5743
  123OSM   H17G13117   7.181   3.676   8.390  0.0466 -0.1208 -0.5781
  123OSM   C18F13118   7.245   3.881   8.427 -0.1571 -0.9565 -0.1796
  123OSM   H18F13119   7.344   3.884   8.376 -0.0938 -0.0571 -0.0028
  123OSM   H18G13120   7.268   3.851   8.531  2.9799 -0.4927 -0.6899
  123OSM   H18H13121   7.201   3.983   8.423  1.4383 -0.2169  0.7906
  124OSM      N13122   1.410   5.849   6.223  0.0818 -0.1439 -0.3146
  124OSM    C1513123   1.445   5.761   6.344 -0.8445 -0.2957  0.1265
  124OSM   H15A13124   1.381   5.674   6.351  0.8584 -1.7315 -1.7044
  124OSM   H15B13125   1.422   5.818   6.433  1.4975  0.2247  0.4343
  124OSM   H15C13126   1.548   5.730   6.356 -1.2373 -0.7394  2.6858
  124OSM    C1413127   1.425   5.761   6.100  0.4655 -0.1132 -0.2700
  124OSM   H14A13128   1.371   5.668   6.103  0.3931 -0.0520  0.6760
  124OSM   H14B13129   1.528   5.735   6.085  0.2469 -0.8250 -0.5421
  124OSM   H14C13130   1.388   5.821   6.018 -1.0713 -0.0029  0.4881
  124OSM    C1313131   1.262   5.887   6.238  0.3191  0.0113 -0.4468
  124OSM   H13A13132   1.252   5.935   6.334 -2.9946 -3.3694  1.0088
  124OSM   H13B13133   1.205   5.796   6.240  0.6188 -0.1456  1.1785
  124OSM   H13C13134   1.226   5.966   6.172 -0.6139  0.1839  0.2640
  124OSM    C1213135   1.505   5.967   6.218  0.1916 -0.1272 -0.3817
  124OSM   H12A13136   1.487   6.018   6.124  0.9044  0.1745 -0.3564
  124OSM   H12B13137   1.602   5.929   6.191 -0.0706  0.3269 -2.0295
  124OSM    C1113138   1.501   6.065   6.331 -0.3127 -0.0208 -0.1931
  124OSM   H11A13139   1.590   6.131   6.334 -1.2831  1.2160  2.4903
  124OSM   H11B13140   1.505   6.014   6.429  0.5629 -0.1960 -0.3224
  124OSM      P13141   1.364   6.276   6.264 -0.1201 -0.0885 -0.2998
  124OSM    O1313142   1.424   6.265   6.131  0.2643  0.1829  0.4760
  124OSM    O1413143   1.224   6.323   6.270 -0.1828  0.9496 -0.2186
  124OSM    O1113144   1.443   6.382   6.344 -0.0270 -1.0316  0.2016
  124OSM    O1213145   1.376   6.137   6.338 -0.1906 -0.5556  0.3066
  124OSM    C1S13146   1.403   6.410   6.485  0.0978 -0.5363  0.0354
  124OSM    H1S13147   1.293   6.395   6.495 -0.3456  0.1256 -3.5208
  124OSM    H1T13148   1.433   6.516   6.498  1.7411 -0.9379 -0.3717
  124OSM     NF13149   1.412   6.348   6.731 -0.6653 -0.5694 -0.6595
  124OSM    HNF13150   1.462   6.375   6.814 -1.7727  1.5303 -0.6313
  124OSM    C2S13151   1.482   6.327   6.601 -0.4117  0.6261  0.1241
  124OSM    H2S13152   1.474   6.221   6.570  4.9169 -0.0405  0.5934
  124OSM    C3S13153   1.632   6.366   6.597 -0.1865  0.3617  0.0489
  124OSM    H3S13154   1.643   6.470   6.634  2.7291  0.0138  0.2489
  124OSM     O313155   1.703   6.353   6.472  0.9289 -0.3025  0.3011
  124OSM    HO313156   1.635   6.329   6.408  2.1905  2.7542 -2.2735
  124OSM    C4S13157   1.705   6.276   6.694 -0.5067 -1.0652  0.1814
  124OSM    H4S13158   1.715   6.328   6.790  2.1965 -1.8687  0.3901
  124OSM    C5S13159   1.762   6.159   6.680 -0.3279 -0.7978 -0.1908
  124OSM    H5S13160   1.754   6.120   6.577  2.1256 -1.5003 -0.1411
  124OSM    C6S13161   1.849   6.081   6.775  0.6698  0.0424 -0.3587
  124OSM    H6S13162   1.813   5.977   6.792 -0.8366  0.6275  0.1145
  124OSM    H6T13163   1.846   6.122   6.878  0.1200 -1.1597  0.1239
  124OSM    C7S13164   1.996   6.088   6.742  0.4223 -0.5734  0.3351
  124OSM    H7S13165   2.038   6.191   6.751 -1.1885 -0.1006  3.1544
  124OSM    H7T13166   2.008   6.061   6.635 -1.3994 -0.5645  0.1136
  124OSM    C8S13167   2.089   5.996   6.817 -0.7021 -0.3108 -1.1095
  124OSM    H8S13168   2.059   5.889   6.811  1.5633 -0.9679 -1.0530
  124OSM    H8T13169   2.061   6.017   6.923 -0.1395  0.1360 -1.0505
  124OSM    C9S13170   2.236   6.023   6.801  0.9587 -0.1285 -0.2913
  124OSM    H9S13171   2.265   6.011   6.695  0.2313  0.6084 -0.5788
  124OSM    H9T13172   2.288   5.937   6.848  0.2534 -2.2002 -3.1603
  124OSM   C10S13173   2.276   6.156   6.868 -0.4160 -0.5664 -0.3238
  124OSM   H10S13174   2.247   6.155   6.976  0.0546 -3.0099 -0.2033
  124OSM   H10T13175   2.213   6.239   6.828  0.9686  1.0491  0.7399
  124OSM   C11S13176   2.425   6.194   6.863  0.2852  0.2932  0.6425
  124OSM   H11S13177   2.448   6.242   6.765 -0.0427 -1.4307 -0.2886
  124OSM   H11T13178   2.469   6.093   6.872 -1.6226 -0.5337  0.8905
  124OSM   C12S13179   2.479   6.274   6.979  0.1847 -0.0777  0.3817
  124OSM   H12S13180   2.426   6.242   7.071 -0.9612  0.3983 -0.1124
  124OSM   H12T13181   2.456   6.382   6.963  0.9408 -0.0061 -0.2725
  124OSM   C13S13182   2.631   6.265   7.012 -0.0226  0.0867 -0.5411
  124OSM   H13S13183   2.683   6.307   6.924 -0.8226  0.7402 -0.7015
  124OSM   H13T13184   2.655   6.157   7.025  1.0620  0.5698  1.6336
  124OSM   C14S13185   2.678   6.344   7.135 -0.2600  0.5473 -0.5092
  124OSM   H14S13186   2.636   6.447   7.130 -1.2091  0.0789 -2.8862
  124OSM   H14T13187   2.785   6.367   7.116  0.0649 -0.0592  0.5327
  124OSM   C15S13188   2.650   6.285   7.273 -0.1015  0.1960  0.2192
  124OSM   H15S13189   2.673   6.176   7.272  2.8597  0.7947 -0.1111
  124OSM   H15T13190   2.542   6.307   7.288  0.3641  2.3326  0.5729
  124OSM   C16S13191   2.739   6.345   7.390 -0.2667  0.0765 -0.8818
  124OSM   H16S13192   2.726   6.454   7.372 -3.3532 -0.3529 -1.6453
  124OSM   H16T13193   2.842   6.313   7.366 -1.2795 -2.9159 -1.4856
  124OSM   C17S13194   2.684   6.332   7.534 -0.4412  0.6236  0.5027
  124OSM   H17S13195   2.767   6.355   7.603  1.2286 -1.9389 -0.5581
  124OSM   H17T13196   2.667   6.224   7.554 -1.8192  0.7334  0.0064
  124OSM   C18S13197   2.559   6.418   7.554 -0.8621  0.0904 -0.1867
  124OSM   H18S13198   2.476   6.401   7.483 -2.1739 -0.3263  1.3994
  124OSM   H18T13199   2.581   6.527   7.550 -1.1546  0.1037 -1.4694
  124OSM   H18U13200   2.507   6.395   7.650  0.1866  2.3923  0.9548
  124OSM    C1F13201   1.286   6.310   6.754  0.3388  0.4849  0.0173
  124OSM     OF13202   1.226   6.236   6.675 -0.1542  0.6239  0.2408
  124OSM    C2F13203   1.216   6.366   6.874  0.1364  0.6382 -0.7484
  124OSM    H2F13204   1.180   6.468   6.852  1.2047  0.8953 -1.3187
  124OSM    H2G13205   1.280   6.378   6.964 -0.3289  0.5006 -0.3956
  124OSM    C3F13206   1.085   6.290   6.916 -0.4473  0.4744  0.1113
  124OSM    H3F13207   1.098   6.181   6.933 -0.1535  0.8041  2.0865
  124OSM    H3G13208   1.022   6.287   6.825 -0.0589 -2.7600 -0.1120
  124OSM    C4F13209   1.006   6.349   7.031 -0.0651  0.2729  0.3795
  124OSM    H4F13210   0.912   6.291   7.023  0.6337 -0.6868 -1.0799
  124OSM    H4G13211   0.978   6.457   7.029 -0.1705  0.2266 -0.9837
  124OSM    C5F13212   1.065   6.299   7.163  0.7551  0.4439 -0.5989
  124OSM    H5F13213   1.167   6.344   7.170  1.5621 -1.5416  0.9472
  124OSM    H5G13214   1.088   6.191   7.145 -3.6605 -0.7030  0.0929
  124OSM    C6F13215   0.994   6.330   7.289 -0.0290 -0.1488  0.0776
  124OSM    H6F13216   0.897   6.276   7.280 -0.3947  0.0473  2.4466
  124OSM    H6G13217   0.966   6.437   7.302  3.1295  0.8509 -1.0405
  124OSM    C7F13218   1.065   6.280   7.419  0.1484 -0.0965  0.6972
  124OSM    H7F13219   1.156   6.335   7.452  0.1274  0.4659 -0.1454
  124OSM    H7G13220   1.098   6.177   7.397  1.3911  0.1856  1.1731
  124OSM    C8F13221   0.974   6.273   7.538  0.9800  0.4234  0.3903
  124OSM    H8F13222   0.884   6.219   7.502  1.2966  0.9026 -1.1317
  124OSM    H8G13223   0.929   6.372   7.560 -1.0069 -0.3265 -0.2208
  124OSM    C9F13224   1.039   6.189   7.651 -0.0522  0.2662 -0.7113
  124OSM    H9F13225   1.133   6.233   7.687  0.2440 -1.9138  1.2653
  124OSM   C10F13226   1.003   6.073   7.710 -0.0529 -0.5847  0.5274
  124OSM   H10F13227   1.082   6.031   7.774  0.9399 -1.9226 -1.5309
  124OSM   C11F13228   0.885   5.987   7.670  0.8575  0.1869  0.0691
  124OSM   H11F13229   0.914   5.885   7.638 -0.2221  0.1529 -0.8500
  124OSM   H11G13230   0.831   6.024   7.581  1.9927 -0.4280 -0.8764
  124OSM   C12F13231   0.785   5.957   7.780 -0.1374 -1.3599  0.0150
  124OSM   H12F13232   0.689   5.940   7.726 -0.9377  0.1126  0.9430
  124OSM   H12G13233   0.769   6.052   7.835 -0.5723 -1.4407  0.0305
  124OSM   C13F13234   0.828   5.869   7.894  0.2359 -0.1574  0.5972
  124OSM   H13F13235   0.915   5.906   7.952 -0.3616 -0.5045  1.7374
  124OSM   H13G13236   0.861   5.770   7.855  1.3285  0.3645  0.1691
  124OSM   C14F13237   0.714   5.849   7.992 -0.3883 -0.8507 -0.1073
  124OSM   H14F13238   0.635   5.777   7.962 -1.1771  0.3391 -0.9546
  124OSM   H14G13239   0.663   5.946   8.011  0.9371 -0.0736 -0.4387
  124OSM   C15F13240   0.760   5.805   8.131 -0.3406  0.5070 -0.3645
  124OSM   H15F13241   0.853   5.859   8.162 -0.6700 -0.2154  1.9557
  124OSM   H15G13242   0.796   5.701   8.141  1.5429  1.0956 -0.7655
  124OSM   C16F13243   0.634   5.817   8.223 -0.4552  0.2894  0.2725
  124OSM   H16F13244   0.608   5.924   8.209  1.8033  0.6463 -1.3869
  124OSM   H16G13245   0.680   5.819   8.324  1.3640  0.1095 -0.5345
  124OSM   C17F13246   0.528   5.711   8.215  0.1669  0.3363  0.4397
  124OSM   H17F13247   0.574   5.612   8.238  1.7089  1.0213  0.3629
  124OSM   H17G13248   0.485   5.706   8.113  0.0633  1.6278  0.4129
  124OSM   C18F13249   0.403   5.748   8.304 -0.7152  1.0261 -0.2274
  124OSM   H18F13250   0.315   5.681   8.296  0.7740 -1.0232  0.0503
  124OSM   H18G13251   0.366   5.843   8.261 -1.3743 -0.2472 -2.5971
  124OSM   H18H13252   0.428   5.767   8.410 -0.2334  1.9192 -0.4919
  125OSM      N13253   4.370   4.763   5.968  0.1424 -0.1469  0.2659
  125OSM    C1513254   4.405   4.688   5.837 -0.0272  0.3660  0.2625
  125OSM   H15A13255   4.320   4.629   5.807  0.5034 -1.6235  2.5197
  125OSM   H15B13256   4.493   4.626   5.842  1.0896  1.8462 -0.6426
  125OSM   H15C13257   4.425   4.760   5.759  0.0114 -1.0831 -1.0814
  125OSM    C1413258   4.242   4.835   5.936 -0.2833 -0.0825 -0.3041
  125OSM   H14A13259   4.169   4.765   5.900 -2.0524  0.2389  2.5451
  125OSM   H14B13260   4.248   4.909   5.858  2.3448  1.1623  0.9690
  125OSM   H14C13261   4.190   4.881   6.019 -1.8996  1.7049 -2.2798
  125OSM    C1313262   4.343   4.659   6.081 -0.1042  0.1903 -0.2451
  125OSM   H13A13263   4.336   4.711   6.176  0.6530  0.1510 -0.1621
  125OSM   H13B13264   4.432   4.600   6.093  0.1448  0.4474 -0.8089
  125OSM   H13C13265   4.261   4.595   6.053 -1.2258  0.5455  2.0658
  125OSM    C1213266   4.487   4.851   5.999 -0.6106 -0.1121  0.0108
  125OSM   H12A13267   4.513   4.914   5.916  1.7637  0.7885  1.3975
  125OSM   H12B13268   4.580   4.799   6.017  0.1454  1.0646 -0.5021
  125OSM    C1113269   4.455   4.950   6.110  0.1445  0.4235 -0.1744
  125OSM   H11A13270   4.389   4.900   6.183  1.7631  0.1882  1.1589
  125OSM   H11B13271   4.385   5.025   6.069 -0.7128  1.2350  2.6833
  125OSM      P13272   4.618   5.156   6.185  0.3862  0.1895  0.0400
  125OSM    O1313273   4.762   5.179   6.187 -0.7188  0.3930 -0.5189
  125OSM    O1413274   4.538   5.247   6.103  0.4353 -0.0827 -0.2970
  125OSM    O1113275   4.582   5.159   6.339 -0.5529 -0.0647 -0.3053
  125OSM    O1213276   4.588   5.001   6.157  0.3591  0.3567 -0.5584
  125OSM    C1S13277   4.499   5.062   6.395 -0.1403 -0.0105  0.1544
  125OSM    H1S13278   4.558   4.969   6.402 -0.3334 -0.2339 -0.9714
  125OSM    H1T13279   4.406   5.055   6.334  0.3067  0.8322 -0.6596
  125OSM     NF13280   4.407   4.974   6.606  0.1523  0.7124 -0.1300
  125OSM    HNF13281   4.308   4.963   6.608  0.1000  1.1962  0.4504
  125OSM    C2S13282   4.454   5.094   6.543  0.9611 -0.2504  0.5233
  125OSM    H2S13283   4.542   5.125   6.602  0.0918  1.6670  0.8490
  125OSM    C3S13284   4.358   5.222   6.543  0.0231  0.5749  0.4506
  125OSM    H3S13285   4.256   5.192   6.510 -1.3744  2.3372  3.0177
  125OSM     O313286   4.389   5.320   6.452 -0.3470  0.1807 -0.1677
  125OSM    HO313287   4.462   5.277   6.407  1.1212  2.0633  0.3628
  125OSM    C4S13288   4.349   5.266   6.680  0.1739 -0.5933 -0.3677
  125OSM    H4S13289   4.294   5.195   6.744  2.2712 -1.0377  1.0356
  125OSM    C5S13290   4.414   5.368   6.743 -0.4450  0.3056 -0.1302
  125OSM    H5S13291   4.493   5.417   6.684  1.3290 -0.7106  1.3498
  125OSM    C6S13292   4.416   5.406   6.890 -0.5747 -0.4798  0.9754
  125OSM    H6S13293   4.397   5.513   6.912  0.8996  0.4835 -2.1702
  125OSM    H6T13294   4.523   5.391   6.917 -0.6220 -0.1108  1.3749
  125OSM    C7S13295   4.333   5.332   7.001  0.1187  0.0142  0.4410
  125OSM    H7S13296   4.371   5.228   6.994 -0.2175 -0.0426 -0.5947
  125OSM    H7T13297   4.231   5.340   6.958  0.3592  1.7181  0.1555
  125OSM    C8S13298   4.341   5.398   7.140  0.0492 -0.1050  0.4591
  125OSM    H8S13299   4.312   5.504   7.131  2.7797  0.5361 -1.5097
  125OSM    H8T13300   4.445   5.402   7.179 -0.3177  0.9610  1.3385
  125OSM    C9S13301   4.254   5.338   7.250 -0.0575 -0.0695  0.6957
  125OSM    H9S13302   4.290   5.233   7.257  0.1600 -0.0300  0.2278
  125OSM    H9T13303   4.147   5.335   7.218  0.4511 -1.7203 -0.9830
  125OSM   C10S13304   4.275   5.416   7.381  0.0862 -0.7560 -0.3175
  125OSM   H10S13305   4.231   5.518   7.383  2.8765  0.4982  2.0090
  125OSM   H10T13306   4.384   5.432   7.399  0.5215 -3.1805 -0.6431
  125OSM   C11S13307   4.212   5.335   7.496  0.8168  0.1780  0.1254
  125OSM   H11S13308   4.257   5.234   7.512  0.9104  0.2333  0.2174
  125OSM   H11T13309   4.108   5.313   7.464  1.7523 -1.3792 -1.9686
  125OSM   C12S13310   4.219   5.409   7.631 -0.2847 -0.5713  0.1988
  125OSM   H12S13311   4.193   5.513   7.602  5.4534  1.0321  0.1899
  125OSM   H12T13312   4.325   5.415   7.664 -0.3477  0.3690  0.2423
  125OSM   C13S13313   4.134   5.365   7.752  0.1005  0.6624  0.7396
  125OSM   H13S13314   4.143   5.258   7.779 -0.3292  0.6987  1.0388
  125OSM   H13T13315   4.031   5.395   7.723  1.0711  1.1161 -2.4425
  125OSM   C14S13316   4.170   5.454   7.870 -0.3000 -0.3525 -0.0202
  125OSM   H14S13317   4.131   5.558   7.872  0.4492 -0.0985  2.4434
  125OSM   H14T13318   4.280   5.469   7.873 -0.2354 -0.6073 -0.8228
  125OSM   C15S13319   4.121   5.388   8.008  0.3681 -0.1812 -0.0521
  125OSM   H15S13320   4.169   5.288   8.008  0.4525 -0.1397 -0.4886
  125OSM   H15T13321   4.010   5.378   8.012  0.3745  0.5564  4.3444
  125OSM   C16S13322   4.186   5.453   8.137 -0.6558  0.0556 -0.3168
  125OSM   H16S13323   4.131   5.547   8.155 -0.4438  0.2168 -0.5059
  125OSM   H16T13324   4.289   5.481   8.105 -0.0033  0.2436  1.8612
  125OSM   C17S13325   4.199   5.368   8.263  0.1337  0.2818  0.3391
  125OSM   H17S13326   4.248   5.272   8.235  0.3655 -0.0989  2.0410
  125OSM   H17T13327   4.100   5.356   8.311  0.0337  0.3700  0.1562
  125OSM   C18S13328   4.297   5.432   8.367 -0.5259  0.1751 -0.3613
  125OSM   H18S13329   4.256   5.524   8.414 -1.1237  0.5417 -1.5767
  125OSM   H18T13330   4.381   5.450   8.297  0.9114  1.1749  1.5574
  125OSM   H18U13331   4.326   5.358   8.445  1.4335  1.1335 -0.1580
  125OSM    C1F13332   4.502   4.884   6.645 -0.3021 -0.1052  0.8679
  125OSM     OF13333   4.618   4.892   6.610 -0.2990  0.4673  1.0539
  125OSM    C2F13334   4.447   4.765   6.721  0.7008  0.3969 -0.6777
  125OSM    H2F13335   4.374   4.710   6.657  0.4595 -0.8353  0.6217
  125OSM    H2G13336   4.406   4.802   6.817 -0.5517 -4.5349  0.8583
  125OSM    C3F13337   4.570   4.678   6.748  0.6306  0.3316 -0.3326
  125OSM    H3F13338   4.658   4.735   6.784 -0.0077  1.3715 -0.4005
  125OSM    H3G13339   4.600   4.640   6.648 -2.3803  0.2455 -1.2560
  125OSM    C4F13340   4.548   4.564   6.848 -0.4379  0.2707  0.3097
  125OSM    H4F13341   4.626   4.484   6.842 -1.4976 -0.9332  2.1192
  125OSM    H4G13342   4.461   4.497   6.830  0.7595 -1.1360 -0.3716
  125OSM    C5F13343   4.551   4.626   6.990 -0.7971  0.0779 -0.8187
  125OSM    H5F13344   4.499   4.724   7.000 -1.1658 -0.3194  1.4453
  125OSM    H5G13345   4.656   4.649   7.019 -1.9625  1.2047  2.8484
  125OSM    C6F13346   4.481   4.524   7.088  0.3611 -0.0314 -0.1708
  125OSM    H6F13347   4.540   4.431   7.102  0.2417  0.1363  1.4969
  125OSM    H6G13348   4.387   4.492   7.038  0.4867 -3.6398  1.7117
  125OSM    C7F13349   4.460   4.567   7.230 -0.0132  0.5674 -0.0826
  125OSM    H7F13350   4.415   4.667   7.214 -1.9342 -0.2877 -0.2430
  125OSM    H7G13351   4.551   4.573   7.293  0.4453  1.3559 -0.8275
  125OSM    C8F13352   4.355   4.483   7.301  0.3839 -0.0497  0.0098
  125OSM    H8F13353   4.254   4.492   7.255 -0.8738  2.3888  3.0610
  125OSM    H8G13354   4.331   4.521   7.402 -0.1493  0.6790 -0.3810
  125OSM    C9F13355   4.397   4.335   7.295  0.5015 -0.7352 -0.1160
  125OSM    H9F13356   4.377   4.285   7.199 -0.8824 -0.2218 -0.0920
  125OSM   C10F13357   4.452   4.260   7.393 -1.0509  0.3418 -0.1192
  125OSM   H10F13358   4.474   4.153   7.379 -2.9810  0.1155 -1.5549
  125OSM   C11F13359   4.485   4.314   7.531 -0.0273  0.4400 -0.6656
  125OSM   H11F13360   4.516   4.420   7.513 -1.3234  0.6616 -1.6789
  125OSM   H11G13361   4.574   4.264   7.573  0.1436  0.2160 -1.2997
  125OSM   C12F13362   4.369   4.307   7.633 -0.0767  0.1564  0.9083
  125OSM   H12F13363   4.364   4.200   7.662  0.8890  0.1094  0.9005
  125OSM   H12G13364   4.273   4.332   7.583 -0.1754 -0.3840  0.8189
  125OSM   C13F13365   4.370   4.394   7.754 -0.6294 -0.4979  0.0079
  125OSM   H13F13366   4.476   4.393   7.789  0.4437 -2.3218 -3.0383
  125OSM   H13G13367   4.300   4.362   7.835  0.5757  0.7735  1.5969
  125OSM   C14F13368   4.334   4.537   7.719  0.2617  0.5971  0.2569
  125OSM   H14F13369   4.233   4.540   7.673  0.4891 -0.4338 -0.3195
  125OSM   H14G13370   4.397   4.580   7.638 -0.7313 -2.3479 -2.1940
  125OSM   C15F13371   4.336   4.626   7.839 -0.0290  0.8653 -0.3558
  125OSM   H15F13372   4.324   4.731   7.806 -1.1937  1.1985  1.0871
  125OSM   H15G13373   4.435   4.623   7.891 -0.2079  1.9061  0.0649
  125OSM   C16F13374   4.236   4.593   7.947  0.3433 -0.0725  0.0703
  125OSM   H16F13375   4.269   4.499   7.996  1.8241  1.1800  1.5207
  125OSM   H16G13376   4.133   4.589   7.906  0.1318  4.4244 -0.0945
  125OSM   C17F13377   4.227   4.704   8.057 -0.7394 -0.0401  0.4018
  125OSM   H17F13378   4.176   4.793   8.015 -0.7629 -0.0166  0.4799
  125OSM   H17G13379   4.328   4.736   8.091  0.1511 -0.6721 -1.5257
  125OSM   C18F13380   4.154   4.654   8.185 -0.6598 -0.1440  0.0971
  125OSM   H18F13381   4.123   4.745   8.241 -1.1529 -0.6035  0.5699
  125OSM   H18G13382   4.215   4.586   8.248 -0.9875 -2.2494 -1.7971
  125OSM   H18H13383   4.058   4.612   8.151 -0.3941  1.1237 -2.3136
  126OSM      N13384   1.563   2.264   6.501 -0.3642  0.1307  0.7141
  126OSM    C1513385   1.564   2.130   6.424 -0.7406  0.4861  0.5814
  126OSM   H15A13386   1.515   2.047   6.472  0.2579 -0.1128  0.5900
  126OSM   H15B13387   1.667   2.099   6.418 -0.6821  0.7525  0.1293
  126OSM   H15C13388   1.524   2.142   6.324  1.2615 -2.3107 -0.6310
  126OSM    C1413389   1.663   2.247   6.612  0.1632 -0.1100 -0.2466
  126OSM   H14A13390   1.759   2.205   6.587 -0.7542 -2.1977 -0.4349
  126OSM   H14B13391   1.627   2.164   6.671 -0.1301  0.6273  0.6114
  126OSM   H14C13392   1.680   2.332   6.676  0.8307 -0.2432 -0.2466
  126OSM    C1313393   1.621   2.374   6.421 -0.3177 -0.0694  0.5781
  126OSM   H13A13394   1.713   2.348   6.371  0.7601  0.2725  2.3460
  126OSM   H13B13395   1.635   2.456   6.489  2.8619  0.6174 -0.7833
  126OSM   H13C13396   1.551   2.410   6.347  1.0348  0.2785 -0.5575
  126OSM    C1213397   1.425   2.294   6.556 -0.2090  0.4503  0.5995
  126OSM   H12A13398   1.422   2.375   6.627 -3.8708 -1.3973  2.7589
  126OSM   H12B13399   1.393   2.207   6.612 -2.0548  2.0548  2.1318
  126OSM    C1113400   1.319   2.319   6.440 -0.1811 -0.1982  0.1401
  126OSM   H11A13401   1.219   2.319   6.488 -0.1689  0.8311  0.1824
  126OSM   H11B13402   1.338   2.242   6.362 -0.8238  0.3200 -0.5446
  126OSM      P13403   1.312   2.579   6.453 -0.5790  0.2439  0.4098
  126OSM    O1313404   1.388   2.684   6.380  0.4242  0.1812 -0.5029
  126OSM    O1413405   1.164   2.581   6.458  0.4406 -0.0391  0.3429
  126OSM    O1113406   1.367   2.570   6.606 -0.4164 -0.1170 -0.2428
  126OSM    O1213407   1.345   2.445   6.386 -0.0333 -0.3856  0.3942
  126OSM    C1S13408   1.266   2.594   6.701 -0.3565  0.1302 -0.6338
  126OSM    H1S13409   1.200   2.505   6.711 -3.0993  2.3714  1.8168
  126OSM    H1T13410   1.201   2.682   6.684  2.3973  2.2731 -0.4816
  126OSM     NF13411   1.233   2.600   6.936  0.6840 -0.1374 -0.2689
  126OSM    HNF13412   1.200   2.681   6.983  4.7010  1.3351  0.1885
  126OSM    C2S13413   1.332   2.615   6.836 -0.0781 -0.2999  0.1669
  126OSM    H2S13414   1.413   2.541   6.859 -0.8261 -0.4699  2.4165
  126OSM    C3S13415   1.396   2.762   6.832 -0.2647 -0.3470  0.3087
  126OSM    H3S13416   1.314   2.833   6.810 -2.7598 -2.3980  2.6200
  126OSM     O313417   1.499   2.775   6.734 -0.2407  0.0572  0.5441
  126OSM    HO313418   1.466   2.723   6.661  1.5316 -0.7121  0.2725
  126OSM    C4S13419   1.446   2.811   6.963 -0.5368 -0.7037  0.0279
  126OSM    H4S13420   1.376   2.883   7.006  0.3354  1.1307 -1.5418
  126OSM    C5S13421   1.564   2.808   7.029  0.4647 -0.3338  0.7165
  126OSM    H5S13422   1.657   2.770   6.984 -1.2946 -1.5809 -1.9855
  126OSM    C6S13423   1.581   2.875   7.167  0.3700  0.5198 -0.3812
  126OSM    H6S13424   1.507   2.958   7.175 -2.9884 -2.3277 -0.7575
  126OSM    H6T13425   1.677   2.931   7.163  0.5521  0.2478  0.1605
  126OSM    C7S13426   1.605   2.777   7.294 -0.4214 -0.5711 -0.2526
  126OSM    H7S13427   1.690   2.713   7.264 -0.9607 -2.4285  2.0338
  126OSM    H7T13428   1.515   2.712   7.301 -1.7591  0.8359 -3.3519
  126OSM    C8S13429   1.633   2.853   7.423 -0.2885  0.6226  0.3386
  126OSM    H8S13430   1.545   2.913   7.456 -0.6225 -0.2197  0.9923
  126OSM    H8T13431   1.714   2.926   7.404  1.2315 -1.3858 -0.9973
  126OSM    C9S13432   1.669   2.754   7.534 -0.3145 -0.9596  0.1998
  126OSM    H9S13433   1.757   2.698   7.496 -0.9018  0.2892 -3.1773
  126OSM    H9T13434   1.586   2.681   7.541  0.5865 -1.7990  2.9020
  126OSM   C10S13435   1.699   2.823   7.666 -0.5219 -0.2025  0.2537
  126OSM   H10S13436   1.631   2.907   7.692  0.0197 -0.1785  1.6542
  126OSM   H10T13437   1.805   2.855   7.655 -0.4782 -1.3736 -3.1023
  126OSM   C11S13438   1.693   2.723   7.785 -0.1570  0.5130  0.4522
  126OSM   H11S13439   1.770   2.643   7.784 -0.2160  0.4575 -0.5049
  126OSM   H11T13440   1.594   2.674   7.775  1.5163 -2.9737  0.1609
  126OSM   C12S13441   1.696   2.799   7.910 -0.7833 -0.0103 -0.8042
  126OSM   H12S13442   1.621   2.881   7.916  0.0761  0.6374  2.6073
  126OSM   H12T13443   1.799   2.840   7.911 -1.1769  1.0373 -2.1416
  126OSM   C13S13444   1.685   2.708   8.035 -0.3399  0.0674  0.3103
  126OSM   H13S13445   1.762   2.628   8.027 -1.2407 -0.6218 -1.8822
  126OSM   H13T13446   1.580   2.670   8.042 -0.0284 -0.8236  0.2514
  126OSM   C14S13447   1.702   2.787   8.160  0.2583 -0.0480 -0.6245
  126OSM   H14S13448   1.613   2.854   8.168  1.0705  0.7382  2.3732
  126OSM   H14T13449   1.795   2.848   8.155  0.5411 -0.4027  0.2573
  126OSM   C15S13450   1.702   2.697   8.280 -0.8033 -0.2471 -1.0049
  126OSM   H15S13451   1.798   2.640   8.284 -1.0434 -0.5044  2.0321
  126OSM   H15T13452   1.615   2.628   8.278 -2.3721  1.6279  0.8177
  126OSM   C16S13453   1.699   2.784   8.406 -0.5053 -0.2675  0.7433
  126OSM   H16S13454   1.616   2.858   8.406  0.3451  0.7040  0.7055
  126OSM   H16T13455   1.794   2.841   8.416 -0.0159 -1.1003  0.8829
  126OSM   C17S13456   1.695   2.707   8.540 -0.0266 -0.0684  0.3985
  126OSM   H17S13457   1.708   2.779   8.624 -0.5355  0.7073 -0.1798
  126OSM   H17T13458   1.782   2.640   8.554 -1.1007 -1.7933 -0.9369
  126OSM   C18S13459   1.569   2.623   8.572  0.9432  0.0399  0.4825
  126OSM   H18S13460   1.477   2.685   8.562  0.6888 -0.3521  0.3725
  126OSM   H18T13461   1.557   2.579   8.673  0.6589 -0.2115  0.3405
  126OSM   H18U13462   1.566   2.532   8.508  1.5361  0.2980  0.0845
  126OSM    C1F13463   1.176   2.483   6.965 -0.1207 -0.0907  0.4626
  126OSM     OF13464   1.247   2.385   6.953  0.4810  0.1720 -0.2394
  126OSM    C2F13465   1.029   2.479   6.996  0.0665 -0.4516  0.5161
  126OSM    H2F13466   0.988   2.447   6.898  1.6009  1.1344 -0.6910
  126OSM    H2G13467   0.991   2.580   7.023  0.9825  0.1912 -0.5319
  126OSM    C3F13468   0.994   2.369   7.098 -0.1874 -0.2510  0.2786
  126OSM    H3F13469   1.037   2.268   7.080  0.5354 -0.3468  2.4217
  126OSM    H3G13470   0.883   2.366   7.096 -0.2107  0.5647 -0.3895
  126OSM    C4F13471   1.044   2.394   7.243  0.0617 -0.5659  0.2458
  126OSM    H4F13472   1.028   2.501   7.269  1.6324 -0.0816 -0.7465
  126OSM    H4G13473   1.152   2.369   7.254  0.0265 -1.5950 -1.6348
  126OSM    C5F13474   0.954   2.316   7.340 -0.5005  0.1790  0.2039
  126OSM    H5F13475   0.941   2.213   7.303 -0.3448 -0.1990  1.1721
  126OSM    H5G13476   0.846   2.343   7.340 -1.3618 -3.0822  0.1485
  126OSM    C6F13477   0.998   2.318   7.484 -0.2364 -0.2660  0.2239
  126OSM    H6F13478   0.998   2.426   7.511  0.1042  0.1989 -1.5938
  126OSM    H6G13479   1.097   2.269   7.489 -1.2496 -2.4034 -0.4078
  126OSM    C7F13480   0.893   2.246   7.572 -0.6234  0.0539 -0.6268
  126OSM    H7F13481   0.875   2.141   7.541  1.8453 -0.6241  0.0354
  126OSM    H7G13482   0.794   2.293   7.560 -0.3020  1.0686  0.5901
  126OSM    C8F13483   0.935   2.255   7.722 -0.4738 -0.2180  0.1165
  126OSM    H8F13484   0.969   2.360   7.736  1.9767 -0.7853 -1.3939
  126OSM    H8G13485   1.024   2.191   7.741 -0.1505  0.7017  1.8549
  126OSM    C9F13486   0.822   2.208   7.807 -0.3104  1.0296 -0.3090
  126OSM    H9F13487   0.816   2.098   7.808 -0.5667  1.0360 -0.8913
  126OSM   C10F13488   0.735   2.283   7.877  0.3851  0.6452 -0.0735
  126OSM   H10F13489   0.647   2.234   7.923 -1.7026  2.2933 -2.1857
  126OSM   C11F13490   0.723   2.434   7.899 -0.1657  0.0754  0.0796
  126OSM   H11F13491   0.623   2.463   7.860  0.1594 -0.0855 -0.8824
  126OSM   H11G13492   0.794   2.485   7.830  0.3048 -0.4983  0.1445
  126OSM   C12F13493   0.763   2.489   8.036  0.0368 -0.1774  0.7129
  126OSM   H12F13494   0.680   2.457   8.102  0.0578  0.6007  1.1193
  126OSM   H12G13495   0.746   2.598   8.022  3.3277  0.0378 -2.3755
  126OSM   C13F13496   0.907   2.461   8.073 -0.3578 -0.6266 -0.0629
  126OSM   H13F13497   0.927   2.544   8.143  0.4357 -0.9948  0.1538
  126OSM   H13G13498   0.983   2.474   7.993 -0.6178 -1.4960 -0.4694
  126OSM   C14F13499   0.926   2.334   8.154 -0.1657 -0.2432  0.3054
  126OSM   H14F13500   0.901   2.253   8.083 -0.8398  1.2824 -1.2359
  126OSM   H14G13501   0.863   2.338   8.246  0.3798  0.4506  0.6570
  126OSM   C15F13502   1.071   2.325   8.208 -0.3147  0.4034 -0.7038
  126OSM   H15F13503   1.095   2.430   8.235  1.3501 -0.4537  1.3244
  126OSM   H15G13504   1.137   2.292   8.126 -0.4573 -2.5774  0.3288
  126OSM   C16F13505   1.081   2.239   8.338  1.0478 -0.4528  0.0582
  126OSM   H16F13506   1.056   2.133   8.317 -2.2915  0.3081 -0.0850
  126OSM   H16G13507   1.009   2.262   8.420  0.1276  0.5189 -0.9944
  126OSM   C17F13508   1.217   2.216   8.397  0.3535 -0.0699 -0.0718
  126OSM   H17F13509   1.288   2.195   8.314  0.7018 -0.8495  0.4153
  126OSM   H17G13510   1.207   2.146   8.483 -0.3519 -0.6729 -0.6375
  126OSM   C18F13511   1.268   2.345   8.468 -0.0710 -0.1379 -0.2723
  126OSM   H18F13512   1.371   2.322   8.505  0.0020 -1.9070 -1.5045
  126OSM   H18G13513   1.201   2.388   8.545 -0.3785  0.0952 -0.6650
  126OSM   H18H13514   1.279   2.429   8.396  1.7995  1.2856  1.6098
  127OSM      N13515   0.085   4.230   6.240 -0.7543 -0.0206 -0.2799
  127OSM    C1513516   0.126   4.343   6.145  0.8618  0.2198 -0.8797
  127OSM   H15A13517   0.202   4.315   6.073  0.5170 -1.4576 -0.6192
  127OSM   H15B13518   0.147   4.432   6.202  1.4257  2.2860 -4.1931
  127OSM   H15C13519   0.040   4.369   6.085  0.8784 -0.7709 -1.3414
  127OSM    C1413520   0.052   4.101   6.158 -0.2227 -0.1395 -0.2311
  127OSM   H14A13521  -0.047   4.102   6.114 -0.3034  2.0295 -0.0670
  127OSM   H14B13522   0.054   4.017   6.226  1.4552  0.5328  0.5735
  127OSM   H14C13523   0.117   4.094   6.072  2.0752  1.3790  1.3164
  127OSM    C1313524   0.192   4.192   6.331 -0.7082  0.6982  0.0787
  127OSM   H13A13525   0.148   4.128   6.406  1.6540  1.8277  2.5174
  127OSM   H13B13526   0.229   4.282   6.379  1.1670  0.5693 -1.0724
  127OSM   H13C13527   0.273   4.139   6.283 -1.4897 -0.8594  0.4478
  127OSM    C1213528  -0.041   4.272   6.320 -0.6808 -0.1362 -0.0945
  127OSM   H12A13529  -0.009   4.346   6.391 -1.8479  0.2203  0.0815
  127OSM   H12B13530  -0.089   4.190   6.372  0.2998 -0.4809  0.2676
  127OSM    C1113531  -0.154   4.338   6.235  0.2163 -0.2030  0.0850
  127OSM   H11A13532  -0.111   4.414   6.167 -1.1364  1.4134  0.9723
  127OSM   H11B13533  -0.228   4.387   6.303 -0.3565 -4.4663  2.6750
  127OSM      P13534  -0.306   4.123   6.241 -0.2056  0.5134  0.8041
  127OSM    O1313535  -0.447   4.163   6.220  0.3078 -0.2901 -0.2669
  127OSM    O1413536  -0.265   3.989   6.199 -0.4821 -0.1625  0.4703
  127OSM    O1113537  -0.267   4.140   6.397 -0.4596 -0.1465  0.7404
  127OSM    O1213538  -0.217   4.233   6.165  0.0625  0.1751  0.0014
  127OSM    C1S13539  -0.293   4.038   6.495  0.8559 -0.1346  0.1549
  127OSM    H1S13540  -0.203   3.974   6.509  1.2188 -0.1882 -2.2168
  127OSM    H1T13541  -0.371   3.966   6.460  2.1612 -1.4605 -0.0763
  127OSM     NF13542  -0.368   4.005   6.728  0.6513  0.0732 -0.1712
  127OSM    HNF13543  -0.463   3.977   6.717  0.7506 -0.7551  0.9291
  127OSM    C2S13544  -0.327   4.102   6.633  0.2117 -0.1175  0.8571
  127OSM    H2S13545  -0.235   4.155   6.667  0.4455 -1.3095  2.1505
  127OSM    C3S13546  -0.441   4.208   6.607 -0.0360  0.2114 -0.2978
  127OSM    H3S13547  -0.537   4.163   6.574 -1.2686  2.1703  0.5512
  127OSM     O313548  -0.401   4.316   6.521  0.5763 -0.3870  0.3025
  127OSM    HO313549  -0.356   4.272   6.449 -0.6080 -0.5557 -0.3604
  127OSM    C4S13550  -0.477   4.266   6.743  0.5463  0.1957 -1.0510
  127OSM    H4S13551  -0.556   4.211   6.797  0.9710  0.3898 -0.2257
  127OSM    C5S13552  -0.424   4.371   6.807 -0.3734  0.4198 -1.0593
  127OSM    H5S13553  -0.346   4.433   6.763  2.1439 -0.8238  1.4432
  127OSM    C6S13554  -0.473   4.409   6.943  0.6318 -0.3632  1.0090
  127OSM    H6S13555  -0.570   4.462   6.931 -0.1046 -1.7907  0.4942
  127OSM    H6T13556  -0.396   4.478   6.983 -1.0496  2.4058 -0.4117
  127OSM    C7S13557  -0.488   4.296   7.046 -0.8096 -1.1654  0.6529
  127OSM    H7S13558  -0.389   4.248   7.056  1.7843  3.2316 -2.0205
  127OSM    H7T13559  -0.559   4.213   7.025  0.4818 -1.8278 -1.3228
  127OSM    C8S13560  -0.517   4.348   7.192  0.5413  0.2137 -0.7538
  127OSM    H8S13561  -0.620   4.388   7.204  0.9625  0.7683  1.0788
  127OSM    H8T13562  -0.452   4.431   7.224  1.1606 -0.1490 -1.0659
  127OSM    C9S13563  -0.511   4.246   7.311 -0.2976 -0.4313  0.2031
  127OSM    H9S13564  -0.418   4.186   7.305  2.0394  3.1153 -0.8431
  127OSM    H9T13565  -0.597   4.177   7.298  0.4655 -1.2685 -0.4091
  127OSM   C10S13566  -0.516   4.313   7.450  0.2374  0.2117 -0.0159
  127OSM   H10S13567  -0.580   4.403   7.433 -0.8763 -0.5484  0.0954
  127OSM   H10T13568  -0.412   4.343   7.476  0.1952 -1.6389  2.4192
  127OSM   C11S13569  -0.566   4.224   7.563 -0.7202 -0.1697 -0.2138
  127OSM   H11S13570  -0.654   4.163   7.536 -2.7999  2.5106  0.2793
  127OSM   H11T13571  -0.615   4.288   7.640  1.2929  0.6940  0.3830
  127OSM   C12S13572  -0.456   4.130   7.612  0.4325 -0.8138  0.2115
  127OSM   H12S13573  -0.362   4.189   7.621 -0.5697  0.7696  0.6057
  127OSM   H12T13574  -0.441   4.061   7.527 -0.9233  1.0223 -1.5538
  127OSM   C13S13575  -0.501   4.056   7.744  0.6461  0.0282  0.0057
  127OSM   H13S13576  -0.592   4.000   7.714  0.6035 -0.6451  1.3102
  127OSM   H13T13577  -0.526   4.131   7.822  0.0798  0.7500 -0.8715
  127OSM   C14S13578  -0.399   3.962   7.801 -0.2309 -0.2789  0.0570
  127OSM   H14S13579  -0.319   4.029   7.839  0.3217  0.1061 -1.7558
  127OSM   H14T13580  -0.359   3.896   7.722 -0.4416 -2.2575  1.5495
  127OSM   C15S13581  -0.447   3.875   7.919  0.0256  0.0876  0.0833
  127OSM   H15S13582  -0.531   3.815   7.878  0.8214 -1.2219  0.3486
  127OSM   H15T13583  -0.485   3.929   8.008 -3.0665 -0.4844 -0.8301
  127OSM   C16S13584  -0.344   3.774   7.973  0.5315  0.0997 -0.3769
  127OSM   H16S13585  -0.412   3.710   8.034  1.3830 -0.4441  0.0043
  127OSM   H16T13586  -0.272   3.821   8.043 -0.6816  1.4212  0.0252
  127OSM   C17S13587  -0.273   3.679   7.876  0.3727  0.7048  0.1977
  127OSM   H17S13588  -0.205   3.606   7.926 -0.6728  0.7224  1.6759
  127OSM   H17T13589  -0.209   3.732   7.803  1.7031 -0.4661  0.4939
  127OSM   C18S13590  -0.365   3.586   7.801  0.7332 -0.4088 -0.0335
  127OSM   H18S13591  -0.431   3.530   7.872  0.4251  2.2990  1.8824
  127OSM   H18T13592  -0.309   3.508   7.746  0.2813  0.4025 -1.6571
  127OSM   H18U13593  -0.429   3.655   7.743  0.3381  2.1648  3.2846
  127OSM    C1F13594  -0.281   3.918   6.778  0.0888 -0.1726 -0.1545
  127OSM     OF13595  -0.162   3.950   6.775  0.0719  0.2470 -0.4661
  127OSM    C2F13596  -0.322   3.773   6.810 -0.3565 -0.6401  0.9387
  127OSM    H2F13597  -0.245   3.707   6.764 -0.8480 -0.2886 -0.4058
  127OSM    H2G13598  -0.418   3.741   6.766 -0.6314  1.4844 -0.0688
  127OSM    C3F13599  -0.319   3.744   6.962 -0.0374  0.2344  1.0415
  127OSM    H3F13600  -0.215   3.716   6.992  0.4479 -0.4741 -1.2062
  127OSM    H3G13601  -0.375   3.650   6.979 -1.0749  0.6024 -0.3006
  127OSM    C4F13602  -0.372   3.852   7.056  0.1330 -0.4845  0.1085
  127OSM    H4F13603  -0.467   3.892   7.015  0.2713 -1.6356 -1.3715
  127OSM    H4G13604  -0.306   3.939   7.076 -0.3580  0.3226 -1.6547
  127OSM    C5F13605  -0.412   3.768   7.181  0.2886  0.1463  0.2356
  127OSM    H5F13606  -0.346   3.683   7.208  0.0417  0.4667  1.8624
  127OSM    H5G13607  -0.507   3.717   7.157  1.0852 -2.5925  2.6966
  127OSM    C6F13608  -0.435   3.865   7.300 -0.2098  0.1336  0.3295
  127OSM    H6F13609  -0.531   3.920   7.286  0.1250  0.1204 -2.2659
  127OSM    H6G13610  -0.362   3.948   7.306 -1.2500  1.0240  0.7731
  127OSM    C7F13611  -0.442   3.792   7.433 -0.0795 -0.4029 -0.8640
  127OSM    H7F13612  -0.506   3.843   7.508  0.2049 -4.3237  2.1938
  127OSM    H7G13613  -0.337   3.776   7.463  0.3385 -0.6684 -2.3919
  127OSM    C8F13614  -0.507   3.645   7.421 -0.2821  0.4223  0.6421
  127OSM    H8F13615  -0.484   3.608   7.523 -0.4722 -0.2135  0.4543
  127OSM    H8G13616  -0.450   3.574   7.357  0.3026  0.4321  1.1423
  127OSM    C9F13617  -0.656   3.647   7.395 -0.7316  0.0343 -0.5623
  127OSM    H9F13618  -0.687   3.692   7.300  1.6097 -2.2202 -2.4727
  127OSM   C10F13619  -0.753   3.609   7.479  0.5459  0.3836  0.5783
  127OSM   H10F13620  -0.855   3.609   7.438  0.2869 -0.4307  1.2070
  127OSM   C11F13621  -0.735   3.548   7.615  0.0475  0.2688  0.7262
  127OSM   H11F13622  -0.627   3.534   7.638  0.7040  2.3494 -0.8561
  127OSM   H11G13623  -0.793   3.454   7.612  0.9610 -0.2935  0.0514
  127OSM   C12F13624  -0.781   3.635   7.733  1.0222  0.4818  0.3846
  127OSM   H12F13625  -0.891   3.653   7.724  0.6997 -1.8812 -0.9788
  127OSM   H12G13626  -0.728   3.732   7.725  2.0451 -0.2683 -2.5938
  127OSM   C13F13627  -0.743   3.581   7.872 -0.1912 -0.5618 -0.0439
  127OSM   H13F13628  -0.641   3.619   7.891 -0.4773 -0.9403  2.4347
  127OSM   H13G13629  -0.741   3.472   7.851  3.6399 -0.5847  0.2035
  127OSM   C14F13630  -0.849   3.613   7.971  0.0249  0.1702 -0.3998
  127OSM   H14F13631  -0.952   3.577   7.948  1.2613 -3.8108  0.0273
  127OSM   H14G13632  -0.848   3.724   7.979 -2.2577  0.2299 -0.5650
  127OSM   C15F13633  -0.810   3.579   8.109  0.3969  0.4252 -0.5729
  127OSM   H15F13634  -0.730   3.503   8.101 -0.0487  0.0423 -1.3924
  127OSM   H15G13635  -0.897   3.529   8.157  0.9904  0.9809  1.1591
  127OSM   C16F13636  -0.771   3.699   8.192 -0.0413  0.5150 -0.6768
  127OSM   H16F13637  -0.850   3.777   8.183 -0.4458  0.0943 -0.7449
  127OSM   H16G13638  -0.683   3.750   8.148 -0.8618  2.7426  0.1842
  127OSM   C17F13639  -0.740   3.659   8.340  0.3759 -0.0305  0.4118
  127OSM   H17F13640  -0.833   3.615   8.382  1.6776 -0.8241  2.5488
  127OSM   H17G13641  -0.718   3.746   8.406  0.7940 -1.1674  1.7922
  127OSM   C18F13642  -0.628   3.555   8.363 -0.2762 -0.1901 -0.0246
  127OSM   H18F13643  -0.624   3.531   8.471  1.9911  0.6728  0.1261
  127OSM   H18G13644  -0.527   3.592   8.332 -0.4571 -0.3025 -0.7542
  127OSM   H18H13645  -0.652   3.464   8.305  0.4429  0.2010 -0.9718
  128OSM      N13646   0.207   0.506   5.752  0.5476  0.0925 -0.3375
  128OSM    C1513647   0.339   0.446   5.734 -0.5405  0.0046 -0.5445
  128OSM   H15A13648   0.409   0.527   5.748  0.7426 -1.1196 -0.3669
  128OSM   H15B13649   0.351   0.411   5.633  0.3023  0.0544 -0.4700
  128OSM   H15C13650   0.361   0.371   5.809 -2.1058 -0.8741 -0.9460
  128OSM    C1413651   0.202   0.630   5.666 -0.5770 -0.1381 -0.3368
  128OSM   H14A13652   0.118   0.691   5.698 -1.3785 -1.9462  1.1099
  128OSM   H14B13653   0.194   0.612   5.559 -0.5728 -0.9843 -0.1993
  128OSM   H14C13654   0.290   0.688   5.689 -0.3241  0.6417 -3.0340
  128OSM    C1313655   0.095   0.418   5.694 -0.5151  0.2088 -0.8883
  128OSM   H13A13656   0.086   0.330   5.756  0.5965 -0.7731 -2.0883
  128OSM   H13B13657   0.126   0.378   5.599 -0.5315 -0.5196 -0.5968
  128OSM   H13C13658   0.002   0.473   5.694 -0.9649 -0.4931  1.0841
  128OSM    C1213659   0.179   0.544   5.897 -0.4106  0.4087  0.1845
  128OSM   H12A13660   0.243   0.623   5.934  1.3581 -1.1466  0.5778
  128OSM   H12B13661   0.207   0.455   5.953  2.0430  0.6282 -0.6088
  128OSM    C1113662   0.030   0.574   5.933 -0.0631 -0.7628  0.4081
  128OSM   H11A13663  -0.022   0.475   5.935 -0.1755 -0.6936  2.1261
  128OSM   H11B13664  -0.009   0.631   5.846  1.6901 -0.5695 -0.2607
  128OSM      P13665  -0.042   0.780   6.079  0.0901 -0.2162  0.8542
  128OSM    O1313666   0.013   0.847   6.197  0.0097 -0.1692 -0.1083
  128OSM    O1413667  -0.030   0.860   5.951 -0.6361  0.2363 -0.0999
  128OSM    O1113668  -0.194   0.740   6.093  0.1718  0.6331  0.5523
  128OSM    O1213669   0.043   0.647   6.055 -0.2107 -0.6767 -0.7553
  128OSM    C1S13670  -0.231   0.630   6.175 -0.2131 -0.8813  0.4511
  128OSM    H1S13671  -0.150   0.554   6.183  0.0605 -0.5846  0.4922
  128OSM    H1T13672  -0.317   0.581   6.123 -0.3817 -1.0468  0.8849
  128OSM     NF13673  -0.262   0.569   6.413 -0.5418 -0.6238 -0.3212
  128OSM    HNF13674  -0.349   0.523   6.434  0.1860 -1.5912  0.6358
  128OSM    C2S13675  -0.258   0.686   6.321  0.2597  0.2897  0.3143
  128OSM    H2S13676  -0.170   0.750   6.341  1.6662 -1.7747  0.8452
  128OSM    C3S13677  -0.388   0.766   6.323  0.3311  0.0603  0.5989
  128OSM    H3S13678  -0.470   0.697   6.295  0.3433  0.3440 -0.1374
  128OSM     O313679  -0.397   0.878   6.236 -0.0664  0.0631  0.0010
  128OSM    HO313680  -0.333   0.856   6.168  1.5249  2.6577  0.5955
  128OSM    C4S13681  -0.410   0.821   6.460  0.7880 -0.2504 -0.2096
  128OSM    H4S13682  -0.335   0.893   6.495  1.4950 -0.7615 -0.6591
  128OSM    C5S13683  -0.517   0.773   6.535  0.0096  0.2174  0.0700
  128OSM    H5S13684  -0.574   0.683   6.508  0.1968  0.3046 -0.6147
  128OSM    C6S13685  -0.550   0.819   6.678  0.4990 -0.0814 -0.2844
  128OSM    H6S13686  -0.492   0.911   6.701  0.8524 -0.7998  1.8401
  128OSM    H6T13687  -0.507   0.741   6.746  1.2685 -1.1313 -1.9200
  128OSM    C7S13688  -0.702   0.828   6.673  0.6417  0.6333  0.2473
  128OSM    H7S13689  -0.754   0.737   6.636  2.1062 -0.0732 -0.1044
  128OSM    H7T13690  -0.734   0.896   6.592 -1.3516 -1.2643 -0.6309
  128OSM    C8S13691  -0.759   0.869   6.807  1.0441 -0.0443  0.3845
  128OSM    H8S13692  -0.848   0.930   6.782 -0.5687 -2.3145  0.4978
  128OSM    H8T13693  -0.685   0.937   6.855 -0.1951 -0.2405  2.6226
  128OSM    C9S13694  -0.784   0.758   6.911  0.8090  0.1300 -0.9741
  128OSM    H9S13695  -0.689   0.722   6.956  0.5664  2.7177  1.7851
  128OSM    H9T13696  -0.835   0.672   6.863 -0.0261  0.6046 -0.9581
  128OSM   C10S13697  -0.865   0.815   7.025  0.0725 -0.1594 -0.1636
  128OSM   H10S13698  -0.968   0.833   6.989  0.0537  1.1010  0.5097
  128OSM   H10T13699  -0.823   0.913   7.057 -1.4742  0.8158 -1.0575
  128OSM   C11S13700  -0.881   0.717   7.144  0.1484 -0.7505  0.0826
  128OSM   H11S13701  -0.793   0.651   7.127  1.0714  0.2738  0.8178
  128OSM   H11T13702  -0.968   0.649   7.142  1.1862 -2.1379  0.8634
  128OSM   C12S13703  -0.865   0.802   7.272 -0.0762 -0.4037  0.4184
  128OSM   H12S13704  -0.946   0.877   7.258  0.8819  0.8335  1.3450
  128OSM   H12T13705  -0.770   0.860   7.273 -0.8191  0.8451  0.0490
  128OSM   C13S13706  -0.880   0.720   7.399  0.5665  0.2927  1.0997
  128OSM   H13S13707  -0.798   0.644   7.408  1.3538  0.8866 -0.9061
  128OSM   H13T13708  -0.965   0.649   7.391  0.7239  0.4713 -2.6399
  128OSM   C14S13709  -0.906   0.813   7.522 -0.1564 -0.6708 -0.1248
  128OSM   H14S13710  -0.997   0.875   7.510 -1.1706 -1.4829  2.9351
  128OSM   H14T13711  -0.811   0.868   7.536 -0.3881 -0.3626  0.2441
  128OSM   C15S13712  -0.947   0.737   7.653 -0.1035 -0.2245  0.2311
  128OSM   H15S13713  -0.870   0.659   7.671  1.6115  0.9203 -1.9073
  128OSM   H15T13714  -1.045   0.685   7.642  2.1383 -4.6233 -0.3046
  128OSM   C16S13715  -0.954   0.838   7.771  0.0122 -0.5383  0.4979
  128OSM   H16S13716  -1.022   0.912   7.726 -1.8963 -2.2091  0.5672
  128OSM   H16T13717  -0.850   0.872   7.793  0.9183 -2.7465 -0.1903
  128OSM   C17S13718  -1.009   0.773   7.903  0.0936  0.5244  0.2460
  128OSM   H17S13719  -0.954   0.678   7.924 -1.6914 -0.9849 -1.5712
  128OSM   H17T13720  -1.114   0.743   7.879  0.4260 -0.2407 -0.2892
  128OSM   C18S13721  -1.016   0.855   8.028 -0.5696  0.4060  1.0850
  128OSM   H18S13722  -1.036   0.788   8.114 -0.0379 -1.0815  0.0889
  128OSM   H18T13723  -1.086   0.939   8.011  0.2571  0.6353 -1.5200
  128OSM   H18U13724  -0.914   0.898   8.035  0.1311 -1.1452  0.7750
  128OSM    C1F13725  -0.154   0.505   6.455  0.1697  0.2357 -0.0720
  128OSM     OF13726  -0.044   0.529   6.402  0.1630 -0.4482 -0.1141
  128OSM    C2F13727  -0.156   0.396   6.560 -0.9241  0.2540  0.3971
  128OSM    H2F13728  -0.148   0.295   6.516 -2.4334 -0.0207  0.7294
  128OSM    H2G13729  -0.256   0.392   6.608 -0.9200 -0.8445  0.3254
  128OSM    C3F13730  -0.034   0.417   6.656  0.7681  0.6213 -0.1115
  128OSM    H3F13731  -0.015   0.524   6.680  0.9495  0.4107  0.7223
  128OSM    H3G13732   0.046   0.383   6.587 -0.7577 -2.2690 -0.5344
  128OSM    C4F13733  -0.036   0.341   6.787 -0.1316  1.1447 -0.5038
  128OSM    H4F13734   0.064   0.353   6.835 -0.3420  1.7853 -0.2093
  128OSM    H4G13735  -0.054   0.233   6.772  0.8453  0.9259 -0.1567
  128OSM    C5F13736  -0.139   0.387   6.891  0.0532  0.1717 -0.5111
  128OSM    H5F13737  -0.241   0.369   6.850 -1.3398 -0.8365  3.1396
  128OSM    H5G13738  -0.130   0.496   6.910 -0.1064  0.5915 -2.7755
  128OSM    C6F13739  -0.117   0.306   7.021  0.4476  0.3741 -0.0468
  128OSM    H6F13740  -0.012   0.310   7.055  0.9248 -2.2981 -1.0989
  128OSM    H6G13741  -0.128   0.198   6.994 -1.4917  0.0652  1.8459
  128OSM    C7F13742  -0.211   0.358   7.134 -0.0974  0.1446  0.7243
  128OSM    H7F13743  -0.318   0.353   7.105  0.0164  1.5684  0.0391
  128OSM    H7G13744  -0.183   0.465   7.140 -0.8211  0.5085 -1.8203
  128OSM    C8F13745  -0.194   0.287   7.265  0.2396 -0.4899  0.5980
  128OSM    H8F13746  -0.093   0.321   7.295 -0.3883  1.5471  0.4285
  128OSM    H8G13747  -0.188   0.176   7.258 -1.0183 -0.6734  2.0935
  128OSM    C9F13748  -0.312   0.317   7.358  0.7429  0.4365 -0.4110
  128OSM    H9F13749  -0.386   0.376   7.302  1.2137  0.9061 -0.5372
  128OSM   C10F13750  -0.346   0.276   7.477 -0.4031  0.2788  0.8077
  128OSM   H10F13751  -0.434   0.318   7.528 -1.5902 -1.8849  0.6017
  128OSM   C11F13752  -0.262   0.181   7.556  0.1004 -0.4321  0.5227
  128OSM   H11F13753  -0.156   0.192   7.527 -1.1814  1.5602 -3.8983
  128OSM   H11G13754  -0.279   0.074   7.532 -1.1710 -0.2796  0.6864
  128OSM   C12F13755  -0.270   0.193   7.715 -0.0655  0.5020  0.0535
  128OSM   H12F13756  -0.373   0.169   7.748  0.7770 -0.9750  1.7367
  128OSM   H12G13757  -0.239   0.294   7.748  0.2625  0.6771 -0.7722
  128OSM   C13F13758  -0.162   0.097   7.776 -0.0000  0.3516 -0.2475
  128OSM   H13F13759  -0.066   0.099   7.721 -0.1168 -1.7895 -0.5983
  128OSM   H13G13760  -0.200  -0.007   7.766 -1.2605  0.5834  1.8998
  128OSM   C14F13761  -0.130   0.142   7.918  0.5471  0.6148  0.2483
  128OSM   H14F13762  -0.221   0.169   7.977 -1.4109 -2.5741 -1.1879
  128OSM   H14G13763  -0.063   0.230   7.927  1.7703 -0.4053  1.3175
  128OSM   C15F13764  -0.077   0.020   7.985  0.2057  0.3686 -0.6563
  128OSM   H15F13765   0.011  -0.023   7.935  0.0271  0.6861 -1.2446
  128OSM   H15G13766  -0.159  -0.056   7.987  0.1157  0.4694 -0.3889
  128OSM   C16F13767  -0.052   0.056   8.129 -0.0648  0.8282 -0.2628
  128OSM   H16F13768  -0.148   0.070   8.183  0.6742 -0.0185  1.3392
  128OSM   H16G13769  -0.001   0.154   8.144  1.7030 -0.2352  0.8341
  128OSM   C17F13770   0.026  -0.052   8.206 -0.3946 -0.0877 -0.2016
  128OSM   H17F13771   0.119  -0.074   8.149 -0.1391 -0.0840  0.2043
  128OSM   H17G13772  -0.035  -0.144   8.203 -1.3900  0.4907  1.3393
  128OSM   C18F13773   0.055  -0.021   8.357 -0.0378  0.0690  1.4861
  128OSM   H18F13774  -0.048  -0.014   8.398 -1.5270 -0.8035 -1.8791
  128OSM   H18G13775   0.099   0.080   8.370 -1.1178  1.2676 -3.0225
  128OSM   H18H13776   0.115  -0.093   8.416 -1.0900 -0.8150  1.5070
  129OSM      N13777   4.655   1.747   6.272  0.2930 -0.9063  0.0921
  129OSM    C1513778   4.511   1.723   6.321 -0.3446  0.1868  0.4963
  129OSM   H15A13779   4.443   1.721   6.237  0.0812  1.8744  0.0975
  129OSM   H15B13780   4.483   1.812   6.375 -0.1951  0.8990 -0.5817
  129OSM   H15C13781   4.511   1.627   6.371 -2.2296  1.0951  2.3237
  129OSM    C1413782   4.698   1.621   6.209  0.0619 -0.5015 -0.1249
  129OSM   H14A13783   4.711   1.544   6.283  2.4595 -0.3642 -0.3810
  129OSM   H14B13784   4.785   1.622   6.145 -0.0205  1.5971 -0.2097
  129OSM   H14C13785   4.621   1.581   6.144  1.8390 -3.2671 -0.6528
  129OSM    C1313786   4.666   1.861   6.171 -0.1435  0.4088 -0.6264
  129OSM   H13A13787   4.660   1.956   6.222  1.5960  1.1347 -1.6964
  129OSM   H13B13788   4.583   1.853   6.103  0.4747  0.1679 -1.3609
  129OSM   H13C13789   4.757   1.853   6.113  0.5101 -0.5785  0.5119
  129OSM    C1213790   4.748   1.773   6.390 -0.6611 -0.0708  0.0004
  129OSM   H12A13791   4.847   1.782   6.347 -0.7808 -1.4691 -0.5819
  129OSM   H12B13792   4.755   1.680   6.444  0.0998 -0.8926 -1.4699
  129OSM    C1113793   4.728   1.894   6.488  0.2869 -0.2832  0.0952
  129OSM   H11A13794   4.801   1.896   6.572  0.1948 -1.2573  0.2032
  129OSM   H11B13795   4.634   1.884   6.546  0.0443  0.7467 -0.1088
  129OSM      P13796   4.868   2.091   6.392 -0.2992 -0.3462 -0.7872
  129OSM    O1313797   4.975   1.996   6.367 -0.6049  0.0363 -0.0642
  129OSM    O1413798   4.865   2.190   6.282  0.0454  0.0544 -0.3857
  129OSM    O1113799   4.899   2.167   6.534  0.4260 -0.3627  0.0187
  129OSM    O1213800   4.729   2.019   6.415 -0.1087 -0.2510 -0.0958
  129OSM    C1S13801   4.866   2.313   6.536 -0.0997  0.3623  0.7648
  129OSM    H1S13802   4.762   2.326   6.498  0.1148 -1.2105 -0.4520
  129OSM    H1T13803   4.923   2.381   6.469  0.0229 -1.6520 -1.2569
  129OSM     NF13804   4.844   2.507   6.684  0.0337  0.0657 -0.0001
  129OSM    HNF13805   4.917   2.568   6.716 -1.4692  0.9259  1.8699
  129OSM    C2S13806   4.876   2.366   6.681 -0.2779  0.1379  0.2635
  129OSM    H2S13807   4.809   2.312   6.751 -0.3059  0.3875  0.4280
  129OSM    C3S13808   5.020   2.332   6.728 -0.1717 -0.1979  0.2101
  129OSM    H3S13809   5.103   2.358   6.659 -0.0016  0.4888  0.6779
  129OSM     O313810   5.053   2.199   6.745 -0.4218 -0.5455 -0.6352
  129OSM    HO313811   4.993   2.162   6.680 -1.9580  0.2545  0.2783
  129OSM    C4S13812   5.055   2.396   6.865 -0.1554 -0.7595 -0.0204
  129OSM    H4S13813   4.967   2.411   6.930 -1.8934  0.4828 -2.5925
  129OSM    C5S13814   5.176   2.446   6.899 -0.3120  0.3537 -0.5370
  129OSM    H5S13815   5.256   2.437   6.824 -0.0693 -0.1933 -0.2216
  129OSM    C6S13816   5.207   2.513   7.032  0.1332 -0.4643 -0.3150
  129OSM    H6S13817   5.160   2.614   7.030 -0.2536 -0.6135  0.8967
  129OSM    H6T13818   5.312   2.536   7.060  0.0429 -0.7549  0.2731
  129OSM    C7S13819   5.143   2.426   7.149 -0.0513  0.1093 -0.1935
  129OSM    H7S13820   5.192   2.329   7.124 -0.7660  0.0081 -1.2305
  129OSM    H7T13821   5.035   2.402   7.138 -0.2099  1.7206 -2.3485
  129OSM    C8S13822   5.163   2.466   7.293 -0.6628  0.2889  0.3434
  129OSM    H8S13823   5.274   2.477   7.294 -0.4106 -1.9744  1.9985
  129OSM    H8T13824   5.125   2.392   7.367  1.5775 -0.0289  1.2256
  129OSM    C9S13825   5.080   2.587   7.332  0.3989  0.3708  1.0031
  129OSM    H9S13826   4.974   2.562   7.349  0.4725 -0.5953  0.0995
  129OSM    H9T13827   5.080   2.660   7.249  1.3408 -0.6796  0.0675
  129OSM   C10S13828   5.120   2.653   7.471 -0.2213 -0.1923 -0.1186
  129OSM   H10S13829   5.229   2.674   7.462 -0.3995  0.1360 -1.6746
  129OSM   H10T13830   5.101   2.576   7.549  1.8238  0.2830  0.8833
  129OSM   C11S13831   5.028   2.770   7.492  0.6416  0.0016 -0.3552
  129OSM   H11S13832   4.922   2.738   7.492  0.3397  0.9763 -1.6644
  129OSM   H11T13833   5.040   2.834   7.402 -0.6385  3.1261  1.5985
  129OSM   C12S13834   5.054   2.843   7.628 -0.1098 -0.7219 -0.7291
  129OSM   H12S13835   4.992   2.935   7.622 -1.2063 -1.2804  1.4321
  129OSM   H12T13836   5.161   2.870   7.632  0.1376 -1.8201  0.2292
  129OSM   C13S13837   5.015   2.764   7.753 -0.0681 -0.5015  0.6881
  129OSM   H13S13838   5.089   2.682   7.766 -0.0639 -0.7544 -0.7605
  129OSM   H13T13839   4.919   2.712   7.733  0.1349 -0.7439  0.3342
  129OSM   C14S13840   5.008   2.848   7.886 -0.4398 -0.2584  0.1398
  129OSM   H14S13841   4.986   2.955   7.871  0.6273  0.2861  2.3051
  129OSM   H14T13842   5.108   2.848   7.936  0.4050  2.3283 -1.4443
  129OSM   C15S13843   4.911   2.780   7.988 -0.1243 -0.0756  0.7163
  129OSM   H15S13844   4.939   2.673   7.994 -0.9623 -0.3766 -0.6398
  129OSM   H15T13845   4.814   2.784   7.935 -0.8202 -1.3193  1.8572
  129OSM   C16S13846   4.902   2.856   8.126 -0.4516  0.4712 -0.2088
  129OSM   H16S13847   4.795   2.880   8.141 -0.4645  0.0793  0.3362
  129OSM   H16T13848   4.950   2.951   8.096 -0.0161 -0.1869 -1.7022
  129OSM   C17S13849   4.960   2.783   8.244  0.1969  0.4546 -0.1518
  129OSM   H17S13850   4.988   2.855   8.324 -1.0017  1.8575 -0.9446
  129OSM   H17T13851   5.059   2.737   8.223  0.3429 -0.7756  2.9370
  129OSM   C18S13852   4.862   2.670   8.295 -0.4501 -0.8408  0.1056
  129OSM   H18S13853   4.853   2.587   8.221 -0.5596  0.4400 -1.3534
  129OSM   H18T13854   4.760   2.713   8.306 -1.1577 -1.9560 -1.7910
  129OSM   H18U13855   4.905   2.643   8.393 -1.2607 -0.7627  0.4896
  129OSM    C1F13856   4.722   2.549   6.665 -0.3123 -0.3189  0.6425
  129OSM     OF13857   4.628   2.476   6.640  0.3779 -0.5642 -0.0729
  129OSM    C2F13858   4.700   2.691   6.689  0.2946  0.1189 -0.6073
  129OSM    H2F13859   4.652   2.739   6.602  1.5873  4.2109  0.8339
  129OSM    H2G13860   4.800   2.736   6.710  0.4378 -0.6799  0.4747
  129OSM    C3F13861   4.612   2.722   6.808 -0.7032 -0.6052  0.6022
  129OSM    H3F13862   4.524   2.658   6.788 -0.3305 -1.1250  0.5945
  129OSM    H3G13863   4.573   2.826   6.804 -1.7108 -0.8766  2.6438
  129OSM    C4F13864   4.676   2.695   6.949 -0.1959 -0.4632  0.6436
  129OSM    H4F13865   4.753   2.775   6.951  0.1726 -0.8110  0.3162
  129OSM    H4G13866   4.728   2.597   6.949 -1.2087 -1.0424 -1.7033
  129OSM    C5F13867   4.571   2.694   7.060 -0.0191 -0.5384 -0.6456
  129OSM    H5F13868   4.498   2.610   7.052 -0.3508 -0.5231  1.8508
  129OSM    H5G13869   4.500   2.779   7.047 -0.0898 -0.6856 -1.2470
  129OSM    C6F13870   4.632   2.693   7.197 -0.1657  0.5188 -0.0822
  129OSM    H6F13871   4.719   2.762   7.210  1.4758 -1.1629 -1.8862
  129OSM    H6G13872   4.683   2.596   7.216  0.8968  1.1501  0.3885
  129OSM    C7F13873   4.530   2.703   7.309  0.4537 -0.2527 -0.3285
  129OSM    H7F13874   4.426   2.689   7.273 -0.3515 -0.1851  1.9237
  129OSM    H7G13875   4.529   2.802   7.360  2.0754 -0.8605  0.9133
  129OSM    C8F13876   4.538   2.589   7.412 -0.3267 -0.4793  0.3794
  129OSM    H8F13877   4.525   2.497   7.352 -1.1091 -1.0300  1.3807
  129OSM    H8G13878   4.454   2.590   7.485  0.0197  1.3755  0.7860
  129OSM    C9F13879   4.676   2.584   7.481 -0.6212  0.2283  0.3895
  129OSM    H9F13880   4.763   2.594   7.414 -2.9036 -1.4742 -3.0026
  129OSM   C10F13881   4.701   2.547   7.608  0.3694 -0.7236 -0.0255
  129OSM   H10F13882   4.807   2.554   7.635  0.7268 -1.6060 -1.1195
  129OSM   C11F13883   4.593   2.520   7.702 -0.4425 -0.3183 -0.5119
  129OSM   H11F13884   4.518   2.448   7.664  0.7611 -2.4213  0.9876
  129OSM   H11G13885   4.537   2.615   7.716  1.5902  0.7028  1.0560
  129OSM   C12F13886   4.624   2.461   7.835  0.2234 -0.0371  0.3355
  129OSM   H12F13887   4.675   2.536   7.900 -0.6417  0.7769  0.0873
  129OSM   H12G13888   4.674   2.362   7.833  3.3079  1.4573  0.8221
  129OSM   C13F13889   4.492   2.446   7.919  1.0903  0.6729 -0.2448
  129OSM   H13F13890   4.441   2.355   7.881  3.7334 -0.7823 -0.4335
  129OSM   H13G13891   4.433   2.538   7.900 -0.0453  0.1113  0.5075
  129OSM   C14F13892   4.529   2.436   8.068  0.7005  0.7566 -0.9368
  129OSM   H14F13893   4.562   2.536   8.104 -2.4500  1.8398 -0.9234
  129OSM   H14G13894   4.603   2.355   8.083 -0.3829 -0.1635 -0.4665
  129OSM   C15F13895   4.408   2.386   8.148 -0.1017 -0.0291 -0.4745
  129OSM   H15F13896   4.384   2.281   8.120  1.4085 -0.3016 -0.8000
  129OSM   H15G13897   4.327   2.459   8.125 -0.6025 -0.5723 -0.4357
  129OSM   C16F13898   4.414   2.392   8.305  0.0806  0.7434  0.6071
  129OSM   H16F13899   4.387   2.492   8.344  1.8924  0.7621  1.8776
  129OSM   H16G13900   4.516   2.365   8.340 -0.0296 -0.0192  0.3401
  129OSM   C17F13901   4.313   2.296   8.377  0.0276 -0.5024 -0.2817
  129OSM   H17F13902   4.317   2.194   8.333  1.2562  0.1538 -1.7425
  129OSM   H17G13903   4.208   2.333   8.379  0.6763  1.3190  3.9164
  129OSM   C18F13904   4.343   2.284   8.530  0.0523  0.2960 -0.1167
  129OSM   H18F13905   4.251   2.241   8.575 -0.1569 -0.2292 -1.0464
  129OSM   H18G13906   4.359   2.380   8.583  2.9335 -0.7673  1.0873
  129OSM   H18H13907   4.425   2.214   8.559 -0.4700  0.0524  0.7777
  130OSM      N13908   5.813   6.815   6.059  0.0456  0.6626  0.2056
  130OSM    C1513909   5.800   6.664   6.009 -0.2717  0.4110 -0.0524
  130OSM   H15A13910   5.879   6.610   6.057 -0.3215  1.9590  1.8395
  130OSM   H15B13911   5.807   6.656   5.901  0.3012 -2.0810  0.1450
  130OSM   H15C13912   5.705   6.619   6.035  0.7371 -1.3747  0.5397
  130OSM    C1413913   5.962   6.839   6.045 -0.7106 -0.4188 -0.1426
  130OSM   H14A13914   5.997   6.940   6.065 -0.4032 -0.1270 -2.0493
  130OSM   H14B13915   5.993   6.815   5.944 -1.9746  0.1190 -0.6742
  130OSM   H14C13916   6.030   6.784   6.108 -1.6409 -1.2540  0.1475
  130OSM    C1313917   5.737   6.907   5.973 -0.3104  0.0128  0.2512
  130OSM   H13A13918   5.639   6.863   5.958  1.0531 -2.7145 -1.0706
  130OSM   H13B13919   5.782   6.923   5.876 -0.1166 -2.2099 -0.0535
  130OSM   H13C13920   5.711   7.002   6.019 -0.4031 -0.1759  0.5855
  130OSM    C1213921   5.778   6.810   6.211  0.1360 -0.1706 -0.4785
  130OSM   H12A13922   5.799   6.903   6.261  1.6689 -1.3044  1.0653
  130OSM   H12B13923   5.853   6.746   6.256 -1.3636 -2.0922 -0.6497
  130OSM    C1113924   5.633   6.769   6.246  0.2153 -0.2053 -0.8973
  130OSM   H11A13925   5.572   6.839   6.186  0.5765 -0.5756 -1.7164
  130OSM   H11B13926   5.611   6.786   6.353  2.5654  2.1999 -0.7369
  130OSM      P13927   5.674   6.522   6.304 -0.1570 -0.3154  0.0606
  130OSM    O1313928   5.670   6.393   6.225 -0.3420 -0.0226 -0.1971
  130OSM    O1413929   5.812   6.560   6.343 -0.2614 -0.3087  0.0088
  130OSM    O1113930   5.585   6.510   6.437  0.6413  0.0710  0.4273
  130OSM    O1213931   5.605   6.638   6.216 -0.7287 -0.0245 -0.4693
  130OSM    C1S13932   5.440   6.525   6.426 -0.0739  0.4316  0.6198
  130OSM    H1S13933   5.397   6.433   6.381 -0.9114 -0.1601  2.5926
  130OSM    H1T13934   5.397   6.608   6.366  1.0723  0.5376 -0.0866
  130OSM     NF13935   5.228   6.525   6.545 -0.2430  0.0973 -0.4277
  130OSM    HNF13936   5.191   6.616   6.527  1.2535  0.6411 -0.7728
  130OSM    C2S13937   5.371   6.524   6.561  0.1783 -0.0664  0.1583
  130OSM    H2S13938   5.411   6.432   6.609 -1.4909 -1.1066 -0.3772
  130OSM    C3S13939   5.432   6.647   6.644  0.3959  0.3898 -0.5198
  130OSM    H3S13940   5.393   6.735   6.589 -0.2571  0.4410  0.0191
  130OSM     O313941   5.573   6.666   6.660 -0.0673 -0.0575  0.0847
  130OSM    HO313942   5.596   6.601   6.594 -2.7183 -0.7486 -0.2022
  130OSM    C4S13943   5.378   6.636   6.778  0.2534 -0.6578  0.0107
  130OSM    H4S13944   5.273   6.670   6.783  0.4143 -0.0608 -0.5923
  130OSM    C5S13945   5.430   6.573   6.886 -0.3268  0.1602 -0.0235
  130OSM    H5S13946   5.535   6.540   6.880 -0.4073 -0.5533  2.1329
  130OSM    C6S13947   5.372   6.557   7.021  0.0664 -0.5328  0.7244
  130OSM    H6S13948   5.422   6.637   7.080  1.5859 -0.0140 -1.1940
  130OSM    H6T13949   5.421   6.469   7.067  0.6893 -0.0271  1.0562
  130OSM    C7S13950   5.220   6.544   7.049  0.3476 -0.1542 -0.0520
  130OSM    H7S13951   5.183   6.447   7.009  0.0736 -1.3936  3.0780
  130OSM    H7T13952   5.164   6.621   6.990 -0.0570 -2.1740 -2.3896
  130OSM    C8S13953   5.169   6.545   7.194 -0.6372  0.1406 -1.1100
  130OSM    H8S13954   5.065   6.583   7.186 -0.0839  1.7923 -0.6186
  130OSM    H8T13955   5.229   6.620   7.249 -0.4593 -1.0509  0.3574
  130OSM    C9S13956   5.172   6.408   7.260 -0.1972  0.4196  0.7246
  130OSM    H9S13957   5.277   6.374   7.256 -0.2731  0.1326  1.0915
  130OSM    H9T13958   5.106   6.337   7.206  0.6347  1.3359 -1.5646
  130OSM   C10S13959   5.133   6.417   7.410  0.0822  0.1080 -0.1495
  130OSM   H10S13960   5.034   6.463   7.432  0.6112  0.9878  0.4055
  130OSM   H10T13961   5.204   6.478   7.469  0.4934  1.7120 -2.2462
  130OSM   C11S13962   5.142   6.274   7.467  0.1169 -0.6503 -0.4848
  130OSM   H11S13963   5.247   6.238   7.464  0.5758  0.7615 -3.5624
  130OSM   H11T13964   5.073   6.213   7.405  0.0488 -0.0254 -1.0243
  130OSM   C12S13965   5.072   6.268   7.607  0.2410 -0.3388  1.0655
  130OSM   H12S13966   5.070   6.159   7.627  0.8346 -0.5292  0.1201
  130OSM   H12T13967   4.968   6.303   7.594  0.7434  0.4372 -1.0533
  130OSM   C13S13968   5.139   6.348   7.720  0.5483  0.2002 -0.8550
  130OSM   H13S13969   5.115   6.455   7.700 -2.9569 -0.3966 -0.0834
  130OSM   H13T13970   5.249   6.331   7.720  0.6418  0.6515  1.8427
  130OSM   C14S13971   5.074   6.306   7.852 -0.3981 -0.1475  0.5308
  130OSM   H14S13972   5.111   6.206   7.885 -1.3959 -0.8025 -0.3342
  130OSM   H14T13973   4.963   6.309   7.854 -0.4339 -0.8495 -0.0796
  130OSM   C15S13974   5.113   6.406   7.959 -0.2181 -0.0908 -0.3082
  130OSM   H15S13975   5.077   6.511   7.947  0.1531 -0.1552 -2.1606
  130OSM   H15T13976   5.224   6.406   7.953 -0.1897 -0.0234  0.1934
  130OSM   C16S13977   5.081   6.361   8.113  1.1076 -0.7380 -0.2463
  130OSM   H16S13978   5.169   6.379   8.179  2.0151 -0.0645 -1.6014
  130OSM   H16T13979   5.048   6.256   8.120 -2.7718  0.3614 -0.9852
  130OSM   C17S13980   4.974   6.440   8.184 -0.9100 -0.4499 -0.1034
  130OSM   H17S13981   4.879   6.432   8.127 -0.7746  1.8811 -0.7132
  130OSM   H17T13982   5.003   6.547   8.188 -0.2854 -0.6599  1.5240
  130OSM   C18S13983   4.952   6.390   8.328  0.4546  0.6941  0.5460
  130OSM   H18S13984   5.048   6.389   8.383 -0.1188 -1.1204  1.5348
  130OSM   H18T13985   4.920   6.284   8.325 -1.9546  1.4080 -0.7155
  130OSM   H18U13986   4.874   6.446   8.385  0.8653 -0.7753  2.5976
  130OSM    C1F13987   5.164   6.414   6.512  0.2718  1.2246  0.4016
  130OSM     OF13988   5.214   6.299   6.509  0.3467 -0.4041 -0.0588
  130OSM    C2F13989   5.016   6.426   6.479  0.2710 -0.7986 -0.0958
  130OSM    H2F13990   4.994   6.400   6.373  0.2744  1.6917 -0.7247
  130OSM    H2G13991   4.994   6.533   6.493 -1.8188 -1.3912  1.3755
  130OSM    C3F13992   4.933   6.341   6.573 -0.4327  0.1056 -0.5396
  130OSM    H3F13993   4.957   6.235   6.549 -0.2377 -0.3388  1.5593
  130OSM    H3G13994   4.824   6.355   6.553 -0.4504  0.1216 -0.4317
  130OSM    C4F13995   4.957   6.372   6.726 -0.1048 -0.4754 -0.0775
  130OSM    H4F13996   4.944   6.478   6.757  0.0103 -0.6158  0.4488
  130OSM    H4G13997   5.066   6.356   6.739 -0.0113  0.5883  0.4690
  130OSM    C5F13998   4.882   6.277   6.820  0.2272 -0.1529 -0.4497
  130OSM    H5F13999   4.925   6.175   6.816 -0.8245 -0.6254  0.0080
  130OSM    H5G14000   4.777   6.261   6.786 -0.2236 -1.4872  1.4869
  130OSM    C6F14001   4.889   6.337   6.964 -0.8771  0.1770 -0.3200
  130OSM    H6F14002   4.879   6.446   6.949 -1.1992  0.2016  0.0558
  130OSM    H6G14003   4.992   6.323   7.003 -1.1989 -1.5761 -0.0233
  130OSM    C7F14004   4.779   6.276   7.049  0.1764 -0.0035  0.0973
  130OSM    H7F14005   4.689   6.249   6.991 -2.1102 -2.1047  4.3819
  130OSM    H7G14006   4.761   6.343   7.136  3.0444 -0.1196  0.8340
  130OSM    C8F14007   4.836   6.150   7.125 -0.1370  0.7380 -0.6828
  130OSM    H8F14008   4.919   6.195   7.184 -1.3854  1.7711  0.3151
  130OSM    H8G14009   4.883   6.087   7.047 -1.3199  0.4158 -1.1529
  130OSM    C9F14010   4.733   6.071   7.195  0.2615  0.4013  0.0238
  130OSM    H9F14011   4.656   6.024   7.132  0.1631 -1.5664  1.5448
  130OSM   C10F14012   4.706   6.064   7.324  0.0568 -0.2140 -0.7255
  130OSM   H10F14013   4.632   6.000   7.375 -0.2237 -0.1964 -1.1107
  130OSM   C11F14014   4.773   6.132   7.440  0.0041 -0.2564  0.6954
  130OSM   H11F14015   4.876   6.154   7.407  0.4615 -1.3605  1.3688
  130OSM   H11G14016   4.786   6.064   7.527  0.9725 -0.2129  0.5839
  130OSM   C12F14017   4.711   6.267   7.478 -0.1204  0.6164  0.9260
  130OSM   H12F14018   4.727   6.338   7.394 -0.0243  0.0062  0.4246
  130OSM   H12G14019   4.769   6.298   7.567 -1.4011 -0.3598  2.1210
  130OSM   C13F14020   4.563   6.264   7.527 -0.6040  0.6398  0.6394
  130OSM   H13F14021   4.495   6.233   7.444  2.3035 -0.4500 -1.4610
  130OSM   H13G14022   4.526   6.360   7.566 -1.2918  0.9453 -0.7262
  130OSM   C14F14023   4.538   6.177   7.652 -0.2011  0.5976 -0.1783
  130OSM   H14F14024   4.559   6.073   7.620 -0.7779  0.6811 -0.8180
  130OSM   H14G14025   4.432   6.178   7.685  0.2134 -1.1328  1.2554
  130OSM   C15F14026   4.632   6.230   7.766 -0.0873 -0.6839  0.0035
  130OSM   H15F14027   4.669   6.332   7.744  1.0754 -1.1193 -0.1153
  130OSM   H15G14028   4.720   6.162   7.776  0.8058  0.8376  3.2682
  130OSM   C16F14029   4.564   6.232   7.903 -0.3351  0.7778  0.1614
  130OSM   H16F14030   4.499   6.142   7.910  0.4817 -0.0456 -2.3321
  130OSM   H16G14031   4.497   6.321   7.909  0.8253  1.5223  2.4392
  130OSM   C17F14032   4.668   6.235   8.008 -0.1362  0.2322  0.4166
  130OSM   H17F14033   4.627   6.284   8.099 -1.7117  1.1477 -0.7692
  130OSM   H17G14034   4.759   6.291   7.977  0.3567 -0.2425  0.9688
  130OSM   C18F14035   4.718   6.091   8.050  0.6734  0.9376  0.4271
  130OSM   H18F14036   4.816   6.092   8.102  2.2239 -1.0534 -2.3165
  130OSM   H18G14037   4.727   6.024   7.962  0.7046  1.3970  0.0819
  130OSM   H18H14038   4.644   6.044   8.118  1.1873  0.2751  0.5238
  131OSM      N14039   5.697   4.063   5.888 -0.2171  0.1444  0.2074
  131OSM    C1514040   5.645   4.089   5.753 -0.3586 -0.2639 -0.3784
  131OSM   H15A14041   5.574   4.014   5.721  1.1058 -0.7518 -2.6380
  131OSM   H15B14042   5.719   4.106   5.676 -0.1470  2.1021  0.3122
  131OSM   H15C14043   5.586   4.179   5.754 -0.9270 -0.6067  2.1800
  131OSM    C1414044   5.764   3.934   5.897 -0.6479 -0.5138 -0.6006
  131OSM   H14A14045   5.700   3.846   5.891 -0.0224 -1.2140  2.2061
  131OSM   H14B14046   5.822   3.944   5.987  0.1327  0.5501 -1.2228
  131OSM   H14C14047   5.838   3.923   5.819 -1.0005  1.2306 -1.2000
  131OSM    C1314048   5.808   4.160   5.913  0.7186 -0.7714  0.3231
  131OSM   H13A14049   5.890   4.149   5.844 -0.0590  0.3631 -0.8125
  131OSM   H13B14050   5.848   4.140   6.011  1.4915  3.3150  0.9151
  131OSM   H13C14051   5.771   4.261   5.913 -0.7872 -1.3096  0.5840
  131OSM    C1214052   5.582   4.074   5.994  0.3366 -0.4263  0.0605
  131OSM   H12A14053   5.513   3.992   5.983  1.6210 -1.4570 -0.4172
  131OSM   H12B14054   5.513   4.147   5.953  3.0606  1.5118 -1.2532
  131OSM    C1114055   5.618   4.096   6.142  0.1376 -0.4966 -0.8272
  131OSM   H11A14056   5.690   4.017   6.174 -0.6466 -0.7781  0.2666
  131OSM   H11B14057   5.527   4.088   6.206  0.8403  2.4714  0.6281
  131OSM      P14058   5.587   4.337   6.201 -0.4669 -0.0425  0.5326
  131OSM    O1314059   5.673   4.459   6.203 -0.3339 -0.4134  0.3101
  131OSM    O1414060   5.480   4.334   6.104  0.5333  0.0012 -0.2729
  131OSM    O1114061   5.527   4.302   6.342  0.5359 -0.1060  0.0866
  131OSM    O1214062   5.682   4.218   6.163  0.6003  0.0717  0.6653
  131OSM    C1S14063   5.617   4.222   6.428  0.8695 -0.6147  0.7729
  131OSM    H1S14064   5.723   4.207   6.397  0.9236 -0.1889  0.7512
  131OSM    H1T14065   5.578   4.118   6.422  1.4544 -0.8901  1.6586
  131OSM     NF14066   5.750   4.205   6.633 -0.0819  0.0734 -0.0117
  131OSM    HNF14067   5.730   4.135   6.701 -0.9661  0.7023  0.3770
  131OSM    C2S14068   5.636   4.274   6.569  0.1447 -0.0924 -0.3778
  131OSM    H2S14069   5.648   4.383   6.556  0.3839  0.1102  1.4304
  131OSM    C3S14070   5.501   4.252   6.652 -0.2526 -0.1027  0.7478
  131OSM    H3S14071   5.486   4.142   6.659 -0.0632 -0.3106 -1.5704
  131OSM     O314072   5.392   4.292   6.578 -0.3706 -0.2625  0.0496
  131OSM    HO314073   5.433   4.342   6.507  1.9529 -0.4268  1.1963
  131OSM    C4S14074   5.513   4.311   6.788 -0.5607  0.0077  0.1361
  131OSM    H4S14075   5.551   4.251   6.872  0.0718 -0.4078 -0.4461
  131OSM    C5S14076   5.480   4.437   6.814 -0.3555 -0.2010  0.3116
  131OSM    H5S14077   5.452   4.501   6.728  1.9328  0.4556  0.0335
  131OSM    C6S14078   5.468   4.503   6.948 -0.5688  0.8256 -0.7673
  131OSM    H6S14079   5.366   4.547   6.953 -0.1557  1.7412 -0.2200
  131OSM    H6T14080   5.548   4.580   6.958  0.4262 -0.2757  0.0074
  131OSM    C7S14081   5.488   4.407   7.071 -0.2371  0.0251  0.2629
  131OSM    H7S14082   5.596   4.382   7.061 -0.6681 -2.0907  0.5536
  131OSM    H7T14083   5.425   4.315   7.068  0.0759 -0.1586 -1.2613
  131OSM    C8S14084   5.471   4.476   7.212 -0.5432 -0.2055 -0.1334
  131OSM    H8S14085   5.365   4.507   7.215 -0.6492 -0.0363 -3.3876
  131OSM    H8T14086   5.542   4.561   7.207 -0.1451 -0.3988  1.7819
  131OSM    C9S14087   5.510   4.391   7.334 -0.5650  0.7092  0.3083
  131OSM    H9S14088   5.618   4.378   7.311 -0.0051  1.1132  2.5865
  131OSM    H9T14089   5.453   4.296   7.346  0.8429 -0.4727 -2.0443
  131OSM   C10S14090   5.496   4.475   7.459 -0.2143  0.5747 -0.1343
  131OSM   H10S14091   5.396   4.523   7.459 -1.0510 -1.1341  0.1250
  131OSM   H10T14092   5.567   4.560   7.468  0.4986 -0.2204  2.0637
  131OSM   C11S14093   5.500   4.383   7.586 -0.2256 -0.2437  0.0180
  131OSM   H11S14094   5.606   4.352   7.589  0.5194  2.1320 -0.4257
  131OSM   H11T14095   5.431   4.297   7.572 -0.7111  0.3070 -1.0408
  131OSM   C12S14096   5.472   4.454   7.717  0.0933 -0.1860  0.5035
  131OSM   H12S14097   5.374   4.506   7.717  1.4700  2.6365 -2.7352
  131OSM   H12T14098   5.546   4.536   7.727 -0.6989  0.5905  0.0393
  131OSM   C13S14099   5.470   4.348   7.829  0.3166  0.2065  0.0280
  131OSM   H13S14100   5.576   4.326   7.856  0.1099  1.7127  2.1809
  131OSM   H13T14101   5.419   4.255   7.799 -0.5664  1.2755 -1.9044
  131OSM   C14S14102   5.417   4.391   7.962 -0.6756  0.2879  0.0648
  131OSM   H14S14103   5.312   4.425   7.949 -0.3119  1.1844 -0.6217
  131OSM   H14T14104   5.486   4.473   7.991 -1.9114  0.8966  1.3031
  131OSM   C15S14105   5.413   4.290   8.075  0.6474 -0.0768  0.0501
  131OSM   H15S14106   5.503   4.259   8.132 -0.4444 -1.0205  1.2848
  131OSM   H15T14107   5.390   4.193   8.027  1.3959  0.1530 -0.7876
  131OSM   C16S14108   5.320   4.321   8.193 -0.4864  0.5184 -0.0445
  131OSM   H16S14109   5.228   4.370   8.155 -0.0365  0.3200 -1.4422
  131OSM   H16T14110   5.375   4.388   8.262 -1.0246  0.2697  0.6215
  131OSM   C17S14111   5.284   4.196   8.268 -0.3443  0.3463  0.1021
  131OSM   H17S14112   5.378   4.137   8.279 -1.5741 -2.0113 -1.6779
  131OSM   H17T14113   5.211   4.139   8.207 -1.0201 -0.7644  1.9409
  131OSM   C18S14114   5.220   4.216   8.405 -0.4996  0.4257 -0.4454
  131OSM   H18S14115   5.187   4.116   8.439 -2.4333  1.2667  0.1939
  131OSM   H18T14116   5.146   4.295   8.384 -1.8419 -0.0251  2.4064
  131OSM   H18U14117   5.275   4.264   8.489 -2.1244  0.2065  0.7702
  131OSM    C1F14118   5.879   4.231   6.615  0.2196  1.5050 -0.4830
  131OSM     OF14119   5.921   4.313   6.537 -0.4295  0.1855 -0.2005
  131OSM    C2F14120   5.967   4.140   6.691 -0.7445 -0.4557 -0.3878
  131OSM    H2F14121   6.068   4.127   6.646 -1.0478  0.5356 -1.3916
  131OSM    H2G14122   5.927   4.038   6.709 -0.4361 -0.6278 -0.6709
  131OSM    C3F14123   6.003   4.197   6.831  0.5627 -0.0311  0.6453
  131OSM    H3F14124   6.070   4.285   6.818 -1.5512  1.4120 -0.7627
  131OSM    H3G14125   6.057   4.117   6.886 -1.0381 -1.2907  0.4247
  131OSM    C4F14126   5.883   4.219   6.936  0.3720 -0.4536  0.0311
  131OSM    H4F14127   5.816   4.131   6.923  0.7567 -0.4450 -2.0994
  131OSM    H4G14128   5.823   4.308   6.907  1.7676 -0.0047 -1.5252
  131OSM    C5F14129   5.945   4.223   7.070 -0.2345  0.3332  0.1114
  131OSM    H5F14130   5.993   4.322   7.087  0.5960 -0.1569  0.6713
  131OSM    H5G14131   6.031   4.154   7.079  1.6148  2.4629 -0.6941
  131OSM    C6F14132   5.840   4.208   7.180 -0.4784 -0.5404 -0.0007
  131OSM    H6F14133   5.795   4.107   7.172  3.9037 -2.6207  0.1426
  131OSM    H6G14134   5.767   4.287   7.154  0.3557  0.0375 -0.6186
  131OSM    C7F14135   5.895   4.228   7.323  0.2861  0.1191 -0.4146
  131OSM    H7F14136   5.906   4.337   7.341  1.8030  0.0152 -0.5920
  131OSM    H7G14137   5.993   4.176   7.336  0.5982  1.1121  1.4274
  131OSM    C8F14138   5.791   4.166   7.418 -0.2375  0.3265 -0.0857
  131OSM    H8F14139   5.694   4.219   7.404 -0.4718  0.5786  2.3124
  131OSM    H8G14140   5.829   4.207   7.514 -1.2986 -1.3566  1.0604
  131OSM    C9F14141   5.780   4.015   7.418  0.3758 -0.0225 -0.2177
  131OSM    H9F14142   5.728   3.971   7.331 -2.0558  1.7965  0.2596
  131OSM   C10F14143   5.821   3.937   7.522  0.0099 -0.4922  0.4446
  131OSM   H10F14144   5.832   3.829   7.505  2.3950  0.1601 -2.4687
  131OSM   C11F14145   5.884   3.989   7.649  0.2541 -0.5682 -0.1047
  131OSM   H11F14146   5.946   4.080   7.631 -1.4536  0.4091 -1.1054
  131OSM   H11G14147   5.945   3.904   7.687 -0.9018 -0.7696  1.3551
  131OSM   C12F14148   5.799   4.017   7.777  0.1452 -0.0527 -0.3038
  131OSM   H12F14149   5.728   4.102   7.762  0.7233  0.5352  0.2747
  131OSM   H12G14150   5.871   4.049   7.856  0.8105 -1.1870 -0.4341
  131OSM   C13F14151   5.729   3.887   7.825  0.3299  0.5804  0.8475
  131OSM   H13F14152   5.803   3.806   7.845  1.9014  2.1602  1.5328
  131OSM   H13G14153   5.667   3.851   7.740 -0.0481 -1.7181  2.0294
  131OSM   C14F14154   5.641   3.903   7.941 -0.3501  0.3593 -0.0295
  131OSM   H14F14155   5.578   3.812   7.956  1.9800 -1.0261  1.7499
  131OSM   H14G14156   5.581   3.993   7.916 -1.1645  0.0474  0.8170
  131OSM   C15F14157   5.726   3.912   8.068 -0.2621  0.1263  0.2016
  131OSM   H15F14158   5.823   3.965   8.057  0.0524 -0.9144 -2.1968
  131OSM   H15G14159   5.768   3.811   8.090  0.4722  0.2738 -0.4795
  131OSM   C16F14160   5.639   3.976   8.179  0.6369 -0.0979 -0.2330
  131OSM   H16F14161   5.536   3.942   8.156  0.7346 -0.3888 -0.2449
  131OSM   H16G14162   5.637   4.087   8.176 -1.9321 -0.1061  0.5340
  131OSM   C17F14163   5.686   3.930   8.317 -0.6169  0.9698 -0.5976
  131OSM   H17F14164   5.794   3.949   8.329 -0.9851  1.1533  3.0987
  131OSM   H17G14165   5.667   3.820   8.321  1.1397  0.6503 -0.5563
  131OSM   C18F14166   5.609   4.000   8.435  0.3784  0.2877 -0.6219
  131OSM   H18F14167   5.666   3.988   8.529 -1.6834  1.0637  0.7648
  131OSM   H18G14168   5.507   3.958   8.441 -0.3851  2.0551 -0.8566
  131OSM   H18H14169   5.592   4.108   8.415 -0.0423  0.6794  1.7212
  132OSM      N14170   1.533   0.450   6.252  0.0587  0.6367  0.8822
  132OSM    C1514171   1.544   0.369   6.378 -0.1046  0.1254 -0.3699
  132OSM   H15A14172   1.493   0.420   6.459 -0.1112 -3.0858  1.7325
  132OSM   H15B14173   1.646   0.350   6.410 -1.1879 -0.4091  2.9139
  132OSM   H15C14174   1.498   0.272   6.364 -0.2336  0.5061 -2.7464
  132OSM    C1414175   1.574   0.367   6.135 -0.4870 -0.0654  0.2634
  132OSM   H14A14176   1.518   0.275   6.130  1.0533 -1.0069 -0.0543
  132OSM   H14B14177   1.681   0.350   6.139 -0.0190  1.6768 -3.2165
  132OSM   H14C14178   1.542   0.419   6.046  0.6433 -0.4316 -0.3783
  132OSM    C1314179   1.389   0.497   6.226 -0.2639  0.0328 -0.4697
  132OSM   H13A14180   1.347   0.527   6.321  0.7802 -0.7749  0.2623
  132OSM   H13B14181   1.332   0.418   6.179  1.3705 -0.0023 -2.4478
  132OSM   H13C14182   1.392   0.582   6.159  2.8996  0.8785  0.6781
  132OSM    C1214183   1.620   0.568   6.271  0.3319 -0.2159 -0.8236
  132OSM   H12A14184   1.717   0.522   6.280  1.1889  1.5283 -0.8070
  132OSM   H12B14185   1.608   0.619   6.365  0.7643 -0.5624 -0.5838
  132OSM    C1114186   1.618   0.678   6.162 -0.4699  0.6676 -0.5977
  132OSM   H11A14187   1.630   0.637   6.059  2.6050 -0.3130  0.1218
  132OSM   H11B14188   1.703   0.748   6.178  0.3786 -0.6970  0.9408
  132OSM      P14189   1.465   0.888   6.230  0.3000  0.1127 -0.3431
  132OSM    O1314190   1.573   0.981   6.185  0.2356 -0.3802  0.0161
  132OSM    O1414191   1.325   0.922   6.208  0.2356  0.1633  0.0313
  132OSM    O1114192   1.479   0.853   6.380 -0.4248 -0.3539 -1.0694
  132OSM    O1214193   1.497   0.753   6.161  0.2366 -0.1578 -0.2511
  132OSM    C1S14194   1.389   0.774   6.456  0.2069 -0.4763 -0.3788
  132OSM    H1S14195   1.432   0.672   6.454  0.1432 -0.4905 -1.8641
  132OSM    H1T14196   1.282   0.773   6.423  0.2533 -0.7696 -0.5288
  132OSM     NF14197   1.283   0.702   6.667  0.0717 -0.0874  0.5595
  132OSM    HNF14198   1.189   0.727   6.646 -0.0623 -1.2021 -0.2070
  132OSM    C2S14199   1.377   0.803   6.608  0.4908  0.2564 -0.2455
  132OSM    H2S14200   1.471   0.795   6.666 -0.6079  1.8437  1.8271
  132OSM    C3S14201   1.324   0.954   6.625  0.0314  0.2296 -0.5595
  132OSM    H3S14202   1.224   0.967   6.578  0.7455 -4.2802 -3.6730
  132OSM     O314203   1.409   1.045   6.557  0.8215 -0.0262 -0.5009
  132OSM    HO314204   1.483   0.987   6.539  1.7471  0.0570  2.6396
  132OSM    C4S14205   1.302   0.994   6.768 -0.6923  0.3617  0.7650
  132OSM    H4S14206   1.392   1.004   6.831 -0.7767 -0.3433  1.0001
  132OSM    C5S14207   1.180   1.033   6.815  0.0901  0.5317  0.3280
  132OSM    H5S14208   1.088   1.019   6.756 -0.5366  0.3734  1.3226
  132OSM    C6S14209   1.154   1.076   6.959  0.7870 -0.0940 -0.2628
  132OSM    H6S14210   1.090   1.167   6.961 -0.8586 -1.2299  0.2147
  132OSM    H6T14211   1.251   1.091   7.012  0.9670 -1.6237 -0.1447
  132OSM    C7S14212   1.081   0.968   7.045 -0.5648  0.1578 -0.3458
  132OSM    H7S14213   1.149   0.880   7.043 -1.0451 -0.2116 -0.4740
  132OSM    H7T14214   0.992   0.932   6.989 -0.4171 -0.6066 -0.0914
  132OSM    C8S14215   1.051   1.019   7.183 -0.3222  0.2582  0.4997
  132OSM    H8S14216   0.949   1.063   7.179 -0.1691  0.5012 -1.5253
  132OSM    H8T14217   1.116   1.105   7.211 -1.8341  1.2353  1.0776
  132OSM    C9S14218   1.050   0.909   7.292  0.6066  0.4936  0.6314
  132OSM    H9S14219   1.151   0.873   7.321  0.4667  1.0648  1.8686
  132OSM    H9T14220   0.985   0.824   7.262  2.9179 -0.6994 -1.2153
  132OSM   C10S14221   0.996   0.971   7.423  0.2095  0.3196 -0.4221
  132OSM   H10S14222   0.948   0.890   7.482  2.4537 -0.6369  0.1230
  132OSM   H10T14223   0.922   1.052   7.402 -0.2796  0.2114  0.8368
  132OSM   C11S14224   1.092   1.039   7.519 -0.7761  0.1513 -0.4667
  132OSM   H11S14225   1.137   1.131   7.478  1.6562 -1.0899 -0.6768
  132OSM   H11T14226   1.171   0.962   7.531 -3.6303 -2.8766 -0.2677
  132OSM   C12S14227   1.021   1.073   7.652  0.0992 -0.5796 -0.8839
  132OSM   H12S14228   0.964   0.982   7.681  1.0532 -0.6395  0.8659
  132OSM   H12T14229   0.948   1.154   7.629 -0.1444 -1.0511 -1.8206
  132OSM   C13S14230   1.116   1.115   7.762  0.1789 -0.0817 -0.0392
  132OSM   H13S14231   1.184   1.199   7.735 -2.0886  2.3241  1.4357
  132OSM   H13T14232   1.175   1.034   7.810 -0.4857 -0.2094  0.5727
  132OSM   C14S14233   1.049   1.168   7.894  0.7815 -0.1123  0.1174
  132OSM   H14S14234   1.126   1.151   7.972  1.5118 -0.5909 -0.6916
  132OSM   H14T14235   0.961   1.103   7.912 -1.2065  2.3405 -0.5247
  132OSM   C15S14236   1.013   1.316   7.884 -0.1672  0.7038 -0.3546
  132OSM   H15S14237   0.932   1.329   7.810  0.7189 -0.6306 -1.5965
  132OSM   H15T14238   1.099   1.375   7.845 -0.3399  1.3686  0.2570
  132OSM   C16S14239   0.991   1.380   8.023  0.0625  0.0814  0.3158
  132OSM   H16S14240   0.957   1.302   8.094  2.2159 -0.3829  0.8877
  132OSM   H16T14241   0.928   1.470   8.009  0.6891  0.7891  1.9162
  132OSM   C17S14242   1.115   1.438   8.081 -0.0472  0.2628 -0.0723
  132OSM   H17S14243   1.183   1.484   8.006 -1.4402 -0.4154 -1.7795
  132OSM   H17T14244   1.174   1.354   8.123 -0.5105  1.6999  3.6538
  132OSM   C18S14245   1.081   1.528   8.196 -0.8876  0.6074  0.4128
  132OSM   H18S14246   1.061   1.628   8.153  0.7761  0.8502  0.1644
  132OSM   H18T14247   1.155   1.535   8.278  0.0371 -1.0244 -0.2467
  132OSM   H18U14248   0.987   1.490   8.241 -1.7642  1.2777 -0.8086
  132OSM    C1F14249   1.316   0.577   6.681  0.3371 -0.1664  0.1621
  132OSM     OF14250   1.432   0.546   6.677 -0.0686  0.1316 -0.6906
  132OSM    C2F14251   1.202   0.476   6.699 -0.4941  0.0544 -0.4446
  132OSM    H2F14252   1.250   0.379   6.728 -1.3909 -0.0572  0.6914
  132OSM    H2G14253   1.170   0.452   6.596 -0.8518 -2.0523  0.1261
  132OSM    C3F14254   1.084   0.510   6.785  0.3576 -0.1313 -0.1593
  132OSM    H3F14255   1.039   0.414   6.816 -3.8244  1.9687  0.6796
  132OSM    H3G14256   1.025   0.574   6.716  1.7818  1.1184 -0.2351
  132OSM    C4F14257   1.116   0.588   6.914  0.1890 -0.3509 -0.1069
  132OSM    H4F14258   1.017   0.592   6.965 -0.0087 -1.2152 -0.4073
  132OSM    H4G14259   1.139   0.693   6.886  1.4345 -0.7748 -0.7140
  132OSM    C5F14260   1.212   0.523   7.017 -1.0811  0.3246  0.2677
  132OSM    H5F14261   1.218   0.599   7.097  1.9587  1.9390 -1.3731
  132OSM    H5G14262   1.307   0.522   6.959 -1.0770 -1.1792  0.2983
  132OSM    C6F14263   1.149   0.394   7.079 -0.2015 -0.1873 -0.4869
  132OSM    H6F14264   1.135   0.319   6.998 -0.9163 -0.8888  0.2744
  132OSM    H6G14265   1.047   0.408   7.121 -0.6811 -0.4396 -1.5507
  132OSM    C7F14266   1.242   0.342   7.186 -0.2396 -0.5201 -0.5449
  132OSM    H7F14267   1.348   0.361   7.157 -0.3938 -1.1760 -1.5554
  132OSM    H7G14268   1.238   0.231   7.191  0.9762 -0.4661  2.5507
  132OSM    C8F14269   1.221   0.402   7.328  0.0152  0.2601  0.1492
  132OSM    H8F14270   1.216   0.513   7.327  2.4689  0.4073  0.0729
  132OSM    H8G14271   1.308   0.371   7.390 -0.8004 -1.6330  0.3737
  132OSM    C9F14272   1.097   0.334   7.388 -0.0310  0.3135 -0.1182
  132OSM    H9F14273   1.081   0.227   7.369 -0.3723  0.2180  0.6860
  132OSM   C10F14274   0.998   0.398   7.465 -0.4187  0.1714  0.0625
  132OSM   H10F14275   0.918   0.332   7.502  1.1913 -1.8420  0.0406
  132OSM   C11F14276   0.992   0.542   7.499  0.7371 -0.1168 -0.6044
  132OSM   H11F14277   0.920   0.591   7.430  0.8380  2.3508  0.9591
  132OSM   H11G14278   1.086   0.600   7.485 -1.5237  3.4354 -1.7065
  132OSM   C12F14279   0.944   0.553   7.643  0.4594  0.0827 -0.0815
  132OSM   H12F14280   1.012   0.513   7.721  1.6142  0.9905 -0.6060
  132OSM   H12G14281   0.842   0.507   7.643  0.8420 -0.7823 -0.9251
  132OSM   C13F14282   0.930   0.702   7.681 -0.2699 -0.8583  0.5823
  132OSM   H13F14283   0.860   0.752   7.611  0.2052  0.0036  0.7187
  132OSM   H13G14284   1.026   0.758   7.681  0.2051 -1.6452  1.7527
  132OSM   C14F14285   0.858   0.736   7.813  0.3622 -0.6594  0.7438
  132OSM   H14F14286   0.755   0.698   7.795 -0.7504  3.1365 -1.4060
  132OSM   H14G14287   0.854   0.846   7.828 -1.2562 -0.7284  0.9771
  132OSM   C15F14288   0.910   0.665   7.940  0.6172 -0.0905 -0.2615
  132OSM   H15F14289   0.922   0.558   7.913 -1.6300  0.7650 -5.2823
  132OSM   H15G14290   0.833   0.664   8.020  1.0371 -2.6551  0.1625
  132OSM   C16F14291   1.036   0.743   7.986  0.7191  0.8922  0.0547
  132OSM   H16F14292   1.020   0.853   7.984 -0.1841  0.7822  0.6628
  132OSM   H16G14293   1.114   0.732   7.908 -0.2534  0.8125 -0.9147
  132OSM   C17F14294   1.103   0.705   8.124  0.3668  0.9678  0.0146
  132OSM   H17F14295   1.208   0.741   8.133  0.3724  0.5318  1.7091
  132OSM   H17G14296   1.106   0.594   8.121 -0.6187  0.9451 -5.0571
  132OSM   C18F14297   1.033   0.753   8.255 -0.2694 -0.1111  0.0419
  132OSM   H18F14298   1.102   0.753   8.343 -4.1532  1.7300  3.2366
  132OSM   H18G14299   0.951   0.690   8.295 -1.8746  1.6649 -0.4249
  132OSM   H18H14300   1.003   0.859   8.241 -0.4946 -0.4190 -1.9054
  133SAPE     N14301   3.189   5.245  10.698 -0.0031 -0.4007  0.2949
  133SAPE   HN114302   3.150   5.340  10.714  0.8770  0.2177 -1.0965
  133SAPE   HN214303   3.272   5.259  10.637 -0.0550  1.5981  0.6467
  133SAPE   HN314304   3.132   5.178  10.644  0.2705  0.0342 -0.5399
  133SAPE   C1214305   3.238   5.175  10.827 -0.1198 -0.3859 -0.0649
  133SAPE  H12A14306   3.147   5.127  10.868 -0.1335 -0.6080 -0.3614
  133SAPE  H12B14307   3.268   5.253  10.901 -1.3431 -0.6451  0.7073
  133SAPE   C1114308   3.344   5.064  10.801  0.0269  0.4319 -0.5470
  133SAPE  H11A14309   3.370   5.006  10.893  1.8495  1.9174 -0.0999
  133SAPE  H11B14310   3.436   5.115  10.765  0.0784  1.6294  1.2149
  133SAPE     P14311   3.243   4.828  10.727 -0.0217  0.1101 -0.0668
  133SAPE   O1314312   3.331   4.766  10.829 -0.0269 -0.4359 -0.2856
  133SAPE   O1414313   3.101   4.844  10.760  0.2767 -0.5932 -0.3564
  133SAPE   O1214314   3.302   4.972  10.701  0.1445 -0.3088 -0.5167
  133SAPE   O1114315   3.243   4.756  10.585  0.3695 -0.5578  0.1527
  133SAPE    C114316   3.346   4.808  10.491 -0.9622  0.6601  0.4867
  133SAPE    HA14317   3.337   4.916  10.467 -1.0496 -0.1124 -3.1621
  133SAPE    HB14318   3.441   4.782  10.542 -1.1601  0.5104  0.7780
  133SAPE    C214319   3.351   4.747  10.346 -0.3183 -0.5612  0.1711
  133SAPE    HS14320   3.440   4.796  10.300  1.4225 -0.8564  3.0915
  133SAPE   O2114321   3.227   4.783  10.285  0.1433 -0.2233  0.1885
  133SAPE   C2114322   3.219   4.901  10.231 -1.1449  0.3751  0.2652
  133SAPE   O2214323   3.295   4.992  10.250 -0.1008  0.5962  0.1738
  133SAPE   C2214324   3.090   4.899  10.150 -0.3064  0.6532 -0.5445
  133SAPE   H2R14325   3.002   4.848  10.194  1.1497  0.4363  2.2015
  133SAPE   H2S14326   3.068   5.007  10.135  0.3584  0.6704 -1.4303
  133SAPE    C314327   3.373   4.596  10.347 -0.1707 -0.0438  0.0414
  133SAPE    HX14328   3.301   4.545  10.415 -1.3133  0.5663 -0.6820
  133SAPE    HY14329   3.468   4.566  10.394 -0.8876  0.2471  1.6981
  133SAPE   O3114330   3.356   4.535  10.212  0.2912  0.2997 -0.1595
  133SAPE   C3114331   3.462   4.550  10.137 -0.2405 -0.0485 -0.1248
  133SAPE   O3214332   3.568   4.594  10.183 -0.7744 -0.1872  0.6801
  133SAPE   C3214333   3.437   4.506   9.992  0.2169 -0.8518  0.1812
  133SAPE   H2X14334   3.331   4.538   9.979  1.1505  2.3909  0.1243
  133SAPE   H2Y14335   3.433   4.395   9.989  1.3530 -0.8815 -0.3421
  133SAPE   C2314336   3.126   4.839  10.008  0.3631 -0.4616  0.3596
  133SAPE   H3R14337   3.162   4.735  10.023  2.6779 -0.0727 -2.0769
  133SAPE   H3S14338   3.215   4.894   9.972  3.1546 -4.3373  1.0063
  133SAPE   C2414339   3.010   4.830   9.910  1.0606 -0.0396  0.0766
  133SAPE   H4R14340   2.913   4.803   9.958  1.4360  0.5578  1.1907
  133SAPE   H4S14341   3.026   4.744   9.842 -0.2360  1.4318 -2.1305
  133SAPE   C2514342   2.995   4.960   9.821  0.8467 -0.2751 -0.2231
  133SAPE   H5R14343   3.003   5.054   9.878 -3.3568  1.6505 -2.5409
  133SAPE   C2614344   2.989   4.970   9.685 -0.2401  0.1691  0.3525
  133SAPE   H6R14345   2.957   5.065   9.638 -0.6865  0.1995  0.7163
  133SAPE   C2714346   2.985   4.854   9.586  0.7570 -1.0328 -0.3113
  133SAPE   H7R14347   2.965   4.897   9.486  1.9835 -1.4961 -0.7737
  133SAPE   H7S14348   2.909   4.774   9.601 -1.7943  1.4285  0.1609
  133SAPE   C2814349   3.108   4.767   9.580  0.0228  0.5494 -0.6052
  133SAPE   H8R14350   3.174   4.773   9.668 -0.6593 -2.0648  0.1331
  133SAPE   C2914351   3.149   4.698   9.467  0.0996  0.9448  0.3042
  133SAPE   H9R14352   3.241   4.639   9.473 -0.4516 -0.0118 -0.6173
  133SAPE  C21014353   3.081   4.691   9.333 -0.0561 -0.5253 -0.9132
  133SAPE  H10R14354   2.981   4.737   9.326 -1.4139 -3.4021 -1.0453
  133SAPE  H10S14355   3.071   4.585   9.302 -2.3211  0.2991 -3.1450
  133SAPE  C21114356   3.172   4.753   9.231 -0.3210  0.6830  0.6372
  133SAPE  H11R14357   3.255   4.815   9.268 -2.3265  2.7633  1.7395
  133SAPE  C21214358   3.153   4.727   9.096  0.3469  0.3572 -0.0715
  133SAPE  H12R14359   3.215   4.782   9.024  0.1057 -2.7905 -2.7761
  133SAPE  C21314360   3.047   4.633   9.031 -0.6997 -0.1578  0.0588
  133SAPE  H13R14361   3.014   4.562   9.110  1.1057 -1.1417 -0.0366
  133SAPE  H13S14362   3.103   4.578   8.952  1.2509  0.0028  1.3140
  133SAPE  C21414363   2.924   4.709   8.988 -0.0694  0.2362 -0.4266
  133SAPE  H14R14364   2.839   4.705   9.057 -1.6062 -2.7531 -2.3315
  133SAPE  C21514365   2.893   4.759   8.863  0.6850  0.6433 -0.0325
  133SAPE  H15R14366   2.790   4.794   8.849 -0.7560 -2.9774  0.9188
  133SAPE  C21614367   2.975   4.759   8.737  0.0307 -0.8843 -0.1052
  133SAPE  H16R14368   3.078   4.717   8.745  0.7728  0.7460 -0.9584
  133SAPE  H16S14369   2.994   4.858   8.692  1.2096 -1.1971 -0.3050
  133SAPE  C21714370   2.913   4.668   8.633 -0.3327 -0.0349 -0.0203
  133SAPE  H17R14371   2.917   4.564   8.672 -0.4672  0.0026  0.0981
  133SAPE  H17S14372   2.986   4.681   8.550  0.1778  0.1298  0.4535
  133SAPE  C21814373   2.776   4.700   8.570  0.4430  0.4890  0.1577
  133SAPE  H18R14374   2.764   4.646   8.474  2.2595 -1.5391  1.0133
  133SAPE  H18S14375   2.769   4.807   8.544  0.0695  0.1479 -1.1327
  133SAPE  C21914376   2.647   4.654   8.644  0.1742  0.8035  0.1365
  133SAPE  H19R14377   2.555   4.696   8.598 -0.2531  1.6218  1.6957
  133SAPE  H19S14378   2.652   4.679   8.752 -1.2924 -0.3966  0.4922
  133SAPE  C22014379   2.613   4.500   8.643  0.3696 -0.7397  0.2623
  133SAPE  H20R14380   2.618   4.461   8.539 -0.2805  2.5595 -1.0701
  133SAPE  H20S14381   2.516   4.478   8.692 -0.6205  2.6928  0.0209
  133SAPE  H20T14382   2.688   4.447   8.705  1.1660  1.7403  1.4962
  133SAPE   C3314383   3.547   4.563   9.896 -0.2614 -0.5750  0.1776
  133SAPE   H3X14384   3.647   4.522   9.924 -0.7387 -1.1922  1.0141
  133SAPE   H3Y14385   3.563   4.671   9.919  0.2381 -0.5492 -0.2713
  133SAPE   C3414386   3.529   4.549   9.744 -0.6906 -0.5042  0.7651
  133SAPE   H4X14387   3.430   4.576   9.700 -0.1607 -0.6211 -0.5055
  133SAPE   H4Y14388   3.531   4.439   9.728 -0.0112 -0.5849  1.3753
  133SAPE   C3514389   3.654   4.601   9.661  0.6291  0.4052 -0.2346
  133SAPE   H5X14390   3.740   4.553   9.714 -0.7020  0.4812  2.0729
  133SAPE   H5Y14391   3.673   4.709   9.678 -0.1293  0.5362 -0.2063
  133SAPE   C3614392   3.670   4.555   9.519  0.8375 -0.0999 -0.9037
  133SAPE   H6X14393   3.696   4.447   9.527 -0.2415 -0.2972  0.0317
  133SAPE   H6Y14394   3.750   4.608   9.464  1.2349 -0.3171 -0.5421
  133SAPE   C3714395   3.548   4.579   9.441  0.0123  0.2062  0.9213
  133SAPE   H7X14396   3.457   4.552   9.499 -0.2929  1.6838  1.1377
  133SAPE   H7Y14397   3.543   4.509   9.354  3.9045  3.1625 -1.8100
  133SAPE   C3814398   3.529   4.722   9.388  0.0374 -0.2917 -0.4653
  133SAPE   H8X14399   3.553   4.794   9.470  1.1569 -0.1933 -0.8825
  133SAPE   H8Y14400   3.421   4.729   9.363 -0.2667 -0.2868  0.8163
  133SAPE   C3914401   3.592   4.754   9.254 -0.2220  0.8563 -0.1876
  133SAPE   H9X14402   3.549   4.679   9.185  0.5940  1.2989 -1.2079
  133SAPE   H9Y14403   3.702   4.739   9.267 -0.4655 -0.4727  0.3916
  133SAPE  C31014404   3.563   4.905   9.205  0.3094 -0.2238 -0.4353
  133SAPE  H10X14405   3.559   4.963   9.300  0.6708  1.2182 -1.2876
  133SAPE  H10Y14406   3.461   4.917   9.163  0.3029 -3.4532 -1.5222
  133SAPE  C31114407   3.668   4.972   9.117 -0.7195  1.0236  0.5333
  133SAPE  H11X14408   3.729   5.034   9.186 -3.8485  1.7445  2.7742
  133SAPE  H11Y14409   3.631   5.050   9.046  1.4547  2.8035  1.3003
  133SAPE  C31214410   3.747   4.863   9.039  0.3737  0.4008  0.2212
  133SAPE  H12X14411   3.681   4.778   9.010  0.8907 -0.4381  1.4256
  133SAPE  H12Y14412   3.828   4.824   9.105  0.6611  1.1688  0.3308
  133SAPE  C31314413   3.811   4.908   8.904 -0.1125 -0.7434  0.1706
  133SAPE  H13X14414   3.726   4.930   8.836 -0.8953  0.0851  1.4112
  133SAPE  H13Y14415   3.866   4.821   8.861 -2.2067 -2.8331  1.5803
  133SAPE  C31414416   3.901   5.035   8.925 -0.2161 -0.5163  0.5191
  133SAPE  H14X14417   3.972   5.007   9.005  1.2461  0.5217 -0.3722
  133SAPE  H14Y14418   3.837   5.119   8.963  1.7081  1.1398  0.1775
  133SAPE  C31514419   3.963   5.088   8.789  0.3142 -0.1149 -0.7390
  133SAPE  H15X14420   3.880   5.094   8.715  1.0866 -0.4319 -1.6436
  133SAPE  H15Y14421   4.021   5.000   8.751 -0.2139 -0.4230 -0.8333
  133SAPE  C31614422   4.021   5.226   8.791 -0.0084 -0.2392 -0.0121
  133SAPE  H16X14423   4.102   5.229   8.867  0.7269 -2.5498 -0.6494
  133SAPE  H16Y14424   3.945   5.288   8.842  0.2983  2.2506 -2.4722
  133SAPE  C31714425   4.053   5.272   8.650  0.3051 -0.2550 -0.1953
  133SAPE  H17X14426   3.968   5.239   8.586 -0.5807  0.0568  0.8082
  133SAPE  H17Y14427   4.147   5.225   8.613 -0.5100 -1.3745 -0.8747
  133SAPE  C31814428   4.067   5.421   8.643  0.2887  0.4665 -0.0946
  133SAPE  H18X14429   4.071   5.450   8.535 -0.5707  0.6606 -0.0780
  133SAPE  H18Y14430   4.158   5.458   8.694 -1.0884  1.6615  1.5571
  133SAPE  H18Z14431   3.980   5.474   8.687  0.8861  2.5792 -1.3668
  134SAPE     N14432   5.917   6.411  10.804 -0.5497 -0.5188 -0.5485
  134SAPE   HN114433   5.828   6.358  10.808 -2.5067  2.6076 -0.2095
  134SAPE   HN214434   5.896   6.494  10.864 -2.3790 -1.5725  0.2972
  134SAPE   HN314435   5.924   6.427  10.701 -1.5198  0.7062 -0.4349
  134SAPE   C1214436   6.017   6.308  10.850 -0.1863  0.3677 -0.6864
  134SAPE  H12A14437   5.969   6.262  10.939  0.1925  0.3272 -0.5023
  134SAPE  H12B14438   6.109   6.361  10.882  0.6447 -2.2869  1.5791
  134SAPE   C1114439   6.043   6.195  10.745  0.8826  0.0049 -0.8180
  134SAPE  H11A14440   6.102   6.108  10.780 -1.6373 -1.5931 -0.4205
  134SAPE  H11B14441   6.102   6.249  10.667 -0.3201 -0.1184 -1.8264
  134SAPE     P14442   5.855   6.018  10.715 -0.2888  0.7755  0.0279
  134SAPE   O1314443   5.853   5.991  10.865 -0.0906  0.0697  0.2085
  134SAPE   O1414444   5.724   5.995  10.648  0.0092 -0.0835 -0.3313
  134SAPE   O1214445   5.915   6.158  10.685  0.1872 -0.2815  0.2979
  134SAPE   O1114446   5.968   5.917  10.661 -0.1432 -0.2552 -0.8423
  134SAPE    C114447   6.044   5.928  10.542 -0.4182  0.2302 -0.2620
  134SAPE    HA14448   6.030   6.021  10.484  1.4287  1.7227  1.6323
  134SAPE    HB14449   6.151   5.908  10.562 -0.4750  0.0344 -0.1462
  134SAPE    C214450   6.001   5.809  10.445  0.4541 -0.0335 -0.7233
  134SAPE    HS14451   6.089   5.760  10.399  1.6476 -0.5219  1.9286
  134SAPE   O2114452   5.908   5.857  10.346  0.1055 -0.3527 -0.5733
  134SAPE   C2114453   5.956   5.921  10.236  0.2211 -0.1116 -0.9304
  134SAPE   O2214454   6.059   5.978  10.234 -0.1175 -0.2055 -0.1958
  134SAPE   C2214455   5.861   5.890  10.117 -0.5689  0.3608 -0.1803
  134SAPE   H2R14456   5.858   5.779  10.109 -1.5625  0.3015  0.8892
  134SAPE   H2S14457   5.756   5.921  10.139 -1.1867 -1.0918 -1.0409
  134SAPE    C314458   5.929   5.699  10.534 -0.0674  0.0571  0.5068
  134SAPE    HX14459   5.825   5.727  10.563 -0.0741  1.4767 -0.8701
  134SAPE    HY14460   5.989   5.695  10.628 -0.7814 -1.4432  0.9228
  134SAPE   O3114461   5.926   5.566  10.475 -0.1421  0.0220  0.6902
  134SAPE   C3114462   5.824   5.528  10.411 -0.1102 -0.9699 -0.2531
  134SAPE   O3214463   5.716   5.588  10.402 -0.1686 -0.4999 -0.0550
  134SAPE   C3214464   5.850   5.393  10.345  0.0613  0.0927  0.5056
  134SAPE   H2X14465   5.757   5.352  10.300  2.5072 -3.1396 -1.8169
  134SAPE   H2Y14466   5.885   5.318  10.419 -0.2621 -1.3120 -0.7360
  134SAPE   C2314467   5.913   5.950   9.987 -0.2988  0.0776 -0.4448
  134SAPE   H3R14468   5.987   5.882   9.939  0.0375  0.6334 -0.7185
  134SAPE   H3S14469   5.943   6.056  10.005  0.3089 -0.1682  0.0146
  134SAPE   C2414470   5.801   5.966   9.888 -0.9092 -0.0459 -0.6385
  134SAPE   H4R14471   5.830   6.039   9.810 -0.3539  0.3075 -0.1104
  134SAPE   H4S14472   5.717   6.012   9.943  0.9158 -0.6683  2.8267
  134SAPE   C2514473   5.762   5.832   9.830 -0.0237  0.5635  0.2107
  134SAPE   H5R14474   5.712   5.767   9.904  3.2268  0.3539  2.3167
  134SAPE   C2614475   5.779   5.789   9.703  0.3651 -0.1647 -0.6526
  134SAPE   H6R14476   5.733   5.694   9.673 -0.5941  0.3606 -0.8603
  134SAPE   C2714477   5.837   5.878   9.598 -0.6047 -0.4970 -0.3108
  134SAPE   H7R14478   5.947   5.871   9.606 -0.6007  1.4876  1.6736
  134SAPE   H7S14479   5.820   5.986   9.620  0.4461 -1.0201  3.3700
  134SAPE   C2814480   5.803   5.854   9.451  0.1619  0.2372  0.8884
  134SAPE   H8R14481   5.730   5.775   9.430 -0.5550  1.3774 -1.1001
  134SAPE   C2914482   5.860   5.920   9.347  0.7298  0.4358  0.2828
  134SAPE   H9R14483   5.826   5.887   9.248 -0.1304 -0.1590  0.7663
  134SAPE  C21014484   5.969   6.023   9.351  0.3691 -0.1936  0.8261
  134SAPE  H10R14485   5.988   6.056   9.455 -0.9053 -1.0031  1.3321
  134SAPE  H10S14486   5.931   6.114   9.300 -1.9203 -0.3408  2.1652
  134SAPE  C21114487   6.096   5.974   9.298 -0.0589 -0.7397  0.3711
  134SAPE  H11R14488   6.130   5.889   9.358  1.5352 -0.0185  0.5075
  134SAPE  C21214489   6.162   6.006   9.184  0.3659 -0.0658 -0.4892
  134SAPE  H12R14490   6.256   5.964   9.145  0.0418 -0.7692 -0.5197
  134SAPE  C21314491   6.114   6.112   9.087  0.0108  0.2049  0.4642
  134SAPE  H13R14492   6.205   6.152   9.037 -0.8030 -0.6689 -1.7784
  134SAPE  H13S14493   6.067   6.190   9.150 -2.3893 -0.3246 -0.5912
  134SAPE  C21414494   6.008   6.069   8.988  1.1532  0.2237  0.2726
  134SAPE  H14R14495   5.909   6.089   9.030 -0.2622 -0.2907 -2.6753
  134SAPE  C21514496   6.029   6.025   8.860 -0.4656 -0.4160 -0.2790
  134SAPE  H15R14497   5.945   6.007   8.791  0.5346  0.8705 -1.8590
  134SAPE  C21614498   6.165   6.009   8.796  0.3305 -0.0285 -1.0148
  134SAPE  H16R14499   6.249   6.055   8.853 -1.6925  2.6305 -0.0654
  134SAPE  H16S14500   6.170   6.065   8.701 -1.7320  1.2431 -0.4201
  134SAPE  C21714501   6.208   5.864   8.765  0.0116  0.1991 -1.3202
  134SAPE  H17R14502   6.122   5.806   8.727 -1.1285  1.8014 -1.2424
  134SAPE  H17S14503   6.237   5.830   8.867  2.8483  0.8529 -1.8530
  134SAPE  C21814504   6.334   5.861   8.672  0.1346  0.2793 -0.3265
  134SAPE  H18R14505   6.370   5.757   8.664  0.0878  0.2037  0.3877
  134SAPE  H18S14506   6.426   5.918   8.699  0.9168 -0.2695 -1.7955
  134SAPE  C21914507   6.301   5.899   8.527 -0.5619 -0.4269 -0.6939
  134SAPE  H19R14508   6.222   5.978   8.532  0.2068  0.2484  1.4083
  134SAPE  H19S14509   6.248   5.818   8.472 -3.6837  1.7957 -1.1555
  134SAPE  C22014510   6.419   5.937   8.446  0.1102  0.3424  0.4433
  134SAPE  H20R14511   6.393   5.970   8.343  1.1786 -1.8038 -0.5513
  134SAPE  H20S14512   6.475   5.844   8.424 -0.1256  0.8812 -2.6989
  134SAPE  H20T14513   6.493   6.002   8.498 -2.1788  2.7441  0.7932
  134SAPE   C3314514   5.963   5.397  10.238 -0.4006  0.4260 -0.0807
  134SAPE   H3X14515   6.007   5.295  10.236  0.3277  0.7357 -0.0690
  134SAPE   H3Y14516   6.045   5.470  10.255 -0.1856 -0.0263  0.8550
  134SAPE   C3414517   5.913   5.419  10.094  0.2330  0.5491  0.6149
  134SAPE   H4X14518   5.826   5.487  10.093 -0.9595 -0.9474  1.1194
  134SAPE   H4Y14519   5.874   5.322  10.057  1.5761  0.8278 -1.6880
  134SAPE   C3514520   6.017   5.473   9.993 -0.0176 -0.3736  0.0441
  134SAPE   H5X14521   6.120   5.433  10.006  0.0964 -0.6626 -1.6735
  134SAPE   H5Y14522   6.038   5.581  10.009  1.9708 -0.8699  0.9481
  134SAPE   C3614523   5.973   5.442   9.852 -0.1484 -0.0578 -0.6113
  134SAPE   H6X14524   5.866   5.471   9.844  0.1894  0.9301 -1.7068
  134SAPE   H6Y14525   5.983   5.333   9.832 -2.3920 -0.4375  0.1623
  134SAPE   C3714526   6.064   5.515   9.748  0.0093  0.6128 -0.1311
  134SAPE   H7X14527   6.161   5.464   9.768 -0.7194 -0.3146  1.0988
  134SAPE   H7Y14528   6.068   5.626   9.757 -1.3053  0.5980  0.6801
  134SAPE   C3814529   6.020   5.482   9.605 -0.5464 -0.4624  0.0633
  134SAPE   H8X14530   5.924   5.535   9.583  0.5934  1.1877 -1.0678
  134SAPE   H8Y14531   6.011   5.372   9.603  0.5060 -0.5237 -1.6574
  134SAPE   C3914532   6.118   5.524   9.493  0.1676 -0.4919  0.5288
  134SAPE   H9X14533   6.222   5.507   9.528 -0.4617 -3.1722  1.2417
  134SAPE   H9Y14534   6.095   5.632   9.488 -0.4554 -0.5699  1.4713
  134SAPE  C31014535   6.088   5.476   9.354 -0.5520 -0.0213  0.0821
  134SAPE  H10X14536   5.984   5.479   9.316  0.5473 -1.5568 -3.2606
  134SAPE  H10Y14537   6.111   5.367   9.357 -1.1958 -0.1248  1.6222
  134SAPE  C31114538   6.173   5.546   9.256 -1.1105 -0.4720  0.0838
  134SAPE  H11X14539   6.275   5.538   9.300 -1.8122 -1.2783  1.5643
  134SAPE  H11Y14540   6.156   5.655   9.248  0.5069 -0.1163  1.1658
  134SAPE  C31214541   6.178   5.482   9.114  0.3822 -0.6285  0.4854
  134SAPE  H12X14542   6.073   5.472   9.080 -0.4851 -0.8817  3.0992
  134SAPE  H12Y14543   6.225   5.381   9.119 -1.8643 -1.7381  0.0734
  134SAPE  C31314544   6.258   5.564   9.016  0.5938 -0.1466 -0.7092
  134SAPE  H13X14545   6.363   5.530   9.030  0.3875  0.2541  2.1520
  134SAPE  H13Y14546   6.268   5.670   9.048  2.6695 -1.2773  2.7114
  134SAPE  C31414547   6.211   5.542   8.875 -0.5162  0.3087  0.1890
  134SAPE  H14X14548   6.280   5.593   8.804  1.8140  0.2488  2.3346
  134SAPE  H14Y14549   6.110   5.588   8.865 -0.4157  0.7155  1.0350
  134SAPE  C31514550   6.215   5.393   8.834 -0.3394  0.2347  0.5941
  134SAPE  H15X14551   6.162   5.332   8.910 -2.8464  0.3507 -1.0256
  134SAPE  H15Y14552   6.324   5.373   8.823 -0.2650  2.1046 -2.7296
  134SAPE  C31614553   6.148   5.360   8.697 -0.0740 -0.1883 -0.4610
  134SAPE  H16X14554   6.208   5.401   8.613 -1.0408  2.7310  0.2065
  134SAPE  H16Y14555   6.047   5.407   8.701 -1.2329 -2.7511  2.4901
  134SAPE  C31714556   6.131   5.208   8.688 -1.2469 -0.7756 -0.4093
  134SAPE  H17X14557   6.076   5.173   8.778  2.2326  1.1379  2.6329
  134SAPE  H17Y14558   6.227   5.152   8.687  0.7285  2.4352  0.0788
  134SAPE  C31814559   6.051   5.158   8.567 -0.0797  0.1786 -0.2864
  134SAPE  H18X14560   5.942   5.179   8.566 -0.3601 -1.0759  1.2340
  134SAPE  H18Y14561   6.061   5.048   8.553 -2.7021 -0.0148 -0.7402
  134SAPE  H18Z14562   6.099   5.202   8.477 -0.8376  0.7449 -0.4119
  135SAPE     N14563   5.423   4.329  10.591  0.2640  0.7394  0.2618
  135SAPE   HN114564   5.349   4.401  10.608 -2.1637 -1.6982  0.4129
  135SAPE   HN214565   5.484   4.328  10.675  0.0860 -0.2758  0.3859
  135SAPE   HN314566   5.467   4.349  10.499 -0.0287 -2.6258 -0.6607
  135SAPE   C1214567   5.350   4.198  10.582 -0.0879  0.5933 -0.5046
  135SAPE  H12A14568   5.277   4.199  10.497 -1.1276  1.2909  0.3781
  135SAPE  H12B14569   5.296   4.191  10.679 -1.1301  3.0415 -0.8697
  135SAPE   C1114570   5.430   4.065  10.542  0.8245  0.2270  0.6514
  135SAPE  H11A14571   5.352   3.996  10.504  1.2287  0.6046 -0.9213
  135SAPE  H11B14572   5.477   4.028  10.635 -0.9294 -1.7494  0.7917
  135SAPE     P14573   5.673   4.059  10.426 -0.3651  0.7737 -0.2462
  135SAPE   O1314574   5.748   4.184  10.441 -0.5833  0.0809 -0.4721
  135SAPE   O1414575   5.707   3.955  10.527  0.6872 -0.2969  0.0874
  135SAPE   O1214576   5.515   4.093  10.430  0.1156  0.0327 -0.1020
  135SAPE   O1114577   5.687   4.001  10.282 -0.4437 -0.3539  0.0792
  135SAPE    C114578   5.598   4.020  10.171  0.4678  0.2231  0.2111
  135SAPE    HA14579   5.582   4.129  10.158 -0.7334  0.4595  3.1781
  135SAPE    HB14580   5.651   3.988  10.080  1.1646  1.2640  0.2428
  135SAPE    C214581   5.462   3.945  10.179  0.0265 -0.0245  0.0790
  135SAPE    HS14582   5.407   3.998  10.259  1.0332 -0.2895  0.9537
  135SAPE   O2114583   5.487   3.808  10.221 -0.4991 -0.0750  0.5351
  135SAPE   C2114584   5.390   3.750  10.283  0.2623  0.2900 -0.2615
  135SAPE   O2214585   5.271   3.790  10.292  0.0658 -0.6006 -0.1331
  135SAPE   C2214586   5.447   3.634  10.369  0.0158  0.0996 -0.0465
  135SAPE   H2R14587   5.550   3.607  10.335 -0.9718 -3.1295 -0.5997
  135SAPE   H2S14588   5.476   3.676  10.468  0.2251  0.6212 -0.3273
  135SAPE    C314589   5.387   3.942  10.041 -0.8552 -0.4898  0.1992
  135SAPE    HX14590   5.283   3.905  10.030 -0.3563 -1.3860 -1.7366
  135SAPE    HY14591   5.446   3.872   9.978  2.0986 -1.1261  3.4902
  135SAPE   O3114592   5.399   4.070   9.980 -0.3212 -0.4141 -0.5567
  135SAPE   C3114593   5.321   4.170  10.019 -0.2877  0.6503  0.6759
  135SAPE   O3214594   5.228   4.169  10.097 -0.6349 -0.1309 -0.3502
  135SAPE   C3214595   5.368   4.297   9.965 -0.4771  0.2324 -0.3841
  135SAPE   H2X14596   5.472   4.304  10.005 -0.4480 -1.3425 -0.1590
  135SAPE   H2Y14597   5.311   4.384  10.004 -0.2997  0.4762 -0.6659
  135SAPE   C2314598   5.355   3.512  10.382 -0.3421 -0.2857  0.3707
  135SAPE   H3R14599   5.253   3.539  10.416  0.4354  2.7224  0.4527
  135SAPE   H3S14600   5.387   3.443  10.463  1.0301  0.1893  0.2472
  135SAPE   C2414601   5.334   3.426  10.253 -0.3908  0.7526 -0.2702
  135SAPE   H4R14602   5.315   3.496  10.169 -1.5225  0.6873 -0.0775
  135SAPE   H4S14603   5.248   3.365  10.289  1.6656 -0.8070  2.1887
  135SAPE   C2514604   5.453   3.328  10.230  0.1789 -0.0635  0.8008
  135SAPE   H5R14605   5.456   3.243  10.299 -0.8611  0.5195  1.5995
  135SAPE   C2614606   5.535   3.332  10.120 -0.4560  0.0993 -1.2284
  135SAPE   H6R14607   5.618   3.261  10.116 -0.2017  0.4056 -1.4348
  135SAPE   C2714608   5.528   3.444  10.021  0.0369 -0.9435 -1.2221
  135SAPE   H7R14609   5.632   3.448   9.982  0.7061  0.1899  0.6077
  135SAPE   H7S14610   5.506   3.545  10.063  1.3108 -1.6952  1.4046
  135SAPE   C2814611   5.429   3.422   9.907 -0.0790 -0.1977  0.4133
  135SAPE   H8R14612   5.335   3.377   9.943 -0.7007 -0.1579 -1.1294
  135SAPE   C2914613   5.430   3.450   9.777  0.5447 -1.1214 -0.4430
  135SAPE   H9R14614   5.345   3.417   9.715  1.0475 -2.3628 -0.4883
  135SAPE  C21014615   5.536   3.525   9.705  0.1809  0.1709 -0.8951
  135SAPE  H10R14616   5.600   3.583   9.775 -2.0834  1.5251  0.1011
  135SAPE  H10S14617   5.488   3.607   9.647  1.1280 -0.1091 -2.1085
  135SAPE  C21114618   5.600   3.429   9.608 -0.0343 -0.5023  0.0807
  135SAPE  H11R14619   5.686   3.379   9.653 -0.6326 -1.5520  0.0662
  135SAPE  C21214620   5.570   3.403   9.477 -0.5860 -0.2313 -0.1293
  135SAPE  H12R14621   5.633   3.331   9.422 -2.9804 -1.1931 -1.6718
  135SAPE  C21314622   5.455   3.468   9.404  0.3378  0.3222 -0.4565
  135SAPE  H13R14623   5.405   3.553   9.455 -0.2457  1.0081 -2.1337
  135SAPE  H13S14624   5.373   3.395   9.391  0.0164  0.4593  0.7520
  135SAPE  C21414625   5.502   3.519   9.272  0.3420 -0.1674 -0.2731
  135SAPE  H14R14626   5.594   3.580   9.278  0.1780  0.2107 -1.4824
  135SAPE  C21514627   5.415   3.528   9.168 -0.3791 -0.6141 -0.5691
  135SAPE  H15R14628   5.439   3.594   9.083 -1.4390  0.3720 -0.1209
  135SAPE  C21614629   5.268   3.488   9.156  0.2005 -0.7866 -0.0550
  135SAPE  H16R14630   5.208   3.581   9.168 -2.3823 -2.4304  0.0449
  135SAPE  H16S14631   5.239   3.423   9.242 -3.4800 -0.1531 -0.7345
  135SAPE  C21714632   5.240   3.427   9.020 -0.3015 -0.3544 -0.6002
  135SAPE  H17R14633   5.212   3.324   9.051 -0.8501 -0.8396 -2.6277
  135SAPE  H17S14634   5.330   3.428   8.956  0.6635 -1.7500  0.6937
  135SAPE  C21814635   5.126   3.482   8.948 -0.5749  0.1558 -0.4081
  135SAPE  H18R14636   5.154   3.583   8.911 -0.0331  0.9009  1.9704
  135SAPE  H18S14637   5.042   3.490   9.021 -0.9911 -1.0398 -0.7490
  135SAPE  C21914638   5.068   3.408   8.826 -0.1428  0.8174  0.2505
  135SAPE  H19R14639   5.023   3.316   8.868 -2.4741  1.1464 -1.3981
  135SAPE  H19S14640   5.156   3.373   8.766  0.4659  1.0609  1.0049
  135SAPE  C22014641   4.961   3.481   8.744  0.1232 -0.4733 -0.1391
  135SAPE  H20R14642   4.932   3.425   8.652 -0.3583  1.3288 -1.0935
  135SAPE  H20S14643   5.003   3.574   8.701 -0.5782  0.0487  0.3008
  135SAPE  H20T14644   4.867   3.503   8.797  0.2494  1.3151 -0.6293
  135SAPE   C3314645   5.364   4.311   9.813 -0.0710 -0.3003 -0.2270
  135SAPE   H3X14646   5.259   4.302   9.779  0.8769  0.4488 -3.5974
  135SAPE   H3Y14647   5.420   4.231   9.760  0.0716  0.7353 -1.6723
  135SAPE   C3414648   5.416   4.441   9.764 -0.0695 -0.1633  0.7385
  135SAPE   H4X14649   5.526   4.448   9.781 -0.0865  1.9758  0.0327
  135SAPE   H4Y14650   5.375   4.532   9.812  0.7102  0.2063  0.7021
  135SAPE   C3514651   5.404   4.472   9.615  0.0353  0.0849 -0.0265
  135SAPE   H5X14652   5.458   4.568   9.600  0.4621 -0.2711 -0.7788
  135SAPE   H5Y14653   5.300   4.492   9.580 -0.4314 -1.4462  0.4425
  135SAPE   C3614654   5.465   4.365   9.519  0.7711 -0.6304 -0.6777
  135SAPE   H6X14655   5.401   4.275   9.518 -0.2971  0.1116 -0.1746
  135SAPE   H6Y14656   5.566   4.349   9.563  0.7318  2.8474  0.8666
  135SAPE   C3714657   5.471   4.406   9.367 -0.1963  0.2379  0.8369
  135SAPE   H7X14658   5.545   4.489   9.365  0.0559  0.0252  1.3002
  135SAPE   H7Y14659   5.372   4.444   9.336 -0.2304  0.3348  1.0610
  135SAPE   C3814660   5.511   4.290   9.272  0.0431 -0.5719 -0.1871
  135SAPE   H8X14661   5.430   4.215   9.287 -0.8348 -0.0706 -2.3444
  135SAPE   H8Y14662   5.610   4.256   9.311  0.9265  1.0546 -0.9641
  135SAPE   C3914663   5.533   4.323   9.127  0.5453  0.9125 -0.1806
  135SAPE   H9X14664   5.589   4.239   9.080 -0.8172 -0.1415  0.0455
  135SAPE   H9Y14665   5.598   4.413   9.120  0.7953  0.8082  0.7468
  135SAPE  C31014666   5.406   4.348   9.046 -0.4477 -0.0609  0.3038
  135SAPE  H10X14667   5.355   4.437   9.087 -2.5460 -1.3148  0.4993
  135SAPE  H10Y14668   5.348   4.255   9.068 -1.1569  0.7609  1.9590
  135SAPE  C31114669   5.424   4.357   8.892 -0.0192  0.5355  0.4809
  135SAPE  H11X14670   5.320   4.339   8.856 -0.6831  4.0602  0.4928
  135SAPE  H11Y14671   5.497   4.279   8.863 -0.1509 -0.0062  1.5474
  135SAPE  C31214672   5.467   4.492   8.841 -0.4076 -0.2637  0.4595
  135SAPE  H12X14673   5.561   4.522   8.891  0.3273  1.2082 -1.7311
  135SAPE  H12Y14674   5.397   4.571   8.876  0.8618  0.6860  0.8918
  135SAPE  C31314675   5.475   4.504   8.682  0.5457  0.2990  0.0343
  135SAPE  H13X14676   5.512   4.602   8.645  1.0804 -0.4375 -1.4340
  135SAPE  H13Y14677   5.374   4.494   8.637 -0.2874  0.6384  1.7868
  135SAPE  C31414678   5.571   4.403   8.629 -0.3278  0.0894  0.4145
  135SAPE  H14X14679   5.530   4.303   8.654 -1.8788  1.0238  1.7115
  135SAPE  H14Y14680   5.670   4.421   8.676 -1.5060  0.5803  2.7876
  135SAPE  C31514681   5.568   4.423   8.476 -0.4138  0.1703  0.4309
  135SAPE  H15X14682   5.464   4.433   8.438 -0.9467  1.2440  2.1072
  135SAPE  H15Y14683   5.625   4.340   8.429  0.5148 -0.3057  2.3417
  135SAPE  C31614684   5.642   4.551   8.422  0.5913  0.0703  0.3557
  135SAPE  H16X14685   5.748   4.553   8.457 -0.2579 -0.9466  3.1784
  135SAPE  H16Y14686   5.584   4.642   8.449  0.4604  0.4936 -1.2929
  135SAPE  C31714687   5.649   4.552   8.273 -0.2800 -0.1184 -0.2319
  135SAPE  H17X14688   5.546   4.537   8.236 -1.3185  3.4267  1.0230
  135SAPE  H17Y14689   5.722   4.476   8.235  2.9928  2.8688 -0.1923
  135SAPE  C31814690   5.706   4.688   8.221 -0.1742 -0.1519 -0.0063
  135SAPE  H18X14691   5.662   4.779   8.268 -3.4285 -0.8411 -1.6172
  135SAPE  H18Y14692   5.699   4.700   8.111 -1.5179 -0.9325 -0.0134
  135SAPE  H18Z14693   5.812   4.690   8.255 -1.0144  1.5585  2.6260
  136SAPE     N14694   0.659   4.512  10.749 -0.3673 -0.0620 -0.5313
  136SAPE   HN114695   0.611   4.431  10.793  1.7002  0.1382  2.1756
  136SAPE   HN214696   0.616   4.527  10.655  1.5856  1.2847 -1.2627
  136SAPE   HN314697   0.755   4.476  10.733  0.2174  0.2089  2.1162
  136SAPE   C1214698   0.651   4.640  10.831  0.1828  0.2691  0.5610
  136SAPE  H12A14699   0.558   4.646  10.891 -1.6439 -2.3563 -1.8788
  136SAPE  H12B14700   0.643   4.720  10.755 -1.1649  0.3968  0.8309
  136SAPE   C1114701   0.773   4.665  10.921  0.4990  0.5374 -0.6553
  136SAPE  H11A14702   0.804   4.574  10.976  2.0109  0.2008 -2.0255
  136SAPE  H11B14703   0.739   4.729  11.005 -0.0818  1.5791 -1.6758
  136SAPE     P14704   1.019   4.647  10.798  0.4291 -0.2460 -0.4107
  136SAPE   O1314705   1.135   4.677  10.886 -0.0984 -0.5761 -0.0436
  136SAPE   O1414706   0.998   4.505  10.777 -0.1159  0.1710 -0.8482
  136SAPE   O1214707   0.883   4.725  10.851 -1.0528  0.1493  0.2680
  136SAPE   O1114708   1.058   4.720  10.672 -0.3571  0.3980  0.0645
  136SAPE    C114709   0.963   4.717  10.557 -0.4117 -0.4673 -0.1980
  136SAPE    HA14710   0.889   4.635  10.573 -0.7967  0.0581  0.7538
  136SAPE    HB14711   0.914   4.816  10.545 -0.5696 -0.7167 -1.7244
  136SAPE    C214712   1.043   4.685  10.429 -1.0294 -0.4462 -0.3680
  136SAPE    HS14713   1.143   4.649  10.462  0.4192  1.9543 -1.9702
  136SAPE   O2114714   1.055   4.812  10.361  0.2781  0.8335  0.1326
  136SAPE   C2114715   1.163   4.816  10.282 -0.6606  0.0748  0.9137
  136SAPE   O2214716   1.246   4.732  10.262 -0.0421  0.0831  0.3048
  136SAPE   C2214717   1.156   4.952  10.202  0.7875 -0.0318  0.2535
  136SAPE   H2R14718   1.056   4.961  10.154  1.4800  2.3087 -0.8201
  136SAPE   H2S14719   1.172   5.034  10.276  1.7510 -0.6223  0.7138
  136SAPE    C314720   0.970   4.580  10.335  0.2114 -0.0585  0.3977
  136SAPE    HX14721   0.866   4.613  10.312  0.7565  1.2813 -0.2104
  136SAPE    HY14722   0.956   4.492  10.401  1.9029  0.0007  0.8515
  136SAPE   O3114723   1.030   4.551  10.210 -0.2569 -0.4745  0.0999
  136SAPE   C3114724   1.115   4.446  10.209 -0.2632  1.0529  0.6429
  136SAPE   O3214725   1.147   4.376  10.307  0.5145 -0.3801  0.4752
  136SAPE   C3214726   1.167   4.427  10.069  0.2241 -0.6820 -0.1088
  136SAPE   H2X14727   1.274   4.456  10.063  0.2307 -0.9272 -1.1715
  136SAPE   H2Y14728   1.110   4.497  10.004 -0.7290 -2.3267 -1.0757
  136SAPE   C2314729   1.261   4.971  10.092 -0.0404 -0.2602 -0.3775
  136SAPE   H3R14730   1.269   4.877  10.032 -1.6174  0.0053 -1.0418
  136SAPE   H3S14731   1.357   4.985  10.144 -0.3557  1.2051 -0.1872
  136SAPE   C2414732   1.218   5.079   9.994  0.3825  0.5602 -0.3469
  136SAPE   H4R14733   1.227   5.169  10.059  3.4545  0.0495  0.0247
  136SAPE   H4S14734   1.114   5.051   9.966  1.0163 -1.9188 -0.3057
  136SAPE   C2514735   1.313   5.073   9.876 -0.3766 -0.5124 -0.3635
  136SAPE   H5R14736   1.418   5.053   9.902 -0.4072  0.8720  0.9109
  136SAPE   C2614737   1.285   5.081   9.741 -0.0866  0.5134 -0.4492
  136SAPE   H6R14738   1.367   5.081   9.668  0.0766  1.1660 -0.2695
  136SAPE   C2714739   1.143   5.073   9.681  0.8168  0.0015  0.0807
  136SAPE   H7R14740   1.069   5.080   9.763  0.5948 -1.1628 -0.0101
  136SAPE   H7S14741   1.142   4.968   9.646  0.7318 -0.3790  1.2046
  136SAPE   C2814742   1.135   5.183   9.582 -0.0892  0.1985 -0.6697
  136SAPE   H8R14743   1.128   5.285   9.621  0.0850  0.7173 -1.9808
  136SAPE   C2914744   1.139   5.168   9.448  0.4017 -0.4862 -0.4627
  136SAPE   H9R14745   1.153   5.256   9.384  1.3428  0.0261  0.4268
  136SAPE  C21014746   1.169   5.041   9.379  0.3907 -0.2452  1.5395
  136SAPE  H10R14747   1.129   4.950   9.429  2.3865 -3.6124 -2.6580
  136SAPE  H10S14748   1.279   5.043   9.364  0.0390 -1.6234 -1.4999
  136SAPE  C21114749   1.098   5.038   9.242 -0.4964  0.4136  0.1969
  136SAPE  H11R14750   0.990   5.060   9.245 -0.5302  0.0955  2.6886
  136SAPE  C21214751   1.148   5.000   9.121 -0.0074  0.4390  0.3634
  136SAPE  H12R14752   1.088   4.995   9.029 -0.5797  2.8272  0.5821
  136SAPE  C21314753   1.292   4.973   9.099  0.0967  0.5406 -0.4546
  136SAPE  H13R14754   1.357   5.047   9.152  0.6372 -0.4111  0.2221
  136SAPE  H13S14755   1.317   4.985   8.991 -0.0444 -0.8327 -0.6486
  136SAPE  C21414756   1.321   4.835   9.150 -0.0940  0.0743  0.2566
  136SAPE  H14R14757   1.321   4.825   9.260 -1.6515 -1.9038  0.1125
  136SAPE  C21514758   1.365   4.726   9.075 -0.2396 -0.9345  0.1682
  136SAPE  H15R14759   1.394   4.632   9.124  1.0784 -1.3961 -1.4362
  136SAPE  C21614760   1.382   4.724   8.922  0.1346  0.1355  0.7558
  136SAPE  H16R14761   1.483   4.688   8.895 -0.6311 -1.2313 -0.3526
  136SAPE  H16S14762   1.372   4.824   8.873 -0.8131 -0.0431  0.5675
  136SAPE  C21714763   1.277   4.639   8.846 -0.3691 -0.4967  0.5136
  136SAPE  H17R14764   1.178   4.670   8.886  0.4840  0.4235  1.9697
  136SAPE  H17S14765   1.287   4.531   8.871 -0.5869 -0.0953  2.4100
  136SAPE  C21814766   1.296   4.648   8.694  0.9069 -0.3014 -1.3956
  136SAPE  H18R14767   1.400   4.611   8.681  2.1564  1.8329  1.7592
  136SAPE  H18S14768   1.292   4.755   8.663 -1.5594 -0.0821 -0.4598
  136SAPE  C21914769   1.182   4.564   8.621  0.2157 -0.1780  0.3207
  136SAPE  H19R14770   1.081   4.604   8.647 -0.7766 -1.9025 -0.8436
  136SAPE  H19S14771   1.183   4.464   8.669 -1.1880  1.5063  4.0956
  136SAPE  C22014772   1.215   4.553   8.476  0.4238  0.5077  0.1095
  136SAPE  H20R14773   1.189   4.643   8.414  2.9520 -0.1927 -2.0695
  136SAPE  H20S14774   1.166   4.466   8.427  0.4192  1.0735 -0.9069
  136SAPE  H20T14775   1.323   4.530   8.469  0.2525 -0.6826  1.3135
  136SAPE   C3314776   1.143   4.288  10.014 -0.2604 -0.4036 -1.2315
  136SAPE   H3X14777   1.043   4.245  10.038 -0.6586  0.4882 -1.3067
  136SAPE   H3Y14778   1.225   4.230  10.063 -0.5636  2.5819  3.0826
  136SAPE   C3414779   1.160   4.287   9.860  0.0811  1.1162 -0.0085
  136SAPE   H4X14780   1.261   4.327   9.833  0.2661  0.4039 -0.3866
  136SAPE   H4Y14781   1.081   4.354   9.820 -1.6597 -0.8051  0.1612
  136SAPE   C3514782   1.157   4.142   9.809 -0.8083  0.7967 -0.3092
  136SAPE   H5X14783   1.059   4.100   9.840 -0.3355  0.0748  0.2110
  136SAPE   H5Y14784   1.244   4.082   9.843 -2.0182 -1.3366 -0.9296
  136SAPE   C3614785   1.170   4.138   9.658  0.2724 -0.7524 -0.4568
  136SAPE   H6X14786   1.270   4.164   9.618 -0.8086  2.5607 -1.1422
  136SAPE   H6Y14787   1.099   4.218   9.627  0.5884  1.1723  3.3649
  136SAPE   C3714788   1.137   3.999   9.595 -0.3011 -0.7339 -0.0232
  136SAPE   H7X14789   1.037   3.964   9.630 -0.7226  1.0832  0.6474
  136SAPE   H7Y14790   1.213   3.924   9.623 -1.5574 -1.9638  0.1338
  136SAPE   C3814791   1.138   4.003   9.441  0.5200 -0.4976  0.5524
  136SAPE   H8X14792   1.233   4.051   9.409  0.0474  1.8019  2.5337
  136SAPE   H8Y14793   1.054   4.066   9.404  1.6984  0.1603 -1.0497
  136SAPE   C3914794   1.128   3.856   9.384  0.2537 -0.4826  0.6743
  136SAPE   H9X14795   1.039   3.807   9.430 -0.9099 -0.7029 -1.7269
  136SAPE   H9Y14796   1.221   3.808   9.420 -0.5621 -0.8666  2.3392
  136SAPE  C31014797   1.129   3.848   9.230  0.0960 -0.2941 -0.5911
  136SAPE  H10X14798   1.201   3.925   9.197 -1.7755  0.8673 -2.0127
  136SAPE  H10Y14799   1.032   3.879   9.186  0.1692 -0.3982 -0.8247
  136SAPE  C31114800   1.160   3.710   9.178 -0.1387  0.1095  0.3593
  136SAPE  H11X14801   1.072   3.648   9.207 -0.5375 -0.1806 -1.3839
  136SAPE  H11Y14802   1.242   3.689   9.249  0.9599  0.5649 -0.7543
  136SAPE  C31214803   1.199   3.704   9.033  0.0753  0.1865 -0.6814
  136SAPE  H12X14804   1.271   3.784   9.006  0.3519  0.2783  0.3018
  136SAPE  H12Y14805   1.105   3.719   8.976  0.2411  2.0418 -0.4730
  136SAPE  C31314806   1.247   3.562   8.992  0.0959 -0.3423 -0.0549
  136SAPE  H13X14807   1.163   3.491   9.007  1.0035 -0.6933  4.1316
  136SAPE  H13Y14808   1.334   3.535   9.055  0.6379 -3.4851 -2.0360
  136SAPE  C31414809   1.296   3.545   8.847 -0.4601 -0.4667 -0.0006
  136SAPE  H14X14810   1.383   3.613   8.833  0.9074 -2.0751  0.4486
  136SAPE  H14Y14811   1.221   3.579   8.773 -1.7750  1.4090  2.1707
  136SAPE  C31514812   1.351   3.403   8.806 -0.0874 -0.3436 -0.0164
  136SAPE  H15X14813   1.262   3.336   8.812 -2.5610  2.7142 -1.7299
  136SAPE  H15Y14814   1.429   3.349   8.866 -1.3829 -0.5327  1.5497
  136SAPE  C31614815   1.393   3.401   8.657 -0.3048 -0.4069  0.8810
  136SAPE  H16X14816   1.328   3.466   8.595  1.2413 -0.1171 -0.4953
  136SAPE  H16Y14817   1.387   3.297   8.618 -2.1753  1.4768 -4.3363
  136SAPE  C31714818   1.540   3.441   8.649  0.7837 -0.3083  0.1361
  136SAPE  H17X14819   1.608   3.376   8.708 -0.0813 -1.3042  0.0470
  136SAPE  H17Y14820   1.539   3.542   8.694 -0.5048 -1.8402  3.7161
  136SAPE  C31814821   1.585   3.437   8.501  0.1893  0.7134 -0.8152
  136SAPE  H18X14822   1.690   3.468   8.481  0.8593 -1.4887 -0.8034
  136SAPE  H18Y14823   1.523   3.506   8.438  1.0793  1.7081 -0.6135
  136SAPE  H18Z14824   1.569   3.334   8.464  0.5201  0.8719 -1.4155
  137SAPE     N14825   6.676   0.015  11.009 -0.5643 -0.0765 -0.2975
  137SAPE   HN114826   6.605   0.090  10.995 -0.3977  0.0542 -0.4307
  137SAPE   HN214827   6.769   0.060  11.017 -0.0300 -1.6476  2.9614
  137SAPE   HN314828   6.669  -0.046  10.925  0.3423 -0.4566 -0.0979
  137SAPE   C1214829   6.642  -0.071  11.131 -0.7722  0.4075  0.7265
  137SAPE  H12A14830   6.580  -0.002  11.193 -0.0370  1.2635  0.5202
  137SAPE  H12B14831   6.734  -0.113  11.177 -1.8515 -2.3757  0.4136
  137SAPE   C1114832   6.561  -0.200  11.091  0.1120 -0.1302  1.0329
  137SAPE  H11A14833   6.544  -0.246  11.191  0.7785 -4.6139 -0.7694
  137SAPE  H11B14834   6.625  -0.262  11.024 -0.9305  0.3267 -0.4167
  137SAPE     P14835   6.309  -0.244  11.024  0.0810 -0.3185 -0.0386
  137SAPE   O1314836   6.329  -0.390  11.002 -0.9470 -0.2101 -0.2877
  137SAPE   O1414837   6.250  -0.202  11.154  0.1385 -0.5016  0.2003
  137SAPE   O1214838   6.442  -0.165  11.018  0.1715  0.1715 -0.3778
  137SAPE   O1114839   6.241  -0.168  10.900  0.5675 -0.1871  0.0836
  137SAPE    C114840   6.240  -0.022  10.899 -0.3846 -0.0539 -0.0401
  137SAPE    HA14841   6.152   0.018  10.955  1.2366  1.7224  1.3022
  137SAPE    HB14842   6.326   0.018  10.957 -0.0361 -1.0583  0.1422
  137SAPE    C214843   6.250   0.023  10.756 -0.0323 -0.6028  0.4804
  137SAPE    HS14844   6.235   0.133  10.753 -2.1541 -0.9136 -2.6721
  137SAPE   O2114845   6.142  -0.039  10.691 -0.2945 -0.1314 -0.4807
  137SAPE   C2114846   6.030   0.023  10.683  0.2076 -0.4781 -0.0749
  137SAPE   O2214847   5.999   0.129  10.746  0.1886  0.1905 -0.1904
  137SAPE   C2214848   5.934  -0.063  10.607 -0.4204  0.0841 -0.0958
  137SAPE   H2R14849   5.984  -0.119  10.525  1.1957  1.9352 -0.4137
  137SAPE   H2S14850   5.888  -0.137  10.676  1.5656 -0.4967  0.6219
  137SAPE    C314851   6.387  -0.015  10.708 -0.2105 -0.2638 -0.0199
  137SAPE    HX14852   6.393  -0.125  10.720 -4.9598 -0.6282 -0.0138
  137SAPE    HY14853   6.466   0.024  10.775 -0.4396  0.7062 -0.3061
  137SAPE   O3114854   6.404   0.021  10.579  0.2207  0.2632  0.4528
  137SAPE   C3114855   6.381  -0.064  10.481  0.4724  0.0578  0.1263
  137SAPE   O3214856   6.349  -0.181  10.494  0.1574  0.4442  0.6187
  137SAPE   C3214857   6.371   0.011  10.348  0.1137  0.0703  0.8056
  137SAPE   H2X14858   6.398   0.118  10.362 -0.4239  0.0731  1.9222
  137SAPE   H2Y14859   6.261   0.013  10.332  0.2266 -3.3168 -0.8423
  137SAPE   C2314860   5.830   0.027  10.537 -0.2219 -0.5176 -0.4363
  137SAPE   H3R14861   5.768   0.068  10.619 -0.1120 -0.0318 -0.5968
  137SAPE   H3S14862   5.764  -0.043  10.482 -0.7200 -0.1605 -0.2997
  137SAPE   C2414863   5.888   0.130  10.436  0.5127  0.2471  0.3061
  137SAPE   H4R14864   5.992   0.146  10.471  0.2862  1.4184  0.4478
  137SAPE   H4S14865   5.828   0.222  10.453 -0.5730 -0.3674 -0.1654
  137SAPE   C2514866   5.878   0.088  10.287  0.0036 -0.5363 -0.2381
  137SAPE   H5R14867   5.887  -0.020  10.268 -1.9059 -0.2904 -2.8122
  137SAPE   C2614868   5.861   0.171  10.180 -0.8522  0.0580 -0.4532
  137SAPE   H6R14869   5.864   0.132  10.077 -3.3196 -0.3860 -0.3934
  137SAPE   C2714870   5.842   0.321  10.187  0.2795  0.4839  0.4161
  137SAPE   H7R14871   5.903   0.367  10.106  1.4287  1.0619  1.5755
  137SAPE   H7S14872   5.883   0.359  10.283 -1.7154 -2.7077  2.6110
  137SAPE   C2814873   5.697   0.357  10.163  0.0187  0.5541  0.5132
  137SAPE   H8R14874   5.645   0.377  10.258 -0.0730  1.1657  0.3386
  137SAPE   C2914875   5.626   0.379  10.049  0.9031  0.0514  0.1873
  137SAPE   H9R14876   5.523   0.417  10.043  1.4941  1.5322 -0.9555
  137SAPE  C21014877   5.689   0.353   9.916 -0.2799  0.2013  0.0183
  137SAPE  H10R14878   5.650   0.255   9.880  1.5576 -0.0153 -1.4503
  137SAPE  H10S14879   5.797   0.330   9.922 -0.2230  0.9308  2.1530
  137SAPE  C21114880   5.668   0.465   9.812  0.0265  0.2252 -1.2845
  137SAPE  H11R14881   5.732   0.554   9.823 -1.1441  0.8591  0.4474
  137SAPE  C21214882   5.590   0.445   9.703  0.5398 -0.4963 -0.3980
  137SAPE  H12R14883   5.601   0.507   9.612  0.6640 -2.3851 -1.7113
  137SAPE  C21314884   5.507   0.317   9.678 -0.0144 -0.4859  0.0201
  137SAPE  H13R14885   5.418   0.352   9.621  0.3641  1.1326  0.3910
  137SAPE  H13S14886   5.467   0.286   9.776  0.6848  0.3403  0.5747
  137SAPE  C21414887   5.567   0.204   9.598  0.2837  0.4470  0.4003
  137SAPE  H14R14888   5.675   0.193   9.617 -0.1417 -1.0282  2.1009
  137SAPE  C21514889   5.505   0.139   9.496  0.1284 -0.2893 -0.3530
  137SAPE  H15R14890   5.549   0.055   9.441 -0.6903 -1.5652  0.9141
  137SAPE  C21614891   5.361   0.147   9.447  0.5919  0.2020  0.3269
  137SAPE  H16R14892   5.296   0.198   9.521 -1.1266 -1.0481 -0.2969
  137SAPE  H16S14893   5.318   0.046   9.433 -0.3339  0.5698  0.4784
  137SAPE  C21714894   5.352   0.235   9.323 -0.0500 -0.1660  0.1004
  137SAPE  H17R14895   5.409   0.330   9.336 -1.7509  0.6664  1.5385
  137SAPE  H17S14896   5.245   0.262   9.314 -0.0274 -0.6042 -1.7477
  137SAPE  C21814897   5.396   0.166   9.187  0.6717 -0.5652 -0.0351
  137SAPE  H18R14898   5.336   0.075   9.165 -0.5406  0.3906 -0.7766
  137SAPE  H18S14899   5.504   0.139   9.195  0.6312 -0.7736 -0.1695
  137SAPE  C21914900   5.380   0.276   9.075  0.1654 -0.1386 -0.0595
  137SAPE  H19R14901   5.426   0.370   9.110 -1.0720  0.4862 -0.0848
  137SAPE  H19S14902   5.271   0.295   9.066  0.0905 -0.7550 -0.4943
  137SAPE  C22014903   5.437   0.242   8.936 -0.1675  0.1436 -0.1423
  137SAPE  H20R14904   5.546   0.257   8.944 -0.0043 -1.2137  0.2555
  137SAPE  H20S14905   5.388   0.309   8.861 -1.9336  0.7198  1.4835
  137SAPE  H20T14906   5.418   0.137   8.908 -1.9091  0.5840 -0.6785
  137SAPE   C3314907   6.433  -0.059  10.229 -0.3750 -0.5148  0.0153
  137SAPE   H3X14908   6.382  -0.157  10.221  1.9525 -1.8740  1.2262
  137SAPE   H3Y14909   6.543  -0.063  10.242 -0.3146 -0.8755 -0.5657
  137SAPE   C3414910   6.416   0.009  10.090 -0.1555 -0.3340 -0.2582
  137SAPE   H4X14911   6.440  -0.067  10.013  0.7052 -0.8525  0.5072
  137SAPE   H4Y14912   6.480   0.100  10.084  0.1186 -0.5133 -0.0481
  137SAPE   C3514913   6.275   0.060  10.064  0.9440 -0.7012  0.1501
  137SAPE   H5X14914   6.246   0.150  10.122 -0.0369 -1.1028  0.3014
  137SAPE   H5Y14915   6.199  -0.015  10.093  1.4502 -0.6601  1.6281
  137SAPE   C3614916   6.255   0.088   9.907 -0.0282 -0.1357  0.9134
  137SAPE   H6X14917   6.275  -0.009   9.856 -0.7857 -0.2692  0.8654
  137SAPE   H6Y14918   6.323   0.170   9.874  2.7626 -3.4080 -1.8390
  137SAPE   C3714919   6.113   0.126   9.874 -0.0977 -0.3362 -0.1667
  137SAPE   H7X14920   6.080   0.208   9.940  3.2124  1.0448 -0.1265
  137SAPE   H7Y14921   6.043   0.044   9.903  0.3094 -0.2453  1.0863
  137SAPE   C3814922   6.102   0.166   9.725  0.1410 -0.3974 -0.0524
  137SAPE   H8X14923   6.106   0.074   9.663  0.8926 -0.3157 -0.1301
  137SAPE   H8Y14924   6.183   0.241   9.714  1.4901 -1.9759 -1.0478
  137SAPE   C3914925   5.968   0.233   9.692  0.4965  0.1830  0.1603
  137SAPE   H9X14926   5.943   0.321   9.755 -3.1493 -0.1275 -0.7564
  137SAPE   H9Y14927   5.889   0.160   9.718  0.5767  0.6993  1.8833
  137SAPE  C31014928   5.944   0.263   9.548  0.1765 -0.3964  0.7181
  137SAPE  H10X14929   6.006   0.351   9.521  0.6717 -1.8050 -3.0426
  137SAPE  H10Y14930   5.836   0.289   9.550  0.2532  0.3625 -2.4923
  137SAPE  C31114931   5.961   0.144   9.448 -0.3571 -0.0556 -0.4946
  137SAPE  H11X14932   5.918   0.056   9.502  0.2256  0.2573  0.4825
  137SAPE  H11Y14933   6.068   0.120   9.429  0.7141  2.6752  1.8360
  137SAPE  C31214934   5.879   0.165   9.319  0.1852  0.0576  0.5603
  137SAPE  H12X14935   5.924   0.246   9.257 -1.0257  0.6732  0.4700
  137SAPE  H12Y14936   5.776   0.197   9.348 -0.7145 -3.9327  2.1097
  137SAPE  C31314937   5.862   0.040   9.233 -0.1478  0.2376 -0.6659
  137SAPE  H13X14938   5.782  -0.027   9.271  0.5028 -1.2161 -1.7927
  137SAPE  H13Y14939   5.948  -0.030   9.234 -0.9508 -0.7619  1.2674
  137SAPE  C31414940   5.805   0.070   9.094 -0.6700 -0.3990 -0.3035
  137SAPE  H14X14941   5.881   0.128   9.037 -0.3798  1.3220  1.7595
  137SAPE  H14Y14942   5.712   0.129   9.103  0.6035  1.5229  0.7693
  137SAPE  C31514943   5.775  -0.053   9.014 -0.6550  0.0998 -0.1396
  137SAPE  H15X14944   5.682  -0.104   9.046  0.5588 -1.2167  1.3576
  137SAPE  H15Y14945   5.848  -0.128   9.050 -0.6089 -0.8105 -2.0778
  137SAPE  C31614946   5.793  -0.046   8.858  0.7328 -0.2287 -0.3261
  137SAPE  H16X14947   5.897  -0.013   8.834  1.4753 -1.8298  0.6416
  137SAPE  H16Y14948   5.716   0.030   8.832  0.9281  0.1383  0.1710
  137SAPE  C31714949   5.755  -0.179   8.784 -0.2481 -0.4666 -0.6098
  137SAPE  H17X14950   5.658  -0.216   8.824 -0.1582  0.8386  0.8383
  137SAPE  H17Y14951   5.831  -0.256   8.811  1.4420  1.3274 -0.1344
  137SAPE  C31814952   5.742  -0.179   8.624 -0.0498  0.3538 -0.2481
  137SAPE  H18X14953   5.826  -0.130   8.571  0.9980 -0.5659  0.5452
  137SAPE  H18Y14954   5.651  -0.127   8.588 -0.0319  1.2144  0.9361
  137SAPE  H18Z14955   5.736  -0.285   8.589  0.2218  0.6528 -1.2292
  138SAPE     N14956   3.705   1.528  10.692  0.2745 -0.2363  0.7332
  138SAPE   HN114957   3.763   1.445  10.714 -0.8549 -1.6415 -1.4001
  138SAPE   HN214958   3.768   1.609  10.671  2.2168 -1.9138 -0.0793
  138SAPE   HN314959   3.652   1.549  10.779 -1.9034 -1.0066 -0.3827
  138SAPE   C1214960   3.602   1.489  10.586 -0.6591  0.3384  0.1813
  138SAPE  H12A14961   3.657   1.453  10.497  0.1754  0.0134  0.8279
  138SAPE  H12B14962   3.537   1.577  10.566 -0.0652  0.8641  0.5516
  138SAPE   C1114963   3.507   1.381  10.642  0.2451  0.5802 -0.1282
  138SAPE  H11A14964   3.566   1.287  10.649 -1.0727 -0.1691  1.6195
  138SAPE  H11B14965   3.421   1.369  10.572  0.5364  1.8816 -0.7127
  138SAPE     P14966   3.349   1.334  10.848 -0.0523 -0.2523 -0.0723
  138SAPE   O1314967   3.422   1.239  10.930  0.0632 -0.0599 -0.4962
  138SAPE   O1414968   3.260   1.432  10.917  0.2816  0.7998  0.5062
  138SAPE   O1214969   3.449   1.420  10.768  0.4843  0.0960  0.6334
  138SAPE   O1114970   3.265   1.260  10.741  0.0767 -0.0660  0.1859
  138SAPE    C114971   3.143   1.196  10.768  0.1666 -0.1005  0.4185
  138SAPE    HA14972   3.161   1.092  10.803  0.1266 -0.1489  0.2957
  138SAPE    HB14973   3.086   1.250  10.847  0.5285  1.0150 -0.0730
  138SAPE    C214974   3.047   1.195  10.643 -0.2702  0.0025  0.3078
  138SAPE    HS14975   3.080   1.121  10.567 -0.5483  1.5854 -1.3875
  138SAPE   O2114976   3.034   1.329  10.590  0.3965  0.2677  1.0294
  138SAPE   C2114977   3.123   1.354  10.498  0.7293  0.2791 -0.1099
  138SAPE   O2214978   3.193   1.277  10.442  0.1021  0.3314  0.3649
  138SAPE   C2214979   3.120   1.504  10.468 -0.3602 -0.2598  0.3935
  138SAPE   H2R14980   3.214   1.551  10.504 -0.6497  0.8758 -0.3297
  138SAPE   H2S14981   3.112   1.524  10.359  0.7980 -1.3546  0.0971
  138SAPE    C314982   2.902   1.140  10.684 -0.4290 -0.4907  0.3151
  138SAPE    HX14983   2.851   1.222  10.740 -0.3258  0.0236 -0.3412
  138SAPE    HY14984   2.922   1.054  10.751  2.1046  0.2561  0.5430
  138SAPE   O3114985   2.827   1.096  10.568  0.1451  0.7195 -0.2664
  138SAPE   C3114986   2.743   1.189  10.514  0.8457  0.2592  0.4855
  138SAPE   O3214987   2.733   1.308  10.553 -0.0529 -0.5313 -0.1042
  138SAPE   C3214988   2.655   1.128  10.409  0.1492  0.6214 -0.4327
  138SAPE   H2X14989   2.570   1.199  10.400 -0.3501 -0.1165 -1.6794
  138SAPE   H2Y14990   2.622   1.024  10.433  0.8583  0.2012 -1.2538
  138SAPE   C2314991   3.004   1.580  10.527  0.1747  0.4356 -0.1783
  138SAPE   H3R14992   3.017   1.601  10.636  0.3260  0.4441 -0.1985
  138SAPE   H3S14993   2.907   1.526  10.520 -1.3945  2.8431  1.8844
  138SAPE   C2414994   2.987   1.712  10.436  0.1207 -0.2191  0.0907
  138SAPE   H4R14995   2.899   1.767  10.476 -2.0987 -1.7581 -2.4881
  138SAPE   H4S14996   2.975   1.679  10.331  1.2559  2.0503 -0.7943
  138SAPE   C2514997   3.105   1.811  10.452  0.3120 -0.3893  0.3167
  138SAPE   H5R14998   3.124   1.843  10.556 -0.6540 -0.9679  0.6749
  138SAPE   C2614999   3.190   1.857  10.360  0.0866  0.3817 -0.0478
  138SAPE   H6R15000   3.265   1.928  10.399 -0.4550  0.1391  1.4922
  138SAPE   C2715001   3.205   1.832  10.212 -0.3654 -0.1874  0.2807
  138SAPE   H7R15002   3.164   1.928  10.173 -0.2126  0.4199  1.5913
  138SAPE   H7S15003   3.139   1.748  10.181 -1.3911  0.9495 -0.7231
  138SAPE   C2815004   3.336   1.804  10.161  0.1900 -0.0087  0.2286
  138SAPE   H8R15005   3.404   1.767  10.240 -2.2545 -0.8720  1.9846
  138SAPE   C2915006   3.379   1.808  10.028  0.1878 -0.4658 -0.5351
  138SAPE   H9R15007   3.476   1.764  10.002 -0.5532 -1.2762 -2.0048
  138SAPE  C21015008   3.299   1.852   9.908 -0.4743 -0.4209  0.7875
  138SAPE  H10R15009   3.236   1.940   9.929 -1.1045 -0.2569 -1.6527
  138SAPE  H10S15010   3.222   1.776   9.883  0.9177 -0.8311 -2.5749
  138SAPE  C21115011   3.391   1.906   9.797 -0.1278  0.1238 -0.6730
  138SAPE  H11R15012   3.493   1.933   9.829  0.0810 -0.5585 -0.7694
  138SAPE  C21215013   3.365   1.916   9.668 -0.1294 -0.3435  0.7297
  138SAPE  H12R15014   3.447   1.937   9.598  0.0037 -0.2402  0.9151
  138SAPE  C21315015   3.233   1.885   9.606  0.6119 -0.0751 -0.7051
  138SAPE  H13R15016   3.154   1.874   9.684 -0.0221  4.0392 -0.6727
  138SAPE  H13S15017   3.242   1.783   9.562 -0.3205 -0.6945  0.5080
  138SAPE  C21415018   3.185   1.989   9.504 -0.4846  0.4940 -1.1676
  138SAPE  H14R15019   3.193   2.096   9.529  0.6959  0.2255 -0.4207
  138SAPE  C21515020   3.137   1.976   9.383 -0.3059 -0.5525  1.0138
  138SAPE  H15R15021   3.086   2.058   9.331  1.1046 -0.9593 -1.0952
  138SAPE  C21615022   3.128   1.839   9.323 -0.0919  0.7161  0.5435
  138SAPE  H16R15023   3.163   1.760   9.393 -0.3332 -1.4617 -1.7015
  138SAPE  H16S15024   3.187   1.824   9.229 -0.4814  0.2830  0.3661
  138SAPE  C21715025   2.982   1.799   9.296  0.3240 -0.4677  0.4214
  138SAPE  H17R15026   2.913   1.789   9.383  1.1005 -0.7147  1.0218
  138SAPE  H17S15027   3.005   1.698   9.257  1.3314  0.2217 -0.8269
  138SAPE  C21815028   2.929   1.876   9.178  0.5408  0.2879  0.3071
  138SAPE  H18R15029   2.996   1.862   9.091  1.5772 -1.7392  1.3916
  138SAPE  H18S15030   2.918   1.985   9.199  1.9019  0.0580  2.3334
  138SAPE  C21915031   2.790   1.835   9.127  0.0989  0.8344 -0.4106
  138SAPE  H19R15032   2.720   1.851   9.211  2.4855 -1.5525  2.1459
  138SAPE  H19S15033   2.798   1.726   9.107 -0.0605  0.0866  3.2154
  138SAPE  C22015034   2.739   1.916   8.997  0.2812 -0.8567 -0.3975
  138SAPE  H20R15035   2.709   2.020   9.023  1.6688 -0.3619 -0.7650
  138SAPE  H20S15036   2.651   1.859   8.959  1.2118 -3.2768  0.9568
  138SAPE  H20T15037   2.830   1.921   8.934  1.3904  4.1661  1.3624
  138SAPE   C3315038   2.711   1.113  10.261  0.3956  0.3312 -0.2364
  138SAPE   H3X15039   2.779   1.196  10.234  2.2383 -1.2266 -0.4633
  138SAPE   H3Y15040   2.625   1.113  10.191  0.4123  1.6800 -0.2673
  138SAPE   C3415041   2.783   0.980  10.239  0.0256 -0.2832 -0.4412
  138SAPE   H4X15042   2.710   0.897  10.245  0.1888 -0.4410 -0.6316
  138SAPE   H4Y15043   2.862   0.961  10.315 -1.4737  2.3327  1.8476
  138SAPE   C3515044   2.857   0.965  10.104 -0.5360  0.1042  0.0424
  138SAPE   H5X15045   2.897   0.862  10.091  0.2591  0.4784 -0.5786
  138SAPE   H5Y15046   2.946   1.031  10.090  0.6902 -2.0018 -2.5955
  138SAPE   C3615047   2.767   1.005   9.988 -0.1599 -0.5199  0.0424
  138SAPE   H6X15048   2.737   1.112   9.989  0.7991 -0.2528  2.2844
  138SAPE   H6Y15049   2.679   0.938   9.993  1.1180 -2.1099  1.9778
  138SAPE   C3715050   2.838   0.972   9.856 -0.0642  0.5019  0.1967
  138SAPE   H7X15051   2.825   0.863   9.838 -0.2957  0.1317  2.5251
  138SAPE   H7Y15052   2.941   1.013   9.859  0.9653 -1.7822 -2.1299
  138SAPE   C3815053   2.780   1.050   9.735 -0.1572 -0.5238  0.1401
  138SAPE   H8X15054   2.779   1.161   9.747 -0.7176 -0.4736 -0.4177
  138SAPE   H8Y15055   2.671   1.034   9.746 -0.0031 -0.7569  1.4257
  138SAPE   C3915056   2.838   1.014   9.597  0.2018 -0.2606  0.4375
  138SAPE   H9X15057   2.828   0.905   9.579  1.9137 -0.1832 -1.1472
  138SAPE   H9Y15058   2.947   1.031   9.593  0.5267 -1.2452  3.3884
  138SAPE  C31015059   2.770   1.074   9.477 -0.6000 -0.6006  0.5735
  138SAPE  H10X15060   2.792   1.182   9.460 -1.0472 -0.5939  0.0079
  138SAPE  H10Y15061   2.660   1.063   9.484 -0.7271  1.0386  1.5709
  138SAPE  C31115062   2.802   1.015   9.336 -0.3719  0.1937  0.3326
  138SAPE  H11X15063   2.796   0.904   9.325  1.4507  0.2734 -1.8639
  138SAPE  H11Y15064   2.907   1.049   9.322 -0.1805 -0.7163 -0.4727
  138SAPE  C31215065   2.731   1.082   9.219  0.3852 -0.0437 -0.7278
  138SAPE  H12X15066   2.755   1.190   9.226  1.2781 -0.2501 -0.6295
  138SAPE  H12Y15067   2.623   1.072   9.243  0.6047 -0.2492  0.2041
  138SAPE  C31315068   2.737   1.024   9.078 -0.3827  0.6341 -0.6760
  138SAPE  H13X15069   2.841   1.032   9.041 -0.0704  0.4039  0.1388
  138SAPE  H13Y15070   2.671   1.091   9.019 -0.5856  0.9931 -0.0556
  138SAPE  C31415071   2.691   0.880   9.071  0.1614  0.4397  0.2027
  138SAPE  H14X15072   2.602   0.876   9.138 -1.3567  0.6014 -1.7556
  138SAPE  H14Y15073   2.761   0.808   9.120 -0.7555 -1.6679 -1.4901
  138SAPE  C31515074   2.657   0.838   8.929 -0.1433 -0.1534  0.2181
  138SAPE  H15X15075   2.560   0.886   8.907  1.3999  2.1103 -1.9295
  138SAPE  H15Y15076   2.642   0.728   8.928 -0.7637 -0.0791  0.7527
  138SAPE  C31615077   2.753   0.875   8.813  0.0279  0.3486  0.1448
  138SAPE  H16X15078   2.769   0.984   8.802 -1.5161  0.4981 -0.7189
  138SAPE  H16Y15079   2.687   0.850   8.727 -0.8469 -1.3278  1.2704
  138SAPE  C31715080   2.874   0.789   8.791 -0.2654  0.9199 -0.3921
  138SAPE  H17X15081   2.851   0.682   8.810  0.3965  1.1930  2.1570
  138SAPE  H17Y15082   2.945   0.818   8.871 -0.6898  0.6318  0.0862
  138SAPE  C31815083   2.928   0.806   8.650 -0.2199 -0.1620  0.2031
  138SAPE  H18X15084   2.842   0.824   8.583 -1.3612 -1.4518  1.2869
  138SAPE  H18Y15085   3.011   0.740   8.619 -0.3159 -1.6881  3.0420
  138SAPE  H18Z15086   2.988   0.900   8.648 -0.8009  0.2287  0.6213
  139SAPE     N15087   2.261   6.484  10.835  0.3604 -0.4466 -0.0490
  139SAPE   HN115088   2.361   6.510  10.848  0.0765  0.0662  1.1521
  139SAPE   HN215089   2.201   6.559  10.796 -1.0396 -1.7901 -0.5325
  139SAPE   HN315090   2.230   6.446  10.927 -0.6060  1.5842  0.4894
  139SAPE   C1215091   2.265   6.380  10.726  0.2534 -0.3259  1.1203
  139SAPE  H12A15092   2.161   6.361  10.691  0.7975  0.2490 -0.9020
  139SAPE  H12B15093   2.309   6.286  10.764 -0.7951 -1.5480 -0.6071
  139SAPE   C1115094   2.339   6.439  10.604 -0.0004  0.7410 -0.5297
  139SAPE  H11A15095   2.269   6.503  10.546 -0.4073  1.3230  0.5900
  139SAPE  H11B15096   2.352   6.363  10.524 -0.4492  0.2624 -0.1540
  139SAPE     P15097   2.586   6.431  10.675  0.5284 -0.0113  0.6335
  139SAPE   O1315098   2.709   6.513  10.673 -0.5130 -0.6744  0.6454
  139SAPE   O1415099   2.555   6.366  10.805 -0.2394 -0.1364 -0.0747
  139SAPE   O1215100   2.459   6.512  10.621  0.1202 -0.2381 -0.0019
  139SAPE   O1115101   2.596   6.333  10.557 -0.0287 -0.2170  0.0755
  139SAPE    C115102   2.681   6.219  10.559  0.2677 -0.8612 -0.2414
  139SAPE    HA15103   2.786   6.252  10.549 -0.3134  1.1432 -0.0445
  139SAPE    HB15104   2.673   6.163  10.654  0.2951 -0.5951 -0.0830
  139SAPE    C215105   2.644   6.114  10.448  0.5589 -0.3741  0.4563
  139SAPE    HS15106   2.699   6.019  10.465  1.3995 -0.0341 -0.3177
  139SAPE   O2115107   2.650   6.169  10.315  0.0869 -0.0700  0.4362
  139SAPE   C2115108   2.693   6.077  10.224 -0.2293  0.0716  1.0595
  139SAPE   O2215109   2.728   5.966  10.249  0.3823 -0.3428 -0.2683
  139SAPE   C2215110   2.682   6.134  10.076 -0.2624  0.2791  0.2324
  139SAPE   H2R15111   2.588   6.192  10.062 -2.4167 -2.9475  0.5690
  139SAPE   H2S15112   2.766   6.206  10.072 -0.8387  0.9498  0.0697
  139SAPE    C315113   2.491   6.075  10.471 -0.2044  0.0007  0.2040
  139SAPE    HX15114   2.435   6.161  10.429 -1.1655  0.8054  3.0173
  139SAPE    HY15115   2.471   6.044  10.576 -0.2563 -0.0282  0.1879
  139SAPE   O3115116   2.446   5.968  10.384 -0.4100 -0.2776  0.1897
  139SAPE   C3115117   2.477   5.846  10.431 -0.8970  0.2534 -0.0236
  139SAPE   O3215118   2.525   5.820  10.541 -0.0159  0.2106  0.7070
  139SAPE   C3215119   2.414   5.736  10.340  0.4258  0.6740  0.6007
  139SAPE   H2X15120   2.390   5.792  10.247 -1.6774 -1.2544 -0.0602
  139SAPE   H2Y15121   2.319   5.702  10.386 -0.3217  0.4461 -1.0992
  139SAPE   C2315122   2.691   6.021   9.964 -0.4595 -0.1691 -0.0762
  139SAPE   H3R15123   2.743   5.927   9.992  0.5826  1.0965  2.2718
  139SAPE   H3S15124   2.742   6.069   9.878 -0.1694  2.0943  1.3430
  139SAPE   C2415125   2.557   5.970   9.926  0.2824  0.7138  0.4892
  139SAPE   H4R15126   2.503   6.046   9.866  1.3667  1.7038  0.7573
  139SAPE   H4S15127   2.499   5.962  10.020 -2.3681 -1.0082 -1.2169
  139SAPE   C2515128   2.550   5.839   9.845  0.4785  0.2673  0.1637
  139SAPE   H5R15129   2.543   5.750   9.909 -2.2888  0.4500  0.1875
  139SAPE   C2615130   2.550   5.834   9.711 -0.0387  0.2444 -0.1294
  139SAPE   H6R15131   2.540   5.734   9.667 -1.6743 -1.0105  2.9160
  139SAPE   C2715132   2.552   5.954   9.616  0.2658 -0.2556 -0.0665
  139SAPE   H7R15133   2.580   5.938   9.509  1.4978  2.6115 -0.2350
  139SAPE   H7S15134   2.630   6.023   9.655  0.7647 -1.2854  0.7686
  139SAPE   C2815135   2.425   6.032   9.602 -0.8375  0.3985 -0.7693
  139SAPE   H8R15136   2.410   6.114   9.674 -1.4417  0.1887 -0.6533
  139SAPE   C2915137   2.327   6.023   9.509  0.4921  0.0162  0.2934
  139SAPE   H9R15138   2.247   6.099   9.508  0.8119  0.3911  1.5655
  139SAPE  C21015139   2.334   5.925   9.396  0.1134 -0.4433 -0.1494
  139SAPE  H10R15140   2.234   5.884   9.368  0.2470 -0.1281 -1.0960
  139SAPE  H10S15141   2.394   5.836   9.426  0.1887 -0.2869  0.1655
  139SAPE  C21115142   2.410   5.971   9.272 -0.1249  0.3118 -0.0707
  139SAPE  H11R15143   2.516   5.990   9.294 -0.7897  2.9608  1.0006
  139SAPE  C21215144   2.360   5.968   9.145 -0.1762 -0.3338 -0.7854
  139SAPE  H12R15145   2.417   6.012   9.062 -1.3608 -1.0034 -1.9668
  139SAPE  C21315146   2.223   5.934   9.106  0.2791 -0.4169  0.2999
  139SAPE  H13R15147   2.154   6.016   9.133  0.8927 -0.2634  1.4271
  139SAPE  H13S15148   2.186   5.842   9.157  0.1858 -1.2183 -1.1729
  139SAPE  C21415149   2.206   5.905   8.960 -0.2140 -0.0819 -0.6750
  139SAPE  H14R15150   2.183   5.801   8.934 -0.0207 -0.0825 -0.8517
  139SAPE  C21515151   2.196   5.996   8.859 -0.3432 -0.1487 -0.5669
  139SAPE  H15R15152   2.177   5.960   8.757  0.7691 -2.3868 -0.0111
  139SAPE  C21615153   2.213   6.145   8.875 -0.2765  0.2509  1.1860
  139SAPE  H16R15154   2.242   6.174   8.978  3.3742 -1.0495  0.5877
  139SAPE  H16S15155   2.122   6.208   8.863  0.0182  0.0627 -2.6656
  139SAPE  C21715156   2.331   6.194   8.785  0.0332  0.2568  0.3445
  139SAPE  H17R15157   2.427   6.143   8.807  1.1847  3.0119  1.8913
  139SAPE  H17S15158   2.348   6.300   8.814  0.5437 -0.8438  4.3336
  139SAPE  C21815159   2.290   6.185   8.638 -0.2189  0.1663  0.7351
  139SAPE  H18R15160   2.182   6.204   8.620 -0.5987 -0.5077  2.1872
  139SAPE  H18S15161   2.312   6.081   8.604  0.3121  0.2828  0.7259
  139SAPE  C21915162   2.368   6.273   8.548 -0.1016 -0.4962 -0.0428
  139SAPE  H19R15163   2.474   6.267   8.582 -0.5380 -1.1972  1.2091
  139SAPE  H19S15164   2.336   6.377   8.571  2.3994  0.3436 -0.2457
  139SAPE  C22015165   2.362   6.257   8.391  0.5459 -0.1777  0.4649
  139SAPE  H20R15166   2.374   6.150   8.363 -1.3044  0.0017 -1.1283
  139SAPE  H20S15167   2.433   6.315   8.330  2.3257 -1.8471  0.9035
  139SAPE  H20T15168   2.262   6.288   8.353  0.2835  1.0921  2.1225
  139SAPE   C3315169   2.498   5.608  10.320 -0.3287 -0.1722  0.4137
  139SAPE   H3X15170   2.501   5.547  10.413  1.8067  1.9997  1.8244
  139SAPE   H3Y15171   2.600   5.639  10.290 -0.8251  1.4294  0.3096
  139SAPE   C3415172   2.439   5.513  10.213 -0.0796 -0.8197  0.2705
  139SAPE   H4X15173   2.329   5.511  10.231 -0.0924  0.6908  0.4179
  139SAPE   H4Y15174   2.482   5.411  10.226  0.4576 -0.5866  0.3385
  139SAPE   C3515175   2.462   5.564  10.069  0.5347 -0.0219  0.2357
  139SAPE   H5X15176   2.569   5.590  10.060  0.2640  0.7929 -0.6882
  139SAPE   H5Y15177   2.411   5.662  10.063  0.7411  0.0627 -0.1161
  139SAPE   C3615178   2.383   5.478   9.972  0.2655 -0.0302 -0.1737
  139SAPE   H6X15179   2.276   5.501   9.990 -0.3355 -0.7871 -2.6057
  139SAPE   H6Y15180   2.398   5.370   9.996 -2.3344 -0.6418 -1.1625
  139SAPE   C3715181   2.418   5.496   9.827 -0.0887 -0.7998  0.0457
  139SAPE   H7X15182   2.525   5.476   9.804 -0.1131 -1.4924  0.5032
  139SAPE   H7Y15183   2.388   5.601   9.809 -0.7496 -1.4447 -2.7722
  139SAPE   C3815184   2.340   5.392   9.745 -0.4743  0.2017 -0.0172
  139SAPE   H8X15185   2.239   5.438   9.732  0.2695  2.2281  1.0798
  139SAPE   H8Y15186   2.330   5.305   9.813  0.3606  0.0386 -0.0993
  139SAPE   C3915187   2.382   5.359   9.599 -0.4322 -0.2549 -0.6541
  139SAPE   H9X15188   2.294   5.306   9.556 -2.1980  2.6429 -0.8179
  139SAPE   H9Y15189   2.468   5.290   9.597 -0.5079 -0.3938  0.6516
  139SAPE  C31015190   2.414   5.475   9.507  0.3543 -0.3601  0.6793
  139SAPE  H10X15191   2.507   5.529   9.535  1.8400 -1.4568 -1.8948
  139SAPE  H10Y15192   2.344   5.559   9.525  0.3103 -0.2654  0.0828
  139SAPE  C31115193   2.406   5.440   9.357  0.6992  0.4487  0.6951
  139SAPE  H11X15194   2.299   5.423   9.334  0.1476  1.0833  2.6988
  139SAPE  H11Y15195   2.463   5.346   9.341 -0.9920 -0.4958  0.1326
  139SAPE  C31215196   2.460   5.551   9.271  0.4467  0.8224  0.0157
  139SAPE  H12X15197   2.567   5.565   9.296  1.0542 -2.7471 -0.2737
  139SAPE  H12Y15198   2.412   5.650   9.290 -0.7073  0.5226 -1.2684
  139SAPE  C31315199   2.438   5.521   9.124 -0.1958  0.2491  0.4744
  139SAPE  H13X15200   2.330   5.505   9.103  0.1389 -0.4634 -0.7156
  139SAPE  H13Y15201   2.483   5.425   9.093 -1.9181 -0.3294 -0.2614
  139SAPE  C31415202   2.495   5.615   9.021 -0.2848  0.2023  0.5056
  139SAPE  H14X15203   2.603   5.632   9.042 -0.7934  2.7955  1.2740
  139SAPE  H14Y15204   2.436   5.709   9.030 -1.5572 -0.7785  2.6062
  139SAPE  C31515205   2.489   5.554   8.880  0.0419  0.0431 -0.1900
  139SAPE  H15X15206   2.382   5.528   8.865  1.2643 -5.3898 -0.4905
  139SAPE  H15Y15207   2.556   5.465   8.880  2.0328  1.4665  2.1316
  139SAPE  C31615208   2.520   5.664   8.779 -0.0752 -0.2608 -0.5873
  139SAPE  H16X15209   2.460   5.754   8.803 -1.4604 -1.0279 -1.1386
  139SAPE  H16Y15210   2.628   5.686   8.791  0.4582 -3.0442  0.0635
  139SAPE  C31715211   2.502   5.615   8.634  0.6396  0.1829  0.0700
  139SAPE  H17X15212   2.398   5.582   8.616  0.7261  0.0897 -0.2436
  139SAPE  H17Y15213   2.565   5.525   8.620 -0.1619 -0.5257  0.9017
  139SAPE  C31815214   2.548   5.729   8.540 -0.5115 -0.5514  0.5136
  139SAPE  H18X15215   2.500   5.827   8.561  0.9961  0.4512 -0.6137
  139SAPE  H18Y15216   2.531   5.697   8.435 -0.6075 -1.7860  0.9013
  139SAPE  H18Z15217   2.655   5.757   8.540 -0.2516 -1.4863 -0.4705
  140SAPE     N15218   5.056   2.879  10.976  0.1811  0.2099  0.8846
  140SAPE   HN115219   5.121   2.948  10.933 -1.3293 -0.2525 -2.2178
  140SAPE   HN215220   5.107   2.790  10.992  0.3709  0.5286  2.1252
  140SAPE   HN315221   4.975   2.865  10.913  0.2458  3.1885  0.0760
  140SAPE   C1215222   5.019   2.933  11.104  0.6667  0.0347 -0.1091
  140SAPE  H12A15223   5.116   2.963  11.149  1.4825 -1.3022 -0.9373
  140SAPE  H12B15224   4.953   2.873  11.170  0.3201 -0.4504 -0.8910
  140SAPE   C1115225   4.939   3.063  11.073 -0.3000  0.4473  0.5923
  140SAPE  H11A15226   4.910   3.120  11.164 -1.1486  2.1083 -0.6766
  140SAPE  H11B15227   4.839   3.034  11.032  0.3142 -1.3086  0.2888
  140SAPE     P15228   4.937   3.297  10.974  0.8011 -0.0201 -0.0918
  140SAPE   O1315229   4.790   3.288  11.003  0.0393  0.4374  0.5123
  140SAPE   O1415230   5.028   3.385  11.056 -0.3221  0.1709  0.3812
  140SAPE   O1215231   5.003   3.152  10.980  0.1354 -0.1505 -0.3172
  140SAPE   O1115232   4.967   3.321  10.815  0.2805 -0.1962  0.0870
  140SAPE    C115233   4.880   3.265  10.713  0.2870  0.5287  0.3196
  140SAPE    HA15234   4.776   3.242  10.744  1.2306 -0.3612  3.0033
  140SAPE    HB15235   4.881   3.326  10.620 -1.9358  1.6849  0.9988
  140SAPE    C215236   4.942   3.137  10.666  1.4387 -0.3356 -0.4389
  140SAPE    HS15237   4.949   3.067  10.752  0.1793  0.0837  0.0109
  140SAPE   O2115238   5.076   3.170  10.615 -0.3067 -0.1910  0.5241
  140SAPE   C2115239   5.157   3.068  10.629  0.3086 -0.8004  0.1914
  140SAPE   O2215240   5.131   2.969  10.697 -0.2721 -0.5387  0.2345
  140SAPE   C2215241   5.286   3.099  10.543  0.4070  0.9118  0.3599
  140SAPE   H2R15242   5.253   3.082  10.439  0.9321  0.4335  0.2714
  140SAPE   H2S15243   5.311   3.207  10.556  1.3257  0.5871  1.3769
  140SAPE    C315244   4.865   3.062  10.559 -0.0664  0.2120  0.0308
  140SAPE    HX15245   4.773   3.033  10.613  0.6379 -2.6051 -0.2085
  140SAPE    HY15246   4.921   2.969  10.538  0.0730  0.8210 -2.4528
  140SAPE   O3115247   4.832   3.145  10.448  0.1446 -0.1710  0.1576
  140SAPE   C3115248   4.877   3.103  10.334 -0.0346 -0.4989  0.1764
  140SAPE   O3215249   4.957   3.011  10.317  0.0218  0.3750  0.3062
  140SAPE   C3215250   4.807   3.166  10.215  0.5160  0.1679 -0.1208
  140SAPE   H2X15251   4.786   3.272  10.239  3.5433  0.5859  0.9218
  140SAPE   H2Y15252   4.709   3.115  10.200  1.3054 -1.0457 -1.2733
  140SAPE   C2315253   5.406   3.015  10.584 -0.7019 -0.2526 -0.5553
  140SAPE   H3R15254   5.378   2.907  10.585  3.2527 -1.3768  2.8276
  140SAPE   H3S15255   5.440   3.051  10.683  1.8311 -1.3661 -0.9998
  140SAPE   C2415256   5.530   3.025  10.487 -0.8607 -0.7207  0.2481
  140SAPE   H4R15257   5.564   3.131  10.483  0.1000 -0.9436  1.9439
  140SAPE   H4S15258   5.506   3.000  10.382 -0.0711 -0.4639  0.0009
  140SAPE   C2515259   5.649   2.941  10.534 -0.0420  0.0814 -0.7121
  140SAPE   H5R15260   5.675   2.971  10.636 -1.9516  0.6591 -0.3775
  140SAPE   C2615261   5.716   2.846  10.470 -0.4534 -0.4623 -0.0794
  140SAPE   H6R15262   5.804   2.801  10.517 -1.2340 -0.3774  1.4800
  140SAPE   C2715263   5.695   2.797  10.330 -0.5796 -0.6106 -0.7574
  140SAPE   H7R15264   5.760   2.863  10.268  1.6991 -1.2707  0.8372
  140SAPE   H7S15265   5.588   2.796  10.300 -0.0622  0.4969 -2.7345
  140SAPE   C2815266   5.745   2.654  10.310  0.5843  0.0622  0.0969
  140SAPE   H8R15267   5.816   2.629  10.391  0.5708 -1.1321 -0.2596
  140SAPE   C2915268   5.711   2.563  10.218  0.4342  0.0248 -0.6106
  140SAPE   H9R15269   5.753   2.463  10.230  0.8039  0.2194 -0.2514
  140SAPE  C21015270   5.603   2.587  10.113 -0.2172  0.2310 -0.2508
  140SAPE  H10R15271   5.506   2.626  10.152 -2.3446 -0.7197 -4.2111
  140SAPE  H10S15272   5.562   2.491  10.075 -1.1829  1.2048 -1.7379
  140SAPE  C21115273   5.630   2.687  10.002 -0.6049 -0.1378 -0.2352
  140SAPE  H11R15274   5.675   2.780  10.038 -1.0023 -0.1437  0.2877
  140SAPE  C21215275   5.604   2.668   9.869 -0.1079 -0.2576  0.1113
  140SAPE  H12R15276   5.630   2.754   9.806 -0.0856 -1.4490 -1.5350
  140SAPE  C21315277   5.543   2.547   9.809  0.5917 -0.0955 -0.7789
  140SAPE  H13R15278   5.453   2.516   9.866  1.4684 -1.8716 -0.3309
  140SAPE  H13S15279   5.624   2.472   9.816  1.4581  1.0671  2.0987
  140SAPE  C21415280   5.505   2.574   9.666 -0.2389  0.0955  0.1264
  140SAPE  H14R15281   5.402   2.611   9.651 -0.7990 -1.6023 -0.3816
  140SAPE  C21515282   5.564   2.536   9.553  0.1796  0.8073  0.3205
  140SAPE  H15R15283   5.521   2.570   9.458  1.8536 -1.0114 -1.1339
  140SAPE  C21615284   5.691   2.461   9.532 -0.7106 -0.3254  0.1575
  140SAPE  H16R15285   5.759   2.473   9.620  0.3750  1.6407 -0.9141
  140SAPE  H16S15286   5.738   2.503   9.441 -0.3539 -1.2702 -0.0867
  140SAPE  C21715287   5.671   2.308   9.519  1.2130 -0.5546  0.0071
  140SAPE  H17R15288   5.646   2.274   9.622 -0.5688  1.9250  0.4407
  140SAPE  H17S15289   5.768   2.261   9.493  0.2901 -1.6024 -1.6274
  140SAPE  C21815290   5.578   2.256   9.408  0.1576 -0.3797 -0.1231
  140SAPE  H18R15291   5.481   2.306   9.427 -0.0258 -0.3298 -1.1869
  140SAPE  H18S15292   5.557   2.150   9.436  1.5105 -0.6308 -0.0437
  140SAPE  C21915293   5.628   2.294   9.268 -0.8179  0.5141 -0.1842
  140SAPE  H19R15294   5.651   2.402   9.258  2.7982 -0.2303 -0.5971
  140SAPE  H19S15295   5.549   2.275   9.193  1.1868  1.8348 -2.6766
  140SAPE  C22015296   5.746   2.204   9.226 -0.7075 -0.0910 -0.1250
  140SAPE  H20R15297   5.785   2.236   9.126  1.2251 -0.4535  0.4959
  140SAPE  H20S15298   5.706   2.100   9.228  0.5300 -0.5708  0.1745
  140SAPE  H20T15299   5.828   2.216   9.299 -2.2897  0.6876  1.5559
  140SAPE   C3315300   4.889   3.166  10.085 -0.8002  0.8076  0.7270
  140SAPE   H3X15301   4.912   3.061  10.055  1.5733  1.5450 -0.1031
  140SAPE   H3Y15302   4.989   3.210  10.106 -0.9080  1.3386  0.1523
  140SAPE   C3415303   4.820   3.234   9.970  0.3463 -0.3235  0.0440
  140SAPE   H4X15304   4.781   3.331  10.008 -0.5697 -0.5750 -0.2478
  140SAPE   H4Y15305   4.730   3.171   9.951  0.5027 -0.1918 -1.1714
  140SAPE   C3515306   4.898   3.248   9.840  0.2239 -0.0273  0.0955
  140SAPE   H5X15307   4.948   3.150   9.830 -0.4978 -0.4782  0.7545
  140SAPE   H5Y15308   4.971   3.331   9.848 -0.8597  1.0169 -0.6896
  140SAPE   C3615309   4.807   3.266   9.715 -0.4110 -1.1375  0.2720
  140SAPE   H6X15310   4.764   3.368   9.722  2.4171  0.0108  2.1668
  140SAPE   H6Y15311   4.728   3.189   9.718 -1.3559 -0.1721  0.3113
  140SAPE   C3715312   4.894   3.260   9.586 -0.2077  0.1498 -0.1633
  140SAPE   H7X15313   4.949   3.163   9.593  2.4414  1.4789 -1.9017
  140SAPE   H7Y15314   4.980   3.330   9.585  0.0498 -0.1316  1.3905
  140SAPE   C3815315   4.823   3.271   9.450 -0.1601  0.5244 -0.3329
  140SAPE   H8X15316   4.742   3.345   9.461 -1.5001 -1.3727  3.1734
  140SAPE   H8Y15317   4.784   3.170   9.422  0.8020  0.6040 -2.0750
  140SAPE   C3915318   4.921   3.314   9.348 -0.3321  0.6538  0.3699
  140SAPE   H9X15319   4.996   3.236   9.320 -0.7439  0.3434  0.1113
  140SAPE   H9Y15320   4.982   3.395   9.392  2.3530 -1.8153  1.4324
  140SAPE  C31015321   4.857   3.358   9.216 -0.9275  0.8302  0.0070
  140SAPE  H10X15322   4.925   3.422   9.156 -0.2020 -0.4033 -0.5086
  140SAPE  H10Y15323   4.761   3.413   9.229 -0.4664  1.7886 -0.5724
  140SAPE  C31115324   4.828   3.231   9.126 -0.3410  0.2537  0.4321
  140SAPE  H11X15325   4.749   3.171   9.175  0.7900 -0.9192  0.8430
  140SAPE  H11Y15326   4.923   3.174   9.116 -0.1325  0.3232  1.9234
  140SAPE  C31215327   4.772   3.266   8.989  0.0243  0.1821 -0.0577
  140SAPE  H12X15328   4.830   3.349   8.943  3.1793 -0.5770  2.4678
  140SAPE  H12Y15329   4.671   3.311   9.002 -0.9886 -2.5280  1.9471
  140SAPE  C31315330   4.750   3.144   8.897  0.0670 -0.0156 -0.3434
  140SAPE  H13X15331   4.691   3.066   8.950  1.4296 -0.8121  0.0323
  140SAPE  H13Y15332   4.848   3.093   8.881  0.6739  1.2378 -0.7308
  140SAPE  C31415333   4.658   3.163   8.769  0.6466 -0.6824 -0.7255
  140SAPE  H14X15334   4.701   3.239   8.701 -1.8733  0.4317 -1.1240
  140SAPE  H14Y15335   4.555   3.203   8.775  1.3820  1.3419 -1.5294
  140SAPE  C31515336   4.654   3.035   8.687 -0.2379  0.9074  0.2682
  140SAPE  H15X15337   4.585   2.960   8.729  0.7200 -0.5590 -0.7381
  140SAPE  H15Y15338   4.753   2.985   8.683 -1.6295 -1.8840  0.1215
  140SAPE  C31615339   4.602   3.064   8.544 -0.5949  0.7767 -0.7442
  140SAPE  H16X15340   4.667   3.136   8.491  0.9395 -0.5425 -0.6807
  140SAPE  H16Y15341   4.504   3.113   8.564 -0.2218  1.1525  0.1941
  140SAPE  C31715342   4.624   2.943   8.451 -0.0853 -0.1588 -0.4806
  140SAPE  H17X15343   4.577   2.848   8.487 -0.9258  0.1764 -0.6871
  140SAPE  H17Y15344   4.732   2.919   8.445  0.3597  2.1840 -2.0265
  140SAPE  C31815345   4.580   2.981   8.314 -0.1995  0.6800 -0.2052
  140SAPE  H18X15346   4.614   2.895   8.253  2.0569  1.8577 -0.6647
  140SAPE  H18Y15347   4.639   3.063   8.269  1.8205 -0.2462  0.6633
  140SAPE  H18Z15348   4.469   2.984   8.315 -0.3266 -2.1111 -0.9221
  141SAPE     N15349   5.613   3.171  11.279 -0.9414 -0.2643  0.0508
  141SAPE   HN115350   5.566   3.083  11.308 -0.6626 -0.9196 -1.4124
  141SAPE   HN215351   5.711   3.170  11.315 -0.4741 -0.3338 -1.1836
  141SAPE   HN315352   5.559   3.249  11.320  0.9386  1.8729 -1.4304
  141SAPE   C1215353   5.614   3.182  11.127  0.2454  0.3271 -0.7393
  141SAPE  H12A15354   5.609   3.288  11.093  1.3173  0.3027 -1.0145
  141SAPE  H12B15355   5.522   3.132  11.090 -2.1596  2.4284  2.1730
  141SAPE   C1115356   5.736   3.103  11.064 -0.0396  0.0857 -0.4791
  141SAPE  H11A15357   5.828   3.160  11.085 -0.5046 -0.0002  2.0004
  141SAPE  H11B15358   5.716   3.115  10.955 -0.6045 -0.5125 -0.4514
  141SAPE     P15359   5.690   2.846  11.028  0.0334 -0.6715  0.2706
  141SAPE   O1315360   5.728   2.717  11.094 -0.1781  0.2679 -0.2438
  141SAPE   O1415361   5.541   2.858  10.997 -0.7146  0.0110 -0.8864
  141SAPE   O1215362   5.745   2.971  11.114  0.1968  0.3318 -0.2339
  141SAPE   O1115363   5.768   2.858  10.904  0.0401  0.1508 -0.1403
  141SAPE    C115364   5.904   2.833  10.893 -0.2706  0.0365  0.1417
  141SAPE    HA15365   5.952   2.777  10.976  0.8538 -1.7826 -1.7093
  141SAPE    HB15366   5.911   2.786  10.793  0.9737  0.0142  0.2391
  141SAPE    C215367   5.984   2.962  10.870 -0.1555 -0.1016  0.4337
  141SAPE    HS15368   5.980   3.028  10.959  2.3382  3.2474 -1.8016
  141SAPE   O2115369   5.913   3.027  10.764  0.3995 -0.0353  0.4213
  141SAPE   C2115370   5.918   3.154  10.753 -0.0699  0.0014  0.1043
  141SAPE   O2215371   5.982   3.234  10.825  0.9564  0.2300 -0.0887
  141SAPE   C2215372   5.827   3.205  10.638 -0.1415 -0.6425 -0.0243
  141SAPE   H2R15373   5.842   3.137  10.551 -1.0372 -0.9806  0.0759
  141SAPE   H2S15374   5.726   3.188  10.681 -0.2931  1.7398  0.6403
  141SAPE    C315375   6.133   2.942  10.837  0.4383 -0.0242 -0.2934
  141SAPE    HX15376   6.189   2.890  10.918  0.7107  0.4377 -0.1801
  141SAPE    HY15377   6.176   3.044  10.829 -0.9266  0.4876 -1.2337
  141SAPE   O3115378   6.151   2.856  10.719 -0.2935  0.1469 -0.8157
  141SAPE   C3115379   6.196   2.906  10.610  0.2006 -0.5660  0.5013
  141SAPE   O3215380   6.207   3.024  10.585 -0.2662  0.5915  0.5689
  141SAPE   C3215381   6.241   2.794  10.506 -0.6014 -0.0553 -0.6085
  141SAPE   H2X15382   6.329   2.732  10.533 -1.7974 -1.2600  0.6251
  141SAPE   H2Y15383   6.269   2.843  10.411  1.1852  1.0463  0.4559
  141SAPE   C2315384   5.843   3.356  10.598  0.4599 -0.3118 -0.3164
  141SAPE   H3R15385   5.945   3.378  10.560  0.2081  0.8979 -0.3343
  141SAPE   H3S15386   5.835   3.421  10.689 -2.0412  0.2570 -0.8928
  141SAPE   C2415387   5.745   3.409  10.502 -0.0677  0.4866 -0.8313
  141SAPE   H4R15388   5.642   3.394  10.540 -0.6877 -0.5897 -2.8529
  141SAPE   H4S15389   5.738   3.359  10.403 -0.1684 -0.3078 -0.4275
  141SAPE   C2515390   5.771   3.560  10.480  1.1332  0.1422 -0.1613
  141SAPE   H5R15391   5.732   3.619  10.564  0.4732 -0.8229  0.2196
  141SAPE   C2615392   5.823   3.623  10.375  0.1247  0.5078 -0.3651
  141SAPE   H6R15393   5.832   3.732  10.375  1.5269  0.4028 -0.9908
  141SAPE   C2715394   5.870   3.567  10.241 -0.1235  0.6289 -0.4041
  141SAPE   H7R15395   5.803   3.481  10.220  1.2626 -0.4248 -0.5787
  141SAPE   H7S15396   5.976   3.532  10.243 -0.2041 -0.0697 -4.4979
  141SAPE   C2815397   5.844   3.664  10.125  0.2390 -0.2591  0.1944
  141SAPE   H8R15398   5.800   3.759  10.161 -0.0346  0.3414 -1.6773
  141SAPE   C2915399   5.876   3.649   9.999 -0.1363  0.4761 -0.1305
  141SAPE   H9R15400   5.857   3.729   9.926 -1.4511  1.0492  0.8177
  141SAPE  C21015401   5.948   3.530   9.939  0.1776 -0.3662 -0.3871
  141SAPE  H10R15402   5.878   3.488   9.863 -0.3512  0.9927 -0.6670
  141SAPE  H10S15403   5.975   3.448  10.009 -3.3478 -1.0810  0.2305
  141SAPE  C21115404   6.067   3.567   9.852  0.5116 -0.0189  0.2122
  141SAPE  H11R15405   6.154   3.582   9.918  1.0851 -2.2385  0.0058
  141SAPE  C21215406   6.080   3.571   9.715  0.1899 -0.8481 -0.5380
  141SAPE  H12R15407   6.179   3.586   9.668 -1.3091 -0.5194 -3.6886
  141SAPE  C21315408   5.985   3.554   9.605  0.0801 -0.4045 -0.0856
  141SAPE  H13R15409   6.012   3.611   9.514 -1.1619 -0.8066 -0.7102
  141SAPE  H13S15410   5.891   3.597   9.644  0.1530  0.0392 -0.3989
  141SAPE  C21415411   5.966   3.406   9.567  1.0164 -0.5523  0.2309
  141SAPE  H14R15412   5.963   3.330   9.646  0.2098 -0.2165  0.5327
  141SAPE  C21515413   5.951   3.360   9.444 -0.7382 -0.6294  0.3339
  141SAPE  H15R15414   5.956   3.251   9.430  1.5387 -0.1025 -4.0069
  141SAPE  C21615415   5.964   3.457   9.329 -0.0120  0.2238  0.4088
  141SAPE  H16R15416   6.072   3.474   9.307 -0.1294  0.3409 -0.0620
  141SAPE  H16S15417   5.900   3.546   9.345  0.9456  0.8234  0.9967
  141SAPE  C21715418   5.911   3.395   9.194  0.0525  0.2403 -0.1327
  141SAPE  H17R15419   5.806   3.359   9.191 -0.0819  0.6589 -0.6126
  141SAPE  H17S15420   5.968   3.305   9.162 -2.4899 -1.7378  0.7349
  141SAPE  C21815421   5.931   3.502   9.086 -0.7340  0.6063 -0.1656
  141SAPE  H18R15422   6.035   3.540   9.089 -0.6204  0.2823 -0.0693
  141SAPE  H18S15423   5.859   3.582   9.113 -0.0764  0.7907  1.0450
  141SAPE  C21915424   5.892   3.461   8.942 -0.6511  0.5810  0.3747
  141SAPE  H19R15425   5.962   3.378   8.920 -2.0548 -0.9216  1.4116
  141SAPE  H19S15426   5.916   3.545   8.874 -1.4685 -0.5039 -1.2635
  141SAPE  C22015427   5.748   3.407   8.919  0.3120 -0.7678  0.1192
  141SAPE  H20R15428   5.679   3.493   8.933 -1.3333 -2.0989  0.3016
  141SAPE  H20S15429   5.730   3.325   8.992  0.2405 -0.1030  0.8475
  141SAPE  H20T15430   5.744   3.370   8.814  0.6536 -0.4697 -0.0007
  141SAPE   C3315431   6.133   2.690  10.476 -0.3146  0.2071  0.2686
  141SAPE   H3X15432   6.034   2.740  10.476 -0.1819  0.4951 -1.1293
  141SAPE   H3Y15433   6.150   2.610  10.552 -1.3418  2.0574  2.5290
  141SAPE   C3415434   6.137   2.621  10.335 -0.0497  0.4843  0.4361
  141SAPE   H4X15435   6.085   2.523  10.346 -0.9264  0.9667  0.6383
  141SAPE   H4Y15436   6.242   2.592  10.315 -0.0156  2.4974 -2.5033
  141SAPE   C3515437   6.087   2.694  10.210  0.2036  0.5326 -0.4998
  141SAPE   H5X15438   6.160   2.777  10.202  0.2878  0.6620  1.4517
  141SAPE   H5Y15439   5.985   2.738  10.217  0.2879  0.4293  2.0341
  141SAPE   C3615440   6.079   2.604  10.090 -0.1226  0.0144  0.3316
  141SAPE   H6X15441   6.018   2.513  10.108 -1.5649  0.7471 -0.7210
  141SAPE   H6Y15442   6.178   2.558  10.070  0.1233  1.4353 -1.9269
  141SAPE   C3715443   6.064   2.687   9.955  0.0005 -0.5717  0.1013
  141SAPE   H7X15444   6.153   2.750   9.936 -0.6334  0.4022  0.3617
  141SAPE   H7Y15445   5.971   2.748   9.960  1.6293  1.7806  3.2111
  141SAPE   C3815446   6.054   2.600   9.831 -0.3017 -0.4018  0.1287
  141SAPE   H8X15447   5.960   2.541   9.824  0.5930 -1.6839 -1.2032
  141SAPE   H8Y15448   6.131   2.522   9.841  1.4769  1.3667  0.5960
  141SAPE   C3915449   6.090   2.663   9.700 -0.0392  0.2242  0.6782
  141SAPE   H9X15450   6.191   2.704   9.718  0.7448 -0.5543 -1.7774
  141SAPE   H9Y15451   6.015   2.744   9.691 -0.2343  0.3737  3.3052
  141SAPE  C31015452   6.083   2.558   9.587 -0.0241  0.4644  0.2958
  141SAPE  H10X15453   5.976   2.533   9.574  0.5440 -0.7661 -2.3599
  141SAPE  H10Y15454   6.142   2.468   9.613  0.6745  0.4646 -1.2366
  141SAPE  C31115455   6.134   2.620   9.455  0.2079  0.1215 -0.9253
  141SAPE  H11X15456   6.243   2.633   9.473 -0.0073 -0.2798  0.7240
  141SAPE  H11Y15457   6.095   2.723   9.446  0.7946  0.4364  0.1120
  141SAPE  C31215458   6.098   2.547   9.327  0.9241 -0.0312  0.0412
  141SAPE  H12X15459   5.989   2.529   9.312  0.8443 -1.0778  1.6634
  141SAPE  H12Y15460   6.140   2.445   9.336  1.5803  0.1307 -1.0926
  141SAPE  C31315461   6.179   2.606   9.209  0.1785  0.1404 -0.1303
  141SAPE  H13X15462   6.175   2.531   9.128 -0.3200  3.2205 -3.0756
  141SAPE  H13Y15463   6.287   2.616   9.235  0.6615  0.0091 -2.0083
  141SAPE  C31415464   6.137   2.740   9.156 -0.3002  0.6157  0.2152
  141SAPE  H14X15465   6.173   2.808   9.236 -2.5755  1.3221  0.6504
  141SAPE  H14Y15466   6.027   2.741   9.165 -0.3286 -0.2399 -0.0007
  141SAPE  C31515467   6.196   2.773   9.014  0.1484  0.6905 -0.4286
  141SAPE  H15X15468   6.164   2.697   8.939  0.2490 -1.0549  1.2680
  141SAPE  H15Y15469   6.305   2.755   9.021 -0.3319 -1.5716  2.2469
  141SAPE  C31615470   6.177   2.920   8.979 -0.8088  0.5391  0.3958
  141SAPE  H16X15471   6.223   2.942   8.881  0.0248 -1.5234  0.3015
  141SAPE  H16Y15472   6.232   2.979   9.056 -0.1247  1.4577 -0.7903
  141SAPE  C31715473   6.029   2.961   8.959  0.2431  0.2422  0.3794
  141SAPE  H17X15474   6.030   3.066   8.924  1.2288 -0.0313 -0.4102
  141SAPE  H17Y15475   5.968   2.975   9.052  0.2430  0.0751  0.4042
  141SAPE  C31815476   5.945   2.877   8.866  0.0293  0.0763 -0.6730
  141SAPE  H18X15477   6.001   2.864   8.771  2.1058  0.8385  0.4064
  141SAPE  H18Y15478   5.845   2.921   8.850  0.9683  1.9598 -1.6625
  141SAPE  H18Z15479   5.934   2.779   8.916  0.4471  0.3499 -0.0378
  142SAPE     N15480   5.926   1.732  11.086 -0.2667 -0.5531  0.0841
  142SAPE   HN115481   5.916   1.655  11.017 -0.6914  1.7867 -2.5618
  142SAPE   HN215482   6.022   1.735  11.127 -1.1723 -0.0871  2.2709
  142SAPE   HN315483   5.857   1.720  11.164 -2.4781 -0.6248 -1.8250
  142SAPE   C1215484   5.918   1.868  11.020 -0.4120 -0.1133  0.3541
  142SAPE  H12A15485   5.907   1.942  11.102  2.1540  0.1732  0.4903
  142SAPE  H12B15486   5.842   1.870  10.939  0.8634  1.6863 -0.8334
  142SAPE   C1115487   6.055   1.894  10.949  0.6170  0.6403 -0.0283
  142SAPE  H11A15488   6.043   1.995  10.905 -1.4429 -0.1662 -1.3644
  142SAPE  H11B15489   6.070   1.836  10.855 -1.2040  2.8460 -1.7077
  142SAPE     P15490   6.221   2.009  11.101 -0.5391  0.5002 -0.2360
  142SAPE   O1315491   6.117   2.063  11.188  0.1170 -0.6898  0.6605
  142SAPE   O1415492   6.351   1.980  11.169  0.0192 -0.0467  0.1380
  142SAPE   O1215493   6.170   1.887  11.023  0.0426 -0.1866  0.6065
  142SAPE   O1115494   6.234   2.124  10.985 -0.2275 -0.2041 -0.3290
  142SAPE    C115495   6.340   2.122  10.891 -0.8033 -0.1372 -0.7603
  142SAPE    HA15496   6.415   2.200  10.917 -1.7150  0.3503  0.4524
  142SAPE    HB15497   6.390   2.024  10.879 -0.4412 -0.0428 -0.0644
  142SAPE    C215498   6.298   2.152  10.740  0.1113  0.4639 -0.5219
  142SAPE    HS15499   6.273   2.260  10.741  1.3545  0.7576  0.5507
  142SAPE   O2115500   6.194   2.057  10.701  0.5817  0.2314 -0.3279
  142SAPE   C2115501   6.118   2.082  10.603  0.4985 -0.4419 -0.4840
  142SAPE   O2215502   6.089   2.189  10.552 -0.3359  0.0358 -0.0864
  142SAPE   C2215503   6.069   1.943  10.550  0.3110  0.1599 -0.1542
  142SAPE   H2R15504   6.154   1.873  10.535 -0.8387 -1.4916  0.8613
  142SAPE   H2S15505   6.011   1.904  10.636 -0.5308  2.4005  0.3236
  142SAPE    C315506   6.419   2.138  10.648  0.3097  0.3399 -0.4989
  142SAPE    HX15507   6.473   2.042  10.664 -2.9141 -1.8465 -2.2480
  142SAPE    HY15508   6.489   2.219  10.678  1.2193 -0.1350 -1.2951
  142SAPE   O3115509   6.390   2.152  10.503 -0.2180  0.2939  0.2428
  142SAPE   C3115510   6.375   2.279  10.460  1.0279  0.3837  0.0808
  142SAPE   O3215511   6.386   2.379  10.528  0.7672  0.0562 -0.7131
  142SAPE   C3215512   6.341   2.273  10.310 -0.0309  0.4212 -0.8331
  142SAPE   H2X15513   6.309   2.372  10.270  0.2472  0.9051  0.1331
  142SAPE   H2Y15514   6.246   2.214  10.304 -0.8324  1.5682  0.3465
  142SAPE   C2315515   5.972   1.948  10.432  0.1288  0.1922 -1.2366
  142SAPE   H3R15516   5.901   2.032  10.448 -0.7673 -0.9819  1.2782
  142SAPE   H3S15517   5.915   1.854  10.421 -1.6737  1.0947  0.0020
  142SAPE   C2415518   6.042   1.962  10.288 -0.4835 -0.2081  0.2229
  142SAPE   H4R15519   6.106   2.047  10.322  2.2190 -1.3826 -1.7883
  142SAPE   H4S15520   5.963   1.994  10.217 -1.1458 -3.0958 -0.3960
  142SAPE   C2515521   6.117   1.840  10.244 -0.1571  0.0323 -0.0799
  142SAPE   H5R15522   6.211   1.820  10.298  1.9579  3.1273 -2.4545
  142SAPE   C2615523   6.082   1.747  10.156 -0.9947  0.3419 -0.5294
  142SAPE   H6R15524   6.159   1.670  10.141 -1.3754 -0.0393 -0.5400
  142SAPE   C2715525   5.959   1.761  10.065  0.6162 -0.2306 -0.3319
  142SAPE   H7R15526   5.981   1.743   9.958 -0.2681 -0.8178 -0.4172
  142SAPE   H7S15527   5.913   1.862  10.075 -1.5076 -0.9491 -2.5117
  142SAPE   C2815528   5.859   1.651  10.098  0.0821 -0.4365  0.0316
  142SAPE   H8R15529   5.839   1.623  10.202  0.3940 -2.5183 -0.4427
  142SAPE   C2915530   5.782   1.577  10.009 -0.1976 -0.0048 -0.3576
  142SAPE   H9R15531   5.706   1.510  10.051 -0.9528  1.1672  0.1796
  142SAPE  C21015532   5.783   1.580   9.861 -0.8190  0.1639 -0.5459
  142SAPE  H10R15533   5.789   1.476   9.822  0.6003  0.2186 -0.4858
  142SAPE  H10S15534   5.872   1.626   9.813 -1.3437  0.4718 -1.2350
  142SAPE  C21115535   5.675   1.668   9.799 -0.6249 -0.4836  0.0060
  142SAPE  H11R15536   5.600   1.704   9.872 -0.6511  0.9938 -0.7380
  142SAPE  C21215537   5.665   1.698   9.662  0.0492  0.4516 -0.1654
  142SAPE  H12R15538   5.586   1.763   9.622 -2.6256 -3.0744 -0.8354
  142SAPE  C21315539   5.769   1.646   9.563 -0.0245 -0.3808  0.2070
  142SAPE  H13R15540   5.862   1.600   9.603  1.0253  3.7520  2.8666
  142SAPE  H13S15541   5.803   1.745   9.525  0.2556 -0.1610  1.0028
  142SAPE  C21415542   5.700   1.558   9.466  0.4461 -0.1991  0.0236
  142SAPE  H14R15543   5.686   1.457   9.505 -0.3953 -0.0788  0.0393
  142SAPE  C21515544   5.681   1.580   9.335  0.2263 -0.6261  0.1902
  142SAPE  H15R15545   5.604   1.517   9.287 -1.0219  0.9370  0.0896
  142SAPE  C21615546   5.725   1.699   9.248 -0.2147 -0.2870  0.1679
  142SAPE  H16R15547   5.775   1.774   9.313 -0.2656 -1.0544  1.1026
  142SAPE  H16S15548   5.636   1.749   9.204  1.1519 -0.6610 -3.1845
  142SAPE  C21715549   5.831   1.657   9.140 -0.3576  0.1220  0.3626
  142SAPE  H17R15550   5.792   1.566   9.089 -0.3954  0.6788 -0.6144
  142SAPE  H17S15551   5.920   1.624   9.196 -0.2857 -0.3803 -0.0528
  142SAPE  C21815552   5.863   1.776   9.040  0.2116 -0.5999  0.3555
  142SAPE  H18R15553   5.907   1.857   9.102 -1.1356  1.4878 -1.3703
  142SAPE  H18S15554   5.765   1.815   9.004 -0.6422 -2.8263  0.1781
  142SAPE  C21915555   5.948   1.732   8.922  0.0793 -0.5734  0.8180
  142SAPE  H19R15556   5.896   1.753   8.827  0.3034  2.6299  1.3600
  142SAPE  H19S15557   5.942   1.621   8.926  0.4191 -0.5437  2.6053
  142SAPE  C22015558   6.094   1.787   8.918  0.1196  0.5603  0.2731
  142SAPE  H20R15559   6.148   1.745   8.830  1.1536  2.6977 -0.1330
  142SAPE  H20S15560   6.148   1.771   9.014  1.0294  1.0622 -0.1483
  142SAPE  H20T15561   6.096   1.897   8.905  0.0295  0.3258 -1.9387
  142SAPE   C3315562   6.438   2.197  10.220  0.1655 -0.1295  0.0007
  142SAPE   H3X15563   6.455   2.092  10.253  1.8054  0.7479  2.1020
  142SAPE   H3Y15564   6.536   2.249  10.223  0.3858 -0.5703  0.6716
  142SAPE   C3415565   6.393   2.194  10.071 -0.4560 -0.1169  0.1955
  142SAPE   H4X15566   6.353   2.294  10.042  1.0196  0.7151  0.9466
  142SAPE   H4Y15567   6.312   2.118  10.071  1.3979 -2.1384  2.8235
  142SAPE   C3515568   6.502   2.150   9.973  0.8920 -0.0847  0.0062
  142SAPE   H5X15569   6.557   2.061  10.012 -0.8860 -0.5412  1.5717
  142SAPE   H5Y15570   6.572   2.236   9.966 -1.9188  2.3158  0.3540
  142SAPE   C3615571   6.446   2.124   9.837  0.0145  0.0054  0.8823
  142SAPE   H6X15572   6.392   2.213   9.799  1.8609  0.4741 -0.7334
  142SAPE   H6Y15573   6.372   2.041   9.843  0.2086 -0.3250 -0.9831
  142SAPE   C3715574   6.551   2.103   9.718  0.3809 -0.3235 -0.4458
  142SAPE   H7X15575   6.612   2.014   9.745  1.2005  0.0058 -1.1757
  142SAPE   H7Y15576   6.618   2.192   9.713 -0.9884  0.6183 -2.5987
  142SAPE   C3815577   6.478   2.074   9.579 -0.0898 -0.5321 -0.1460
  142SAPE   H8X15578   6.392   2.013   9.613  0.3524 -0.3879  1.2620
  142SAPE   H8Y15579   6.546   2.024   9.507  0.6908  1.4623 -0.8209
  142SAPE   C3915580   6.438   2.204   9.504  0.6143 -0.2695  0.1575
  142SAPE   H9X15581   6.525   2.267   9.476 -0.8496  1.2613 -1.0251
  142SAPE   H9Y15582   6.384   2.266   9.579 -0.2618  0.8573 -1.3758
  142SAPE  C31015583   6.350   2.181   9.378  0.4491  0.1354 -0.0842
  142SAPE  H10X15584   6.294   2.274   9.355 -0.0173 -0.5150 -1.6887
  142SAPE  H10Y15585   6.280   2.099   9.404  1.4730 -0.8281 -0.2989
  142SAPE  C31115586   6.431   2.136   9.245 -0.1843 -0.6532  0.0930
  142SAPE  H11X15587   6.479   2.038   9.266  2.6579  0.6553  0.0373
  142SAPE  H11Y15588   6.515   2.205   9.221 -1.1676  1.3015  2.1127
  142SAPE  C31215589   6.353   2.129   9.121  0.8547 -0.4615  0.2341
  142SAPE  H12X15590   6.281   2.044   9.132 -1.3508  1.1238 -1.4099
  142SAPE  H12Y15591   6.415   2.093   9.036 -0.1558  1.4752 -1.3593
  142SAPE  C31315592   6.278   2.257   9.077 -0.2945 -0.1165  0.6030
  142SAPE  H13X15593   6.348   2.342   9.093 -1.5236  1.1247 -0.5633
  142SAPE  H13Y15594   6.185   2.265   9.138  1.3226  0.0254  3.1460
  142SAPE  C31415595   6.230   2.245   8.938  0.1163 -0.2491 -0.5492
  142SAPE  H14X15596   6.151   2.167   8.933 -0.1044 -0.0984  0.4151
  142SAPE  H14Y15597   6.298   2.211   8.857 -0.4618  0.4527 -1.3303
  142SAPE  C31515598   6.165   2.380   8.895 -0.1612  0.5273 -0.0003
  142SAPE  H15X15599   6.238   2.463   8.901  0.3504  0.1206 -0.6005
  142SAPE  H15Y15600   6.080   2.404   8.963 -0.1995  1.0156 -0.2253
  142SAPE  C31615601   6.120   2.384   8.750  0.5499 -0.1862  0.7349
  142SAPE  H16X15602   6.068   2.289   8.724  1.8654 -0.2412 -1.8750
  142SAPE  H16Y15603   6.203   2.400   8.678  1.3971  2.6314  2.2465
  142SAPE  C31715604   6.020   2.504   8.726  0.1186  0.8320 -0.2473
  142SAPE  H17X15605   5.987   2.520   8.621 -2.7224 -1.6578  0.2158
  142SAPE  H17Y15606   6.070   2.599   8.755  1.7981 -0.0562 -0.1670
  142SAPE  C31815607   5.887   2.496   8.801 -0.5935 -0.8027 -0.4108
  142SAPE  H18X15608   5.907   2.511   8.910 -1.3774 -1.3190 -0.1885
  142SAPE  H18Y15609   5.839   2.396   8.795 -1.0074 -0.6017 -0.4958
  142SAPE  H18Z15610   5.818   2.577   8.770  0.0771 -0.3747 -0.7816
  143SAPE     N15611   1.250   2.963  11.007  0.4141 -0.0368 -0.2900
  143SAPE   HN115612   1.268   2.884  11.073  1.3214  0.9146  0.6246
  143SAPE   HN215613   1.174   2.937  10.941  2.0687 -2.7438 -1.2423
  143SAPE   HN315614   1.339   2.977  10.955 -1.0168  3.1652 -1.9910
  143SAPE   C1215615   1.217   3.087  11.083 -0.1765  0.4853  0.3271
  143SAPE  H12A15616   1.249   3.175  11.023 -1.5927 -0.5401 -2.0056
  143SAPE  H12B15617   1.293   3.090  11.164  1.3503  2.2238 -1.1227
  143SAPE   C1115618   1.076   3.092  11.132  0.4430 -0.0722 -0.3149
  143SAPE  H11A15619   1.057   3.191  11.177  0.1331  1.4140 -3.5547
  143SAPE  H11B15620   1.057   3.009  11.203 -1.3801  0.1380 -0.5483
  143SAPE     P15621   0.908   3.180  10.942 -0.2256 -0.2602 -0.0583
  143SAPE   O1315622   0.791   3.214  11.024 -0.4096 -0.1365  0.3986
  143SAPE   O1415623   1.007   3.287  10.911  0.1114  0.3311 -0.3406
  143SAPE   O1215624   0.994   3.072  11.021 -0.5333  0.3443  0.1887
  143SAPE   O1115625   0.857   3.106  10.807  0.0425 -0.6688 -0.0051
  143SAPE    C115626   0.945   3.031  10.722 -0.1676  0.3083  0.0682
  143SAPE    HA15627   1.037   3.002  10.777 -0.3355  2.7407  1.7549
  143SAPE    HB15628   0.895   2.937  10.691 -2.8145  0.4956  3.4068
  143SAPE    C215629   0.984   3.108  10.590  1.0106 -0.0918  0.3116
  143SAPE    HS15630   1.031   3.205  10.617 -0.5242  1.0415 -1.0279
  143SAPE   O2115631   0.871   3.127  10.505  0.2082 -0.0686  0.1122
  143SAPE   C2115632   0.784   3.227  10.544 -0.0781 -0.0852 -0.1228
  143SAPE   O2215633   0.805   3.306  10.632 -0.2013 -0.4773  0.1586
  143SAPE   C2215634   0.667   3.239  10.450  0.2856 -0.4825  0.5883
  143SAPE   H2R15635   0.627   3.139  10.422 -1.3328  0.0676  0.8923
  143SAPE   H2S15636   0.592   3.303  10.502  0.4656  0.3631 -0.1606
  143SAPE    C315637   1.093   3.022  10.509  0.1274 -0.0172  0.5622
  143SAPE    HX15638   1.181   3.014  10.576  0.4580 -2.9971 -0.1656
  143SAPE    HY15639   1.115   3.084  10.419  0.7735  1.2990  1.6058
  143SAPE   O3115640   1.053   2.891  10.452  0.0335 -0.4055 -0.8648
  143SAPE   C3115641   1.153   2.808  10.443  0.3665  0.5344 -0.3682
  143SAPE   O3215642   1.267   2.828  10.479  0.0137 -0.6199 -0.1492
  143SAPE   C3215643   1.107   2.670  10.393  0.2306  0.5071  0.0300
  143SAPE   H2X15644   0.996   2.665  10.383  0.3896  0.6884 -2.2468
  143SAPE   H2Y15645   1.160   2.592  10.451  0.3654  0.0820 -0.6584
  143SAPE   C2315646   0.697   3.317  10.318 -0.0358 -0.1978 -0.2174
  143SAPE   H3R15647   0.765   3.400  10.347  1.9853 -1.4170 -1.3259
  143SAPE   H3S15648   0.602   3.344  10.267 -0.3218 -1.8240 -0.5726
  143SAPE   C2415649   0.772   3.226  10.219 -0.4869 -0.2016 -0.0039
  143SAPE   H4R15650   0.717   3.135  10.187  1.4379 -1.8488  1.2445
  143SAPE   H4S15651   0.866   3.194  10.269 -1.5860 -0.5028  1.8941
  143SAPE   C2515652   0.818   3.304  10.096  0.0024 -0.0403 -0.6339
  143SAPE   H5R15653   0.900   3.374  10.121 -0.2443  0.4135 -1.0779
  143SAPE   C2615654   0.782   3.287   9.975  0.0805 -1.1233 -0.2854
  143SAPE   H6R15655   0.810   3.362   9.899 -0.5089  1.6723  2.1772
  143SAPE   C2715656   0.686   3.185   9.916  0.3618 -0.4733  0.2895
  143SAPE   H7R15657   0.627   3.248   9.846 -1.2710 -0.0377  2.0062
  143SAPE   H7S15658   0.612   3.153   9.992  0.4665  0.2151  0.6924
  143SAPE   C2815659   0.745   3.060   9.850  0.3382 -0.7392 -0.0086
  143SAPE   H8R15660   0.788   2.988   9.922 -0.8496 -0.9147  0.5424
  143SAPE   C2915661   0.752   3.035   9.721 -0.4956 -0.2524 -0.6714
  143SAPE   H9R15662   0.812   2.953   9.679 -1.5681 -2.4451  1.9306
  143SAPE  C21015663   0.704   3.129   9.613  0.5334  0.1540 -0.0565
  143SAPE  H10R15664   0.785   3.122   9.537  0.5866 -1.4135  0.1318
  143SAPE  H10S15665   0.689   3.233   9.650  2.0653  0.9650 -1.6303
  143SAPE  C21115666   0.579   3.072   9.543 -0.5353  0.9741 -0.2982
  143SAPE  H11R15667   0.487   3.074   9.603 -0.9656 -0.7875 -0.8769
  143SAPE  C21215668   0.571   3.021   9.420 -0.0308 -0.0907 -0.1305
  143SAPE  H12R15669   0.471   2.990   9.387  0.5413 -1.9959 -0.1260
  143SAPE  C21315670   0.673   3.009   9.308  0.9378 -0.1667 -0.2855
  143SAPE  H13R15671   0.770   3.057   9.335  0.7796 -0.8721  1.6125
  143SAPE  H13S15672   0.646   3.085   9.232 -1.9550 -1.8612 -1.0053
  143SAPE  C21415673   0.682   2.878   9.252  0.2134  0.4912  0.6864
  143SAPE  H14R15674   0.591   2.816   9.261  1.3128 -0.7193  4.8204
  143SAPE  C21515675   0.790   2.821   9.196  0.3714  0.0226 -0.2211
  143SAPE  H15R15676   0.778   2.716   9.164 -3.0671  0.6240 -1.1042
  143SAPE  C21615677   0.928   2.875   9.161 -0.7433 -0.1076 -0.5324
  143SAPE  H16R15678   0.914   2.983   9.186 -2.2900 -0.2579 -0.6540
  143SAPE  H16S15679   0.946   2.857   9.052  0.1837 -0.7185 -0.2783
  143SAPE  C21715680   1.046   2.834   9.249 -0.7369  0.0156  0.4758
  143SAPE  H17R15681   1.132   2.888   9.204 -0.8652  0.0152  0.2326
  143SAPE  H17S15682   1.074   2.728   9.228  0.3982  0.6055 -1.0675
  143SAPE  C21815683   1.037   2.838   9.398  0.0814  0.3786  0.1583
  143SAPE  H18R15684   0.979   2.755   9.444 -0.7297  1.1677  0.5771
  143SAPE  H18S15685   0.984   2.933   9.423 -0.9718 -0.3989  0.9478
  143SAPE  C21915686   1.165   2.853   9.480 -0.4284  0.1823 -0.6158
  143SAPE  H19R15687   1.227   2.941   9.454  1.2529 -0.6381  0.5263
  143SAPE  H19S15688   1.222   2.759   9.462  1.2559  1.5820 -2.8347
  143SAPE  C22015689   1.130   2.868   9.627  0.3302  0.4016 -0.2256
  143SAPE  H20R15690   1.066   2.783   9.659 -0.7124  1.9680  1.9914
  143SAPE  H20S15691   1.075   2.960   9.655  0.0129  0.7243 -1.8612
  143SAPE  H20T15692   1.214   2.869   9.700  0.6008 -0.0800 -0.5256
  143SAPE   C3315693   1.165   2.632  10.258 -0.1210 -0.7516  0.4873
  143SAPE   H3X15694   1.101   2.543  10.239  0.2272 -0.9821  0.3874
  143SAPE   H3Y15695   1.274   2.613  10.265 -0.2912 -2.0051 -0.0313
  143SAPE   C3415696   1.139   2.737  10.145 -0.0256  0.0144 -0.3576
  143SAPE   H4X15697   1.216   2.717  10.068  0.0997  4.4060 -1.5347
  143SAPE   H4Y15698   1.152   2.841  10.183 -0.6673 -0.1349  0.2906
  143SAPE   C3515699   1.005   2.727  10.071  0.1839 -0.1230 -0.7126
  143SAPE   H5X15700   0.984   2.816  10.008 -0.4067 -0.2418 -0.6885
  143SAPE   H5Y15701   0.924   2.737  10.147  0.8735 -0.2433  0.0488
  143SAPE   C3615702   0.984   2.593  10.000  1.0276 -0.0602  0.9454
  143SAPE   H6X15703   0.991   2.503  10.065  0.7161  0.4969  1.7633
  143SAPE   H6Y15704   1.059   2.580   9.919 -0.6511 -2.2037 -0.3062
  143SAPE   C3715705   0.848   2.605   9.927 -0.4127 -0.6684 -0.5280
  143SAPE   H7X15706   0.853   2.694   9.860  0.7808  0.7554  1.4165
  143SAPE   H7Y15707   0.770   2.629  10.003  2.1959  2.7733  1.1977
  143SAPE   C3815708   0.804   2.485   9.844 -0.4305 -1.0550 -0.9039
  143SAPE   H8X15709   0.701   2.500   9.805 -0.5444  1.5320  0.2944
  143SAPE   H8Y15710   0.794   2.390   9.902 -1.0940 -0.2734  0.2826
  143SAPE   C3915711   0.881   2.465   9.710 -0.2535  0.6054  1.0137
  143SAPE   H9X15712   0.986   2.444   9.739  0.2203  0.0361 -0.9919
  143SAPE   H9Y15713   0.887   2.566   9.664  0.6595  0.2922  0.4185
  143SAPE  C31015714   0.810   2.371   9.602  0.1889 -0.7317 -0.1754
  143SAPE  H10X15715   0.731   2.310   9.651 -0.1403 -0.6520 -0.6006
  143SAPE  H10Y15716   0.879   2.296   9.557 -1.4687 -1.7851 -1.0153
  143SAPE  C31115717   0.760   2.450   9.486  0.1749  0.5283  0.2750
  143SAPE  H11X15718   0.833   2.528   9.454  0.8922 -0.7804 -1.3113
  143SAPE  H11Y15719   0.665   2.496   9.523 -1.1475  0.1874 -2.5926
  143SAPE  C31215720   0.724   2.372   9.359  0.1603  0.3054  0.0743
  143SAPE  H12X15721   0.665   2.435   9.290 -0.5814  1.9205  2.1306
  143SAPE  H12Y15722   0.673   2.279   9.393 -0.9997  0.6310 -0.7292
  143SAPE  C31315723   0.844   2.314   9.275 -0.3731 -0.0844 -0.1645
  143SAPE  H13X15724   0.925   2.269   9.336 -0.3240 -0.2416 -0.3475
  143SAPE  H13Y15725   0.893   2.396   9.219 -0.6431  1.3921  1.7092
  143SAPE  C31415726   0.808   2.208   9.164 -0.6782 -0.2698 -0.4501
  143SAPE  H14X15727   0.718   2.248   9.113 -0.5488 -0.1460 -0.5825
  143SAPE  H14Y15728   0.780   2.110   9.209 -0.2012 -0.3353 -0.2988
  143SAPE  C31515729   0.918   2.166   9.064 -0.3676 -0.6227 -0.8178
  143SAPE  H15X15730   0.906   2.057   9.046  0.3959 -1.6460  4.0892
  143SAPE  H15Y15731   1.019   2.192   9.103 -1.2107 -0.6800  1.5258
  143SAPE  C31615732   0.885   2.223   8.928  0.0775  0.2219 -0.0353
  143SAPE  H16X15733   0.784   2.201   8.889  0.1101  1.6915 -0.9998
  143SAPE  H16Y15734   0.970   2.189   8.864  1.1928  1.7154  0.6199
  143SAPE  C31715735   0.870   2.377   8.929  0.0960  1.1595  0.2809
  143SAPE  H17X15736   0.965   2.419   8.969  1.0379 -0.6999  0.0241
  143SAPE  H17Y15737   0.780   2.408   8.986  0.1840  3.0606 -0.5890
  143SAPE  C31815738   0.842   2.438   8.797  0.5191 -0.1566 -0.3938
  143SAPE  H18X15739   0.921   2.408   8.725  2.7195  1.1533  1.3978
  143SAPE  H18Y15740   0.834   2.548   8.812 -2.0880 -0.3600 -0.1057
  143SAPE  H18Z15741   0.746   2.417   8.746  0.1436  0.0320  0.2233
  144SAPE     N15742   4.199   0.786  11.103 -0.2017 -0.1212 -0.2172
  144SAPE   HN115743   4.255   0.844  11.169 -0.7706 -0.2654  0.3949
  144SAPE   HN215744   4.126   0.848  11.063  1.7838  2.1365 -0.4647
  144SAPE   HN315745   4.158   0.705  11.152  0.4715 -0.0870  0.4119
  144SAPE   C1215746   4.268   0.724  10.989  0.5685 -0.3176  0.9419
  144SAPE  H12A15747   4.370   0.695  11.022  0.2907 -0.6201  1.5277
  144SAPE  H12B15748   4.279   0.803  10.911 -0.5325 -1.0301  0.0386
  144SAPE   C1115749   4.183   0.608  10.935 -0.1921  0.4563 -0.0149
  144SAPE  H11A15750   4.146   0.546  11.019  1.1431  1.1792  1.1341
  144SAPE  H11B15751   4.241   0.534  10.875  0.4883  1.0064 -0.0472
  144SAPE     P15752   3.987   0.554  10.769 -0.4330  0.1721 -0.0897
  144SAPE   O1315753   3.984   0.420  10.828  0.2851 -0.2404 -0.1121
  144SAPE   O1415754   3.857   0.614  10.734  0.0196  0.0140 -0.0073
  144SAPE   O1215755   4.072   0.649  10.865  0.5432  0.0546 -0.2620
  144SAPE   O1115756   4.080   0.545  10.642  0.0530 -0.2908 -0.7189
  144SAPE    C115757   4.085   0.434  10.552  0.1642  0.3636  0.2885
  144SAPE    HA15758   4.187   0.390  10.549 -0.4248 -0.9022 -2.4443
  144SAPE    HB15759   4.013   0.354  10.581  2.6140 -1.4162  1.5793
  144SAPE    C215760   4.044   0.483  10.410  0.6373  0.2662 -0.1251
  144SAPE    HS15761   4.049   0.394  10.343  0.8391  0.9553 -1.0411
  144SAPE   O2115762   4.134   0.586  10.368  0.4575 -0.0900  0.1011
  144SAPE   C2115763   4.240   0.541  10.304  0.4025 -0.1001 -0.4418
  144SAPE   O2215764   4.260   0.425  10.283 -0.2167 -0.0391  0.0318
  144SAPE   C2215765   4.315   0.668  10.255  0.7246 -0.4923 -0.0232
  144SAPE   H2R15766   4.267   0.706  10.162  0.1724  1.7064  1.1165
  144SAPE   H2S15767   4.314   0.743  10.338 -3.2622 -0.9818  0.4620
  144SAPE    C315768   3.906   0.554  10.404 -0.2239 -0.6508  0.1339
  144SAPE    HX15769   3.903   0.639  10.475  0.8228  1.7829 -2.6494
  144SAPE    HY15770   3.824   0.484  10.432 -0.2413 -0.7835 -0.2486
  144SAPE   O3115771   3.877   0.621  10.278 -0.3603  0.0131  0.2537
  144SAPE   C3115772   3.855   0.541  10.173 -0.7287 -0.6535  0.9601
  144SAPE   O3215773   3.857   0.419  10.180  0.8431  0.0153  0.2207
  144SAPE   C3215774   3.832   0.625  10.048 -0.0948  0.6532 -0.1631
  144SAPE   H2X15775   3.928   0.657  10.001 -0.9811  1.8410 -1.1933
  144SAPE   H2Y15776   3.788   0.725  10.069 -0.1417  0.5902  0.0327
  144SAPE   C2315777   4.460   0.646  10.217 -0.0509 -0.1763 -0.0753
  144SAPE   H3R15778   4.449   0.552  10.158  0.2501  0.0073 -0.4299
  144SAPE   H3S15779   4.521   0.624  10.307 -1.6038 -2.1827  0.5270
  144SAPE   C2415780   4.512   0.758  10.131 -0.7078  0.2460 -0.5674
  144SAPE   H4R15781   4.428   0.788  10.065 -1.9494 -0.1271  0.8058
  144SAPE   H4S15782   4.592   0.703  10.077 -0.0221 -0.4068  1.0741
  144SAPE   C2515783   4.555   0.878  10.212 -0.7894  0.4117  0.3221
  144SAPE   H5R15784   4.645   0.869  10.274 -0.7489 -0.1691  0.1787
  144SAPE   C2615785   4.488   0.991  10.228  0.0392 -0.4021 -0.2587
  144SAPE   H6R15786   4.543   1.072  10.279  0.5451 -0.1716 -1.1462
  144SAPE   C2715787   4.351   1.031  10.174  0.0229 -0.5804  0.0907
  144SAPE   H7R15788   4.276   1.049  10.254 -0.5764  0.3507 -0.6693
  144SAPE   H7S15789   4.308   0.954  10.107  1.5252  0.3350 -1.9867
  144SAPE   C2815790   4.367   1.154  10.089  0.2451 -0.0973 -0.7128
  144SAPE   H8R15791   4.353   1.249  10.142  2.7717 -0.3568  0.5094
  144SAPE   C2915792   4.415   1.150   9.958  0.1180  0.6591 -0.8329
  144SAPE   H9R15793   4.433   1.249   9.912 -0.2694 -0.0711 -2.6117
  144SAPE  C21015794   4.449   1.031   9.872 -0.2246 -0.0795  0.1098
  144SAPE  H10R15795   4.416   0.942   9.930 -2.6720  0.6496 -0.0893
  144SAPE  H10S15796   4.559   1.031   9.860 -0.3453  2.3760 -1.3229
  144SAPE  C21115797   4.381   1.027   9.739  0.1161  0.6703  0.2073
  144SAPE  H11R15798   4.364   1.127   9.695  0.6752  0.7492  0.1704
  144SAPE  C21215799   4.343   0.917   9.677 -0.4200  0.0764  0.2565
  144SAPE  H12R15800   4.300   0.923   9.576 -1.4981 -0.0881  0.6935
  144SAPE  C21315801   4.370   0.779   9.719 -0.6813  0.1195  0.4351
  144SAPE  H13R15802   4.458   0.788   9.786 -0.3052  2.7359 -0.3618
  144SAPE  H13S15803   4.393   0.718   9.629  2.1159 -1.3061  2.0316
  144SAPE  C21415804   4.244   0.717   9.779 -0.3039  0.1400 -0.0131
  144SAPE  H14R15805   4.186   0.784   9.844  2.3454  3.3203 -0.7399
  144SAPE  C21515806   4.206   0.588   9.769  0.4113  1.0404  0.1867
  144SAPE  H15R15807   4.108   0.560   9.811  1.6018 -2.5394  0.6904
  144SAPE  C21615808   4.272   0.485   9.685 -0.2015 -0.6412 -0.5227
  144SAPE  H16R15809   4.281   0.392   9.745  1.8481  0.6164  1.1877
  144SAPE  H16S15810   4.380   0.502   9.665  0.6890 -4.4121  0.5562
  144SAPE  C21715811   4.202   0.449   9.555 -0.7401 -0.0680 -0.0727
  144SAPE  H17R15812   4.106   0.395   9.570 -0.8696  0.9977  3.5669
  144SAPE  H17S15813   4.276   0.385   9.502 -0.7211  0.0191 -0.1507
  144SAPE  C21815814   4.159   0.559   9.461 -0.4185 -0.1429  0.0733
  144SAPE  H18R15815   4.248   0.625   9.452  0.2135 -1.0914 -0.5853
  144SAPE  H18S15816   4.067   0.613   9.493  0.2040  1.0563 -0.1183
  144SAPE  C21915817   4.132   0.517   9.316  0.7901  0.4577  0.3831
  144SAPE  H19R15818   4.092   0.596   9.249 -1.2690 -0.9695 -0.0922
  144SAPE  H19S15819   4.052   0.441   9.326 -0.0295  1.1307 -0.9228
  144SAPE  C22015820   4.250   0.458   9.245 -0.1953 -0.4889 -0.6512
  144SAPE  H20R15821   4.261   0.477   9.136  1.5035  3.4368  0.1105
  144SAPE  H20S15822   4.268   0.350   9.263 -3.0024 -1.0538 -0.9411
  144SAPE  H20T15823   4.343   0.495   9.293 -0.2791 -0.4819 -0.4931
  144SAPE   C3315824   3.761   0.549   9.939 -0.3210 -0.0894 -0.3112
  144SAPE   H3X15825   3.652   0.538   9.956 -0.1944 -0.7504  0.0564
  144SAPE   H3Y15826   3.806   0.448   9.929  0.3825  0.2912 -1.0754
  144SAPE   C3415827   3.772   0.626   9.797  0.3750  0.0192 -0.0404
  144SAPE   H4X15828   3.870   0.642   9.747  0.7422 -0.2153  0.5964
  144SAPE   H4Y15829   3.737   0.724   9.834  1.3275 -0.4363  2.2006
  144SAPE   C3515830   3.671   0.575   9.691 -0.0838 -0.3592 -0.1622
  144SAPE   H5X15831   3.565   0.576   9.726  0.1479 -2.1584  0.6633
  144SAPE   H5Y15832   3.692   0.471   9.656  3.0988  1.2207 -3.1890
  144SAPE   C3615833   3.684   0.659   9.561  0.7110 -0.1131  0.0236
  144SAPE   H6X15834   3.788   0.650   9.523  0.8654  0.4514  0.2934
  144SAPE   H6Y15835   3.661   0.765   9.586 -0.0533 -0.3185  0.2105
  144SAPE   C3715836   3.590   0.614   9.454  0.3161 -0.1898 -0.0515
  144SAPE   H7X15837   3.489   0.626   9.498  0.7131  3.1479  0.0380
  144SAPE   H7Y15838   3.605   0.505   9.436  5.5095  0.6024 -1.6108
  144SAPE   C3815839   3.596   0.707   9.321  0.0304  0.0320  0.4536
  144SAPE   H8X15840   3.612   0.814   9.348  0.0619  0.5691 -1.5790
  144SAPE   H8Y15841   3.498   0.701   9.271 -0.0124  0.7456  0.4384
  144SAPE   C3915842   3.699   0.667   9.212  0.5067  0.2159 -0.6385
  144SAPE   H9X15843   3.664   0.570   9.172  2.0712 -0.4391 -0.4467
  144SAPE   H9Y15844   3.801   0.653   9.252  0.4788 -0.1939 -0.7102
  144SAPE  C31015845   3.691   0.773   9.103 -0.0980 -0.2340 -0.1977
  144SAPE  H10X15846   3.741   0.866   9.136 -2.1215  1.5449 -1.9718
  144SAPE  H10Y15847   3.586   0.800   9.076 -0.1149  1.3104  1.3641
  144SAPE  C31115848   3.752   0.733   8.975  0.1103  0.5920 -0.4396
  144SAPE  H11X15849   3.693   0.648   8.935  2.5390  0.2013 -3.4601
  144SAPE  H11Y15850   3.852   0.689   8.995  0.3685  0.5729 -1.6799
  144SAPE  C31215851   3.768   0.832   8.866 -0.6342 -1.0883 -0.3958
  144SAPE  H12X15852   3.673   0.879   8.833  0.9595  1.5875 -1.2655
  144SAPE  H12Y15853   3.818   0.798   8.773  2.7319  0.5644  0.7466
  144SAPE  C31315854   3.856   0.954   8.901 -0.2369 -0.1791 -0.1654
  144SAPE  H13X15855   3.951   0.903   8.928 -1.4026 -2.1562  0.2773
  144SAPE  H13Y15856   3.806   1.006   8.986 -1.6384  0.8816 -1.6009
  144SAPE  C31415857   3.876   1.049   8.789  0.1005 -0.0461  0.5124
  144SAPE  H14X15858   3.785   1.063   8.728  1.6658  0.2553 -1.8079
  144SAPE  H14Y15859   3.958   1.011   8.724  0.1707  0.1396  0.4904
  144SAPE  C31515860   3.926   1.188   8.825 -0.2067  0.5078  0.0001
  144SAPE  H15X15861   4.010   1.191   8.897 -1.0569 -0.2145  1.0507
  144SAPE  H15Y15862   3.856   1.241   8.894 -0.6407 -1.6682  1.2675
  144SAPE  C31615863   3.933   1.276   8.699 -0.3255  0.8223 -1.0015
  144SAPE  H16X15864   3.835   1.257   8.651  0.3567 -2.5947 -1.1760
  144SAPE  H16Y15865   4.004   1.229   8.628 -2.0633 -0.6231 -1.8072
  144SAPE  C31715866   3.953   1.425   8.728  0.7172 -0.4046 -1.1084
  144SAPE  H17X15867   3.872   1.465   8.791  1.8275 -2.5297  1.7933
  144SAPE  H17Y15868   3.931   1.477   8.632 -1.0370  0.1694 -0.3933
  144SAPE  C31815869   4.093   1.466   8.771 -0.3092  0.0186  0.4596
  144SAPE  H18X15870   4.115   1.427   8.873  2.1491  0.3911  0.0845
  144SAPE  H18Y15871   4.121   1.573   8.766  1.6911 -0.5140 -0.0163
  144SAPE  H18Z15872   4.171   1.427   8.702  0.6188  1.7458  0.5101
  145SAPE     N15873   1.422   1.592  11.416 -0.1650 -0.4976 -0.1326
  145SAPE   HN115874   1.341   1.528  11.410 -1.4233  1.1161 -0.8388
  145SAPE   HN215875   1.483   1.568  11.497  0.7618  1.8515 -0.0978
  145SAPE   HN315876   1.388   1.690  11.413 -0.2088 -0.4184  1.8966
  145SAPE   C1215877   1.503   1.578  11.292  0.7710  1.0574 -0.6240
  145SAPE  H12A15878   1.511   1.469  11.275 -2.2822  0.8767 -1.2359
  145SAPE  H12B15879   1.602   1.620  11.320  0.6236  0.4583  0.8652
  145SAPE   C1115880   1.454   1.663  11.180 -0.7728  0.2165  0.0529
  145SAPE  H11A15881   1.350   1.643  11.146  0.4956 -1.2383 -3.1870
  145SAPE  H11B15882   1.521   1.641  11.095 -4.0036 -1.0953 -2.2728
  145SAPE     P15883   1.358   1.907  11.233 -0.1020  0.0496  0.0544
  145SAPE   O1315884   1.230   1.836  11.274 -0.1249  0.0022 -0.0952
  145SAPE   O1415885   1.401   2.014  11.324 -0.0892  0.0955 -0.1687
  145SAPE   O1215886   1.475   1.806  11.195  0.2934 -0.2540 -0.4829
  145SAPE   O1115887   1.333   1.979  11.098 -0.0629 -0.2229  0.0719
  145SAPE    C115888   1.313   1.893  10.985 -0.1172  0.3450 -0.1493
  145SAPE    HA15889   1.394   1.824  10.953 -1.7136 -0.8074 -1.7229
  145SAPE    HB15890   1.229   1.822  10.998 -0.4020  0.4530 -1.3886
  145SAPE    C215891   1.283   1.972  10.858 -0.4442 -0.3099  0.8403
  145SAPE    HS15892   1.195   2.033  10.886 -0.6845 -0.0054 -0.5597
  145SAPE   O2115893   1.257   1.874  10.757 -0.0410 -0.6605 -0.3691
  145SAPE   C2115894   1.143   1.903  10.687 -0.8879 -0.3469 -0.8934
  145SAPE   O2215895   1.065   1.994  10.711  0.2854  0.3736  0.0251
  145SAPE   C2215896   1.146   1.803  10.567  0.0854 -0.1185 -0.0543
  145SAPE   H2R15897   1.247   1.757  10.572 -0.3896 -1.3189 -1.3094
  145SAPE   H2S15898   1.071   1.727  10.599 -0.1709 -0.1464 -0.7121
  145SAPE    C315899   1.399   2.066  10.821 -0.2999  0.3368  0.0454
  145SAPE    HX15900   1.490   2.003  10.829  0.7841  1.7679 -0.8357
  145SAPE    HY15901   1.405   2.144  10.901  1.0788  1.1502 -0.8315
  145SAPE   O3115902   1.390   2.117  10.688  1.1160  0.5443  0.5834
  145SAPE   C3115903   1.320   2.232  10.670 -0.6399  0.1296  0.1492
  145SAPE   O3215904   1.261   2.293  10.754  0.2721 -0.0386 -0.3588
  145SAPE   C3215905   1.331   2.267  10.519 -0.5247 -0.2947 -0.1294
  145SAPE   H2X15906   1.353   2.376  10.523 -1.7192 -0.0753  0.6501
  145SAPE   H2Y15907   1.230   2.263  10.473  0.9065  3.5537 -3.9092
  145SAPE   C2315908   1.122   1.861  10.428  0.3251  0.6794 -0.3074
  145SAPE   H3R15909   1.208   1.927  10.405 -0.0144  0.5730 -1.9246
  145SAPE   H3S15910   1.025   1.916  10.432 -1.1135 -1.8304  0.5426
  145SAPE   C2415911   1.103   1.740  10.327 -0.2058  0.0171  0.4350
  145SAPE   H4R15912   1.028   1.664  10.358 -0.7403  0.6445  0.6700
  145SAPE   H4S15913   1.204   1.693  10.331  0.1695  0.7545 -0.2022
  145SAPE   C2515914   1.074   1.788  10.188  0.8673  0.1728  0.1234
  145SAPE   H5R15915   0.967   1.794  10.162  0.5230  1.0966  1.6992
  145SAPE   C2615916   1.163   1.844  10.103  0.8845 -0.7658  0.2314
  145SAPE   H6R15917   1.130   1.884  10.007  1.6400 -1.3198 -0.2716
  145SAPE   C2715918   1.312   1.874  10.118 -0.4449  0.2119 -0.2806
  145SAPE   H7R15919   1.334   1.914  10.219  1.8517 -2.3989  0.3243
  145SAPE   H7S15920   1.344   1.958  10.052  0.7935 -0.9099 -1.1443
  145SAPE   C2815921   1.401   1.750  10.085  0.3179 -0.0499  0.5386
  145SAPE   H8R15922   1.432   1.694  10.174  1.6787 -1.3188 -0.7071
  145SAPE   C2915923   1.443   1.706   9.965 -0.4201 -0.5834  0.3545
  145SAPE   H9R15924   1.522   1.629   9.967  0.3866  0.2438  1.1692
  145SAPE  C21015925   1.421   1.772   9.829  0.7973 -0.3167  0.4639
  145SAPE  H10R15926   1.512   1.765   9.766  0.0316 -1.4535 -0.5508
  145SAPE  H10S15927   1.423   1.882   9.844  0.1407 -0.0838 -1.0751
  145SAPE  C21115928   1.303   1.708   9.758  0.2323 -0.0582 -0.3261
  145SAPE  H11R15929   1.205   1.695   9.805 -0.2914 -1.9160 -1.8767
  145SAPE  C21215930   1.310   1.664   9.629  0.1863 -0.4457 -0.2291
  145SAPE  H12R15931   1.232   1.594   9.596  1.2027 -1.0442 -1.3852
  145SAPE  C21315932   1.427   1.677   9.533  0.0333 -0.6621 -0.9320
  145SAPE  H13R15933   1.488   1.584   9.538  2.1769  0.6194 -2.1959
  145SAPE  H13S15934   1.492   1.761   9.568 -0.6163 -0.7773  0.5957
  145SAPE  C21415935   1.368   1.698   9.396 -0.2414  0.2030 -0.2232
  145SAPE  H14R15936   1.311   1.793   9.395 -0.3467  0.1643  1.4277
  145SAPE  C21515937   1.355   1.612   9.297  0.0622 -0.4185 -0.6491
  145SAPE  H15R15938   1.303   1.643   9.206  3.2672 -0.8031 -2.6688
  145SAPE  C21615939   1.400   1.468   9.288  0.3729 -0.4174  0.4747
  145SAPE  H16R15940   1.462   1.438   9.375 -0.2572 -1.2373  0.6465
  145SAPE  H16S15941   1.477   1.463   9.208  0.0501 -1.1728  0.2023
  145SAPE  C21715942   1.280   1.374   9.254  0.4792  0.1208  0.4895
  145SAPE  H17R15943   1.230   1.405   9.159  0.2044 -2.8155 -0.4079
  145SAPE  H17S15944   1.207   1.369   9.337 -1.1965  2.2273 -0.7966
  145SAPE  C21815945   1.323   1.232   9.207  0.0916 -0.2846 -0.1222
  145SAPE  H18R15946   1.390   1.191   9.286  0.5671  0.7257  0.0154
  145SAPE  H18S15947   1.378   1.245   9.111  1.4039  0.2306  0.6849
  145SAPE  C21915948   1.209   1.138   9.188  0.1442 -0.1045 -0.5396
  145SAPE  H19R15949   1.260   1.042   9.166  0.6974 -0.5361  2.3872
  145SAPE  H19S15950   1.144   1.174   9.106 -2.6671 -1.4947  1.0001
  145SAPE  C22015951   1.124   1.113   9.308 -0.4960 -0.0763  0.0343
  145SAPE  H20R15952   1.062   1.021   9.302  0.8576 -0.9975 -0.0665
  145SAPE  H20S15953   1.057   1.196   9.340 -1.5655 -0.2157 -1.7859
  145SAPE  H20T15954   1.196   1.098   9.392 -0.3515  0.1249 -0.0553
  145SAPE   C3315955   1.430   2.194  10.427  0.1089  0.0203 -0.5959
  145SAPE   H3X15956   1.397   2.218  10.324  0.4214  1.4013 -0.3843
  145SAPE   H3Y15957   1.417   2.084  10.435 -0.5297  0.1731  0.6330
  145SAPE   C3415958   1.575   2.233  10.445 -0.0536  0.0678 -0.1807
  145SAPE   H4X15959   1.607   2.217  10.550 -0.9384 -0.2461  0.0419
  145SAPE   H4Y15960   1.593   2.341  10.424 -2.3682  0.4212 -0.4507
  145SAPE   C3515961   1.670   2.143  10.360  0.2436 -0.0025 -0.0622
  145SAPE   H5X15962   1.630   2.041  10.381 -1.9158  1.1510  1.5713
  145SAPE   H5Y15963   1.776   2.146  10.393  0.7600  0.3176 -1.7275
  145SAPE   C3615964   1.659   2.178  10.208  0.3542  0.4130 -0.5502
  145SAPE   H6X15965   1.711   2.273  10.182  0.1831  0.7311  0.2709
  145SAPE   H6Y15966   1.552   2.188  10.182  0.0106  0.4098  0.8569
  145SAPE   C3715967   1.713   2.059  10.126  0.4558  0.1712 -0.4490
  145SAPE   H7X15968   1.646   1.973  10.147  0.5431  0.2084 -0.0075
  145SAPE   H7Y15969   1.813   2.027  10.162  0.2747 -1.2984 -1.2259
  145SAPE   C3815970   1.748   2.080   9.978  0.5661  0.6672  0.1320
  145SAPE   H8X15971   1.828   2.157   9.978  0.1820  1.0999 -2.0466
  145SAPE   H8Y15972   1.671   2.130   9.914  1.5332  0.5263 -1.1640
  145SAPE   C3915973   1.787   1.952   9.909 -0.2168  0.8418  0.1235
  145SAPE   H9X15974   1.704   1.878   9.906 -0.1537  0.8093 -1.1825
  145SAPE   H9Y15975   1.867   1.926   9.981  0.3816  0.0390 -0.8205
  145SAPE  C31015976   1.831   1.965   9.759  0.2086 -0.0913  0.0622
  145SAPE  H10X15977   1.849   1.862   9.722  0.8626  0.0030  0.1218
  145SAPE  H10Y15978   1.929   2.016   9.748  0.0490 -0.0149 -1.0034
  145SAPE  C31115979   1.715   2.012   9.669  0.3338 -0.5837 -0.2231
  145SAPE  H11X15980   1.688   2.118   9.689  1.6667 -0.2379 -0.2545
  145SAPE  H11Y15981   1.618   1.966   9.697 -0.9015  1.7443 -0.5226
  145SAPE  C31215982   1.745   1.974   9.527 -0.2089  0.1973 -0.0405
  145SAPE  H12X15983   1.763   1.866   9.507  1.8018  0.7741 -1.6337
  145SAPE  H12Y15984   1.837   2.025   9.489  0.6146 -1.6474 -0.5857
  145SAPE  C31315985   1.628   2.009   9.430  0.2734  0.6858 -0.1851
  145SAPE  H13X15986   1.612   2.119   9.430 -0.2120  0.6239 -1.4098
  145SAPE  H13Y15987   1.534   1.958   9.461 -0.0653  0.7088 -1.1720
  145SAPE  C31415988   1.676   1.978   9.289  0.0646  0.2481  0.2134
  145SAPE  H14X15989   1.688   1.868   9.282 -1.2239  0.1789 -1.0079
  145SAPE  H14Y15990   1.770   2.032   9.266  0.7220 -1.2752 -0.7012
  145SAPE  C31515991   1.588   2.025   9.175  0.0448  0.3541  0.0151
  145SAPE  H15X15992   1.637   2.018   9.076 -1.2787  1.5396 -0.7429
  145SAPE  H15Y15993   1.571   2.132   9.200  1.9621  0.3167  1.5905
  145SAPE  C31615994   1.448   1.956   9.178 -0.0192  0.7217 -0.1712
  145SAPE  H16X15995   1.394   1.971   9.274  2.3557  0.3402  1.2787
  145SAPE  H16Y15996   1.452   1.846   9.159 -0.3537  0.9997 -1.8869
  145SAPE  C31715997   1.355   2.017   9.072  0.3218  0.1844 -0.8832
  145SAPE  H17X15998   1.399   2.022   8.970  1.3479 -1.8917 -0.5705
  145SAPE  H17Y15999   1.347   2.122   9.106  2.4516 -0.3982  1.6123
  145SAPE  C31816000   1.222   1.940   9.062  0.5241  0.1258  0.2192
  145SAPE  H18X16001   1.167   1.941   9.159  0.7439  0.4662  0.3433
  145SAPE  H18Y16002   1.249   1.834   9.044 -0.9140 -0.3306  0.6991
  145SAPE  H18Z16003   1.151   1.973   8.984  3.8645  1.4800 -2.3824
  146SAPE     N16004   5.935   1.078  10.921 -0.3170 -0.4935 -0.3513
  146SAPE   HN116005   5.837   1.063  10.952 -0.6268  1.1331 -0.5043
  146SAPE   HN216006   5.988   0.989  10.935  2.4030  0.9374 -1.2308
  146SAPE   HN316007   5.986   1.144  10.984 -0.5984 -1.3646  0.8105
  146SAPE   C1216008   5.951   1.127  10.782 -0.7479 -0.2695 -0.6452
  146SAPE  H12A16009   5.857   1.178  10.751 -0.6366  0.8027  0.6877
  146SAPE  H12B16010   5.960   1.038  10.717  3.3512 -1.6378  1.6786
  146SAPE   C1116011   6.081   1.215  10.760 -0.4245 -0.0845  0.0336
  146SAPE  H11A16012   6.076   1.265  10.660 -1.5007  0.5781  0.4039
  146SAPE  H11B16013   6.173   1.155  10.776 -0.1517  0.6346  1.2071
  146SAPE     P16014   5.981   1.442  10.862 -0.0993 -0.0311  0.3944
  146SAPE   O1316015   5.851   1.386  10.903  0.1293 -0.0766  0.1217
  146SAPE   O1416016   6.037   1.545  10.948 -0.4221  0.3566 -0.2840
  146SAPE   O1216017   6.086   1.320  10.858 -0.3461 -0.3904  0.3651
  146SAPE   O1116018   5.983   1.500  10.721 -0.0222 -0.2669 -0.3458
  146SAPE    C116019   5.869   1.573  10.669 -0.4345 -0.6797  0.0526
  146SAPE    HA16020   5.801   1.613  10.748  3.0774  0.6731  2.4829
  146SAPE    HB16021   5.915   1.654  10.608 -0.6946  0.0954  0.8787
  146SAPE    C216022   5.796   1.494  10.565 -0.0353  0.4121 -0.5233
  146SAPE    HS16023   5.751   1.402  10.608 -1.1514  1.1581 -0.0946
  146SAPE   O2116024   5.891   1.472  10.457 -0.3656 -0.3524 -0.2105
  146SAPE   C2116025   5.928   1.339  10.434 -0.0999  0.4475  0.2583
  146SAPE   O2216026   5.878   1.247  10.490  0.9976  0.1941  0.0585
  146SAPE   C2216027   6.044   1.344  10.331 -0.4065  0.5628  0.5094
  146SAPE   H2R16028   6.078   1.241  10.310 -1.8877  0.3950 -1.1684
  146SAPE   H2S16029   6.009   1.387  10.234 -1.4061 -0.1320  0.5536
  146SAPE    C316030   5.676   1.585  10.519 -0.1855 -0.2942  0.7013
  146SAPE    HX16031   5.728   1.680  10.498  0.2703 -0.7709 -0.3580
  146SAPE    HY16032   5.608   1.591  10.607 -0.5277  0.9565  0.3615
  146SAPE   O3116033   5.610   1.530  10.403 -0.4076 -0.2187  0.0925
  146SAPE   C3116034   5.480   1.518  10.405  0.5707  0.4855  0.2651
  146SAPE   O3216035   5.413   1.556  10.502 -0.1358 -0.3653 -0.2140
  146SAPE   C3216036   5.435   1.438  10.284 -0.8558  1.1253  0.2037
  146SAPE   H2X16037   5.343   1.388  10.321  0.0142 -0.1192  0.7301
  146SAPE   H2Y16038   5.519   1.371  10.256 -0.8915  1.4567 -0.7038
  146SAPE   C2316039   6.170   1.425  10.371  0.0538  0.0890 -0.7771
  146SAPE   H3R16040   6.205   1.400  10.473 -0.0000 -0.9050 -0.9938
  146SAPE   H3S16041   6.132   1.530  10.375 -2.4746 -0.7330 -2.0741
  146SAPE   C2416042   6.283   1.422  10.272  0.6897 -0.1366 -0.2191
  146SAPE   H4R16043   6.240   1.477  10.185  2.6684 -1.9279 -2.3916
  146SAPE   H4S16044   6.306   1.318  10.243  0.2723 -0.7149  1.4391
  146SAPE   C2516045   6.409   1.492  10.324  0.8340 -0.2302  0.3009
  146SAPE   H5R16046   6.438   1.479  10.430  1.1181  0.4817  0.3124
  146SAPE   C2616047   6.487   1.577  10.248  0.2924  0.2043 -0.2250
  146SAPE   H6R16048   6.571   1.627  10.297 -1.5924  3.3909 -0.1221
  146SAPE   C2716049   6.458   1.610  10.104 -0.0512  0.0378 -0.1080
  146SAPE   H7R16050   6.375   1.551  10.061  1.2538 -0.9444 -1.2784
  146SAPE   H7S16051   6.551   1.589  10.048  1.0615  0.2314  1.6014
  146SAPE   C2816052   6.410   1.754  10.077  0.5066  0.1763  0.0869
  146SAPE   H8R16053   6.451   1.822  10.154 -0.9999 -1.8764  2.8082
  146SAPE   C2916054   6.338   1.801   9.973  0.0000  0.3017 -0.5707
  146SAPE   H9R16055   6.283   1.894   9.991 -1.2344 -0.4004 -0.6553
  146SAPE  C21016056   6.296   1.724   9.852 -0.1754 -0.1373  0.3631
  146SAPE  H10R16057   6.190   1.750   9.833  0.0050 -0.2242 -0.7880
  146SAPE  H10S16058   6.286   1.618   9.884 -4.2109 -0.4753 -1.6490
  146SAPE  C21116059   6.380   1.732   9.716  0.0551  0.5612  0.4227
  146SAPE  H11R16060   6.486   1.713   9.735  0.0159  0.4721  0.5518
  146SAPE  C21216061   6.324   1.729   9.588  0.3435 -0.2611 -0.0640
  146SAPE  H12R16062   6.387   1.738   9.499 -1.5455  1.2756 -1.2628
  146SAPE  C21316063   6.176   1.734   9.553  0.2357 -0.7206  0.7635
  146SAPE  H13R16064   6.103   1.766   9.630 -2.4670 -0.6316 -1.7224
  146SAPE  H13S16065   6.155   1.628   9.525 -2.8932 -0.4295  1.8111
  146SAPE  C21416066   6.140   1.819   9.425 -0.2600  1.0005 -0.4196
  146SAPE  H14R16067   6.178   1.783   9.328 -1.8067 -0.8580 -0.3569
  146SAPE  C21516068   6.053   1.920   9.420  0.0658  1.0269 -0.2788
  146SAPE  H15R16069   6.033   1.956   9.317  0.5772  0.0666 -0.7124
  146SAPE  C21616070   5.965   1.978   9.527 -0.5809 -0.6229 -0.4583
  146SAPE  H16R16071   5.902   1.903   9.579 -1.1491 -0.6553 -1.1889
  146SAPE  H16S16072   5.890   2.034   9.466 -1.7457 -3.5746 -1.7935
  146SAPE  C21716073   6.031   2.052   9.644 -0.2376 -1.4539 -0.0339
  146SAPE  H17R16074   6.045   2.153   9.601 -2.7428  0.4815  3.4248
  146SAPE  H17S16075   6.125   1.999   9.673 -0.7218 -1.8206  0.9060
  146SAPE  C21816076   5.943   2.074   9.774 -0.2882 -0.2568  0.5641
  146SAPE  H18R16077   5.935   1.972   9.816 -0.6293 -1.5427 -2.4939
  146SAPE  H18S16078   5.843   2.115   9.746  0.2534  0.1064 -0.8836
  146SAPE  C21916079   6.023   2.164   9.864  0.1975  0.0521 -0.4235
  146SAPE  H19R16080   6.030   2.251   9.795 -2.1017  0.1614 -0.5636
  146SAPE  H19S16081   6.123   2.124   9.890  1.2802  2.5092 -0.6488
  146SAPE  C22016082   5.950   2.206   9.995 -0.1528 -0.5278 -0.2520
  146SAPE  H20R16083   6.031   2.239  10.064  0.6348  1.3969 -2.0581
  146SAPE  H20S16084   5.892   2.121  10.038 -0.0575 -0.6709 -0.4077
  146SAPE  H20T16085   5.880   2.290   9.973  0.5048  0.1547  0.2200
  146SAPE   C3316086   5.394   1.533  10.164  0.0371  0.0257 -0.0689
  146SAPE   H3X16087   5.461   1.621  10.165  0.2898 -0.1671  0.4691
  146SAPE   H3Y16088   5.297   1.582  10.184  0.9765  1.9377 -0.0392
  146SAPE   C3416089   5.381   1.466  10.035  0.3999  0.2557  0.3643
  146SAPE   H4X16090   5.321   1.373  10.037 -0.4205  0.7668  0.0367
  146SAPE   H4Y16091   5.485   1.456   9.996  0.4880  1.0940  0.3669
  146SAPE   C3516092   5.310   1.553   9.927  0.2329  0.2077 -1.0846
  146SAPE   H5X16093   5.356   1.654   9.934 -1.0842  0.7431  0.2183
  146SAPE   H5Y16094   5.205   1.546   9.965  2.0175 -5.2094  3.5621
  146SAPE   C3616095   5.323   1.491   9.787  0.3909  0.4292  0.1845
  146SAPE   H6X16096   5.294   1.384   9.795 -1.3340  0.8463 -0.2469
  146SAPE   H6Y16097   5.430   1.500   9.756  0.2758  0.5708 -0.1855
  146SAPE   C3716098   5.256   1.580   9.677 -0.5811  0.4051 -0.4492
  146SAPE   H7X16099   5.298   1.683   9.676  0.4751  0.0286  1.7170
  146SAPE   H7Y16100   5.147   1.586   9.701 -0.9929 -0.9384 -1.9029
  146SAPE   C3816101   5.271   1.512   9.532  0.1570  0.1509  0.6521
  146SAPE   H8X16102   5.245   1.404   9.534 -1.5985  0.5669  1.2748
  146SAPE   H8Y16103   5.379   1.525   9.507 -0.2862  2.2655 -0.3148
  146SAPE   C3916104   5.172   1.576   9.428 -0.3926  0.3101 -0.1756
  146SAPE   H9X16105   5.203   1.683   9.432  1.8810 -0.3658  1.4289
  146SAPE   H9Y16106   5.067   1.576   9.465 -0.4540 -0.3788 -0.3510
  146SAPE  C31016107   5.177   1.509   9.296 -0.4684 -0.4437  0.7066
  146SAPE  H10X16108   5.107   1.565   9.230  2.3653  1.2484 -0.9778
  146SAPE  H10Y16109   5.147   1.402   9.305 -1.3234 -0.4590 -1.7897
  146SAPE  C31116110   5.311   1.513   9.230 -0.6163  0.3435 -0.4588
  146SAPE  H11X16111   5.361   1.423   9.271 -1.2907  0.2190  0.0982
  146SAPE  H11Y16112   5.379   1.596   9.261  2.6129 -1.7915 -1.4858
  146SAPE  C31216113   5.303   1.498   9.077 -0.4514 -0.2359 -0.0418
  146SAPE  H12X16114   5.259   1.592   9.038 -1.8228 -1.0323 -0.4779
  146SAPE  H12Y16115   5.225   1.425   9.047 -0.4953 -0.1044 -0.2438
  146SAPE  C31316116   5.428   1.476   9.000  0.0004  0.3278  0.4281
  146SAPE  H13X16117   5.451   1.367   8.994 -0.1040  0.3430 -0.2874
  146SAPE  H13Y16118   5.510   1.522   9.060 -0.1796  1.1345  0.0605
  146SAPE  C31416119   5.419   1.539   8.865  0.0799  0.5119  0.1953
  146SAPE  H14X16120   5.357   1.631   8.858 -1.3925 -0.5528 -1.1447
  146SAPE  H14Y16121   5.371   1.462   8.801  2.3115 -1.2061  0.5371
  146SAPE  C31516122   5.554   1.560   8.794 -0.0319 -0.6344  0.6665
  146SAPE  H15X16123   5.587   1.658   8.834  2.0613 -1.4136  0.9204
  146SAPE  H15Y16124   5.533   1.567   8.685 -0.0618 -1.0040  0.6446
  146SAPE  C31616125   5.657   1.453   8.821  0.6179  0.2329 -0.2197
  146SAPE  H16X16126   5.617   1.350   8.816  0.4288  0.1889  1.8778
  146SAPE  H16Y16127   5.709   1.460   8.919 -1.9185 -0.6298  1.2248
  146SAPE  C31716128   5.775   1.474   8.720 -0.0895 -0.2176 -0.0863
  146SAPE  H17X16129   5.819   1.576   8.718 -2.0275  0.7057  2.0194
  146SAPE  H17Y16130   5.736   1.459   8.617 -1.6697  0.1304  0.4341
  146SAPE  C31816131   5.898   1.379   8.746  0.0531 -0.1992 -0.2457
  146SAPE  H18X16132   5.959   1.419   8.830 -0.7756 -1.5928  1.0499
  146SAPE  H18Y16133   5.943   1.372   8.645  0.3651  2.5579 -0.3268
  146SAPE  H18Z16134   5.858   1.276   8.762  1.4469 -0.8580 -0.9343
  147SAPE     N16135   2.959   0.007   6.235  0.4377  0.3190 -0.2462
  147SAPE   HN116136   3.004  -0.062   6.172  0.6691 -0.0539  0.3215
  147SAPE   HN216137   3.035   0.078   6.245  0.7602  0.0272 -0.6221
  147SAPE   HN316138   2.940  -0.042   6.324  1.1249 -2.6292 -1.6731
  147SAPE   C1216139   2.834   0.049   6.163 -0.1862 -0.2846  0.5935
  147SAPE  H12A16140   2.862   0.080   6.060  2.7688  0.0631  1.4722
  147SAPE  H12B16141   2.792   0.136   6.217 -0.5121  0.2407 -0.4920
  147SAPE   C1116142   2.732  -0.071   6.166 -0.1654  0.2900 -0.7154
  147SAPE  H11A16143   2.770  -0.158   6.108 -2.0941  0.5096 -2.3634
  147SAPE  H11B16144   2.645  -0.036   6.106  0.8089 -0.6737 -2.7219
  147SAPE     P16145   2.612  -0.045   6.390 -0.1138  0.1844  0.0792
  147SAPE   O1316146   2.491  -0.008   6.305  0.1855 -0.4923  0.0583
  147SAPE   O1416147   2.593  -0.124   6.513  0.1889 -0.1157  1.0760
  147SAPE   O1216148   2.709  -0.122   6.299 -0.1267  0.4972  0.2200
  147SAPE   O1116149   2.689   0.090   6.420 -0.5308  0.0822 -0.0541
  147SAPE    C116150   2.638   0.216   6.469  0.1240  0.1101 -0.2208
  147SAPE    HA16151   2.688   0.298   6.413 -0.7513  0.0435 -1.1137
  147SAPE    HB16152   2.527   0.214   6.460  0.2915 -2.0997 -2.3991
  147SAPE    C216153   2.673   0.241   6.618 -0.3172  0.2152  0.2253
  147SAPE    HS16154   2.781   0.269   6.618 -0.5458  1.1205  0.8415
  147SAPE   O2116155   2.633   0.125   6.691 -0.1246  0.9780  0.3849
  147SAPE   C2116156   2.733   0.058   6.734 -0.9406  0.1712 -0.5419
  147SAPE   O2216157   2.852   0.086   6.732  0.0582 -0.0516 -0.9272
  147SAPE   C2216158   2.682  -0.056   6.819 -0.0992  0.7896  0.3009
  147SAPE   H2R16159   2.669  -0.138   6.745  2.8109  2.0453 -1.7071
  147SAPE   H2S16160   2.762  -0.085   6.890 -1.2166 -1.0560  0.8208
  147SAPE    C316161   2.604   0.370   6.677 -0.4837  0.6183 -0.0054
  147SAPE    HX16162   2.498   0.361   6.646 -0.3617 -1.4134  0.1127
  147SAPE    HY16163   2.645   0.468   6.643  2.7460  0.8378  4.1146
  147SAPE   O3116164   2.599   0.370   6.824 -0.2127 -0.0038  0.3853
  147SAPE   C3116165   2.715   0.382   6.884  0.4736 -1.0435  0.0940
  147SAPE   O3216166   2.827   0.402   6.833 -0.2263 -0.2534 -0.1388
  147SAPE   C3216167   2.695   0.369   7.035 -0.4632  0.4597 -0.2573
  147SAPE   H2X16168   2.798   0.341   7.068 -0.2464  1.2988 -0.2079
  147SAPE   H2Y16169   2.621   0.293   7.066 -2.6755  2.3894 -0.7197
  147SAPE   C2316170   2.564  -0.023   6.895  0.0469 -0.3134  0.1020
  147SAPE   H3R16171   2.476  -0.019   6.827  1.2449  1.6726 -1.3791
  147SAPE   H3S16172   2.561   0.068   6.958 -1.5632 -0.8940  0.9030
  147SAPE   C2416173   2.506  -0.120   7.001 -0.4867  0.4659  0.8134
  147SAPE   H4R16174   2.511  -0.227   6.968  0.3575  0.7190  0.0899
  147SAPE   H4S16175   2.401  -0.092   7.024 -0.7304  1.0986 -0.9763
  147SAPE   C2516176   2.581  -0.112   7.132 -0.5418 -0.7055 -0.0892
  147SAPE   H5R16177   2.686  -0.141   7.115 -0.2288  0.2675  0.1708
  147SAPE   C2616178   2.527  -0.091   7.253  0.7762 -0.1771  0.0670
  147SAPE   H6R16179   2.593  -0.094   7.341  1.1869  0.6112 -0.2089
  147SAPE   C2716180   2.380  -0.077   7.292 -0.0646  0.4677 -0.5296
  147SAPE   H7R16181   2.326  -0.002   7.230  0.0967  1.6832  0.7592
  147SAPE   H7S16182   2.377  -0.009   7.380  1.5706  2.3152 -1.8388
  147SAPE   C2816183   2.320  -0.212   7.312 -0.2576  0.8045 -0.6783
  147SAPE   H8R16184   2.360  -0.287   7.242  0.2971 -1.1605  1.6808
  147SAPE   C2916185   2.217  -0.248   7.388 -0.0230  0.0235 -0.5389
  147SAPE   H9R16186   2.203  -0.355   7.407 -1.3000  0.5280  1.5226
  147SAPE  C21016187   2.137  -0.144   7.475 -0.2988  0.5163  0.5614
  147SAPE  H10R16188   2.120  -0.054   7.411 -2.1953 -0.4157 -0.2856
  147SAPE  H10S16189   2.211  -0.115   7.553  1.7297  0.7703 -1.3877
  147SAPE  C21116190   2.013  -0.191   7.540  0.5417  0.5935 -0.3384
  147SAPE  H11R16191   1.917  -0.184   7.486  1.1246 -1.1502 -1.6283
  147SAPE  C21216192   2.001  -0.233   7.666 -0.4870 -0.2316 -0.4650
  147SAPE  H12R16193   1.901  -0.261   7.700 -0.6727  0.5996 -0.3038
  147SAPE  C21316194   2.099  -0.251   7.783  0.0391  0.7002  0.0421
  147SAPE  H13R16195   2.190  -0.303   7.747  1.0747  2.0195  0.7378
  147SAPE  H13S16196   2.061  -0.321   7.861 -1.8140  0.5280 -0.9815
  147SAPE  C21416197   2.144  -0.123   7.845 -0.7739 -0.4555 -0.9142
  147SAPE  H14R16198   2.198  -0.058   7.774 -0.5050  1.1671  0.7594
  147SAPE  C21516199   2.140  -0.101   7.981 -0.3936  0.2407 -0.2951
  147SAPE  H15R16200   2.176  -0.001   8.009 -0.2468  0.1504 -0.1626
  147SAPE  C21616201   2.082  -0.183   8.092  0.3138  0.4267 -0.3062
  147SAPE  H16R16202   2.009  -0.260   8.060  1.6382 -1.5339  1.2485
  147SAPE  H16S16203   2.027  -0.120   8.164  0.1247  0.5250 -0.5347
  147SAPE  C21716204   2.191  -0.238   8.191 -0.1033  0.6662 -0.4791
  147SAPE  H17R16205   2.265  -0.277   8.117  0.1397 -2.8827  1.5308
  147SAPE  H17S16206   2.148  -0.320   8.252  0.3484  0.0932 -0.9264
  147SAPE  C21816207   2.251  -0.131   8.278 -0.0821  0.0972  0.8186
  147SAPE  H18R16208   2.169  -0.067   8.316 -1.4583 -0.6446 -0.8595
  147SAPE  H18S16209   2.309  -0.057   8.218  0.0529  0.5598  1.5129
  147SAPE  C21916210   2.326  -0.186   8.396  0.6971  0.3077  0.3318
  147SAPE  H19R16211   2.426  -0.226   8.370  1.5103  2.5691 -0.0933
  147SAPE  H19S16212   2.265  -0.276   8.418  1.3182 -0.4384 -0.9674
  147SAPE  C22016213   2.322  -0.090   8.509 -0.5303 -0.3835 -0.3622
  147SAPE  H20R16214   2.387  -0.004   8.482  0.7754 -1.8168 -1.9118
  147SAPE  H20S16215   2.353  -0.139   8.605 -1.8639 -0.7174 -0.0918
  147SAPE  H20T16216   2.217  -0.061   8.528 -0.9036 -1.8619 -0.1029
  147SAPE   C3316217   2.647   0.504   7.088  0.6135  0.1650 -0.1703
  147SAPE   H3X16218   2.536   0.508   7.089  0.5783 -0.4680  1.8116
  147SAPE   H3Y16219   2.689   0.594   7.039  0.2052  0.8954  0.7945
  147SAPE   C3416220   2.681   0.519   7.239 -0.3382  0.1679  0.1267
  147SAPE   H4X16221   2.784   0.493   7.270 -1.1921 -1.0462  2.0514
  147SAPE   H4Y16222   2.603   0.468   7.301  0.3258  1.6691  2.2182
  147SAPE   C3516223   2.672   0.668   7.273  0.9653  0.6937  0.8109
  147SAPE   H5X16224   2.572   0.706   7.243  1.4719  0.0965 -1.7685
  147SAPE   H5Y16225   2.758   0.722   7.228 -1.7453  2.1885 -2.7810
  147SAPE   C3616226   2.677   0.673   7.428 -0.1162 -0.1986  0.0949
  147SAPE   H6X16227   2.754   0.606   7.473  1.8009 -0.0179 -2.7682
  147SAPE   H6Y16228   2.583   0.634   7.471 -1.1882  0.5317 -1.5538
  147SAPE   C3716229   2.684   0.814   7.478 -0.4653 -0.4189  0.2243
  147SAPE   H7X16230   2.594   0.871   7.448 -0.7347 -0.8647  0.1885
  147SAPE   H7Y16231   2.781   0.857   7.443 -1.9712  2.5322 -0.4672
  147SAPE   C3816232   2.680   0.824   7.637 -0.5262  0.7550  0.3172
  147SAPE   H8X16233   2.624   0.732   7.665 -2.0799  2.0050  1.3695
  147SAPE   H8Y16234   2.621   0.909   7.678 -0.4728  0.7680  0.3660
  147SAPE   C3916235   2.818   0.821   7.702 -0.1719 -0.4201  0.7774
  147SAPE   H9X16236   2.880   0.900   7.654  0.7292 -1.0969  0.8262
  147SAPE   H9Y16237   2.863   0.720   7.696 -0.8483 -0.7609  1.3336
  147SAPE  C31016238   2.808   0.847   7.858  0.1728  0.4357  0.3283
  147SAPE  H10X16239   2.810   0.956   7.878  1.6080  0.4988 -0.0729
  147SAPE  H10Y16240   2.901   0.810   7.906  0.3194 -0.0368 -0.3133
  147SAPE  C31116241   2.684   0.789   7.927  0.6591 -0.2976  0.4155
  147SAPE  H11X16242   2.656   0.682   7.914 -2.3396  0.5283 -0.2241
  147SAPE  H11Y16243   2.601   0.856   7.898  1.2275  0.5286  0.6729
  147SAPE  C31216244   2.696   0.795   8.080 -0.2581 -0.3827 -0.6528
  147SAPE  H12X16245   2.707   0.904   8.099  1.1369 -0.5289 -0.5464
  147SAPE  H12Y16246   2.772   0.736   8.135 -1.8592 -1.8568 -0.0111
  147SAPE  C31316247   2.560   0.751   8.137  0.5686  1.1410  0.2167
  147SAPE  H13X16248   2.559   0.641   8.130 -1.2166  0.9549  2.8127
  147SAPE  H13Y16249   2.473   0.790   8.081  1.0869 -0.1075 -1.4860
  147SAPE  C31416250   2.539   0.797   8.281 -0.1438  0.4725  0.2327
  147SAPE  H14X16251   2.496   0.899   8.288 -1.0139  0.1348 -0.1624
  147SAPE  H14Y16252   2.629   0.791   8.345 -0.0407  0.8421  0.1214
  147SAPE  C31516253   2.447   0.702   8.348 -0.9353 -0.2157 -0.2693
  147SAPE  H15X16254   2.482   0.597   8.344 -3.0556 -0.9339 -0.6954
  147SAPE  H15Y16255   2.342   0.718   8.317 -2.2597 -1.2185  3.4345
  147SAPE  C31616256   2.444   0.737   8.499  0.4443 -0.2214 -0.9828
  147SAPE  H16X16257   2.423   0.845   8.512 -0.3236 -0.2851 -1.6843
  147SAPE  H16Y16258   2.543   0.739   8.549  0.3733  1.4351 -0.8730
  147SAPE  C31716259   2.350   0.639   8.576  0.2533  0.1910 -0.2861
  147SAPE  H17X16260   2.381   0.536   8.551  1.1544  1.0464 -2.9356
  147SAPE  H17Y16261   2.243   0.651   8.549 -0.6316 -0.2648  2.8616
  147SAPE  C31816262   2.353   0.667   8.725  0.8496  0.4291  0.1058
  147SAPE  H18X16263   2.273   0.607   8.772  0.0262 -0.0403 -1.8356
  147SAPE  H18Y16264   2.325   0.769   8.759  1.2587  0.3071  0.8012
  147SAPE  H18Z16265   2.446   0.627   8.771  1.2410 -0.1530 -1.1689
  148SAPE     N16266   1.402   4.439   6.699 -0.3918 -0.3461  0.5509
  148SAPE   HN116267   1.334   4.512   6.728  0.4938  0.2744  1.1003
  148SAPE   HN216268   1.394   4.361   6.767  0.1576  0.0624  1.0930
  148SAPE   HN316269   1.500   4.472   6.711 -0.4403 -0.2868  0.7810
  148SAPE   C1216270   1.388   4.397   6.554  0.3754  0.0169  0.4162
  148SAPE  H12A16271   1.279   4.398   6.533  0.2387 -1.2297  1.0476
  148SAPE  H12B16272   1.431   4.295   6.556  2.3767  0.7931 -1.1294
  148SAPE   C1116273   1.457   4.481   6.456 -0.0599  0.0834 -0.4084
  148SAPE  H11A16274   1.439   4.589   6.476 -1.9084 -0.4041  0.6972
  148SAPE  H11B16275   1.417   4.447   6.358 -0.6397 -0.6700  0.0822
  148SAPE     P16276   1.696   4.553   6.526  0.1201  0.2877 -0.1000
  148SAPE   O1316277   1.813   4.472   6.554 -0.2176 -0.1168 -0.3480
  148SAPE   O1416278   1.711   4.675   6.443 -0.0234  0.0091 -0.7052
  148SAPE   O1216279   1.594   4.452   6.468  0.9356 -0.2358 -0.1016
  148SAPE   O1116280   1.641   4.585   6.670  0.1111 -0.2176  0.4230
  148SAPE    C116281   1.709   4.653   6.768 -0.8277 -0.3465 -0.1008
  148SAPE    HA16282   1.666   4.632   6.869 -1.2576  2.3086  0.3008
  148SAPE    HB16283   1.818   4.634   6.780 -0.7480  0.5702  0.6812
  148SAPE    C216284   1.699   4.809   6.756 -0.1486 -0.7872  0.4678
  148SAPE    HS16285   1.735   4.829   6.653 -0.9391 -1.8773 -0.0321
  148SAPE   O2116286   1.789   4.860   6.856 -0.8123 -0.1613 -0.2295
  148SAPE   C2116287   1.815   4.983   6.849  0.0627  0.0969  0.2431
  148SAPE   O2216288   1.789   5.059   6.757  0.6802 -0.1226 -0.4353
  148SAPE   C2216289   1.897   5.018   6.975 -0.5018 -0.3151  0.5605
  148SAPE   H2R16290   1.934   5.122   6.968 -1.9003  0.0408 -2.1089
  148SAPE   H2S16291   1.828   5.018   7.063  2.0240  1.6779  2.6064
  148SAPE    C316292   1.555   4.868   6.777  0.2146  0.2306 -0.5688
  148SAPE    HX16293   1.486   4.803   6.718 -1.5851 -0.1335  1.8742
  148SAPE    HY16294   1.550   4.972   6.739  2.0968  0.6167  0.2223
  148SAPE   O3116295   1.508   4.852   6.910 -0.6703 -0.5195  0.2543
  148SAPE   C3116296   1.395   4.926   6.929  0.2099  0.4764  0.0361
  148SAPE   O3216297   1.327   4.968   6.835 -0.1941 -0.0995 -0.1183
  148SAPE   C3216298   1.372   4.942   7.076 -0.6492 -0.9171 -0.1526
  148SAPE   H2X16299   1.453   5.007   7.117  0.3502 -2.7567  0.8428
  148SAPE   H2Y16300   1.400   4.850   7.130 -1.8665 -1.2469 -0.0737
  148SAPE   C2316301   2.011   4.908   6.997 -1.1774 -0.6211  0.2390
  148SAPE   H3R16302   2.081   4.924   6.912 -2.3599  2.1673 -0.2615
  148SAPE   H3S16303   1.969   4.805   6.997  0.3882 -1.2760 -0.6208
  148SAPE   C2416304   2.082   4.914   7.139  0.2019  0.0384 -0.2236
  148SAPE   H4R16305   2.094   5.023   7.153  0.9840  0.2019 -2.0698
  148SAPE   H4S16306   2.182   4.868   7.124  1.1486  2.1175 -0.4582
  148SAPE   C2516307   2.014   4.863   7.264 -0.1043  0.5068 -0.6696
  148SAPE   H5R16308   1.924   4.919   7.294 -0.4175 -0.4480  0.1945
  148SAPE   C2616309   2.061   4.755   7.335  0.6500  0.3408 -0.7139
  148SAPE   H6R16310   2.000   4.718   7.419  2.6622  0.4367  0.8377
  148SAPE   C2716311   2.179   4.673   7.290 -0.5336  0.6881 -0.2132
  148SAPE   H7R16312   2.218   4.628   7.384 -0.3939 -0.4536 -0.8165
  148SAPE   H7S16313   2.266   4.734   7.258 -0.1375 -0.2182 -0.8486
  148SAPE   C2816314   2.148   4.569   7.185  0.1599 -0.1071  0.3141
  148SAPE   H8R16315   2.077   4.602   7.108  1.3449  0.7672 -0.4073
  148SAPE   C2916316   2.182   4.437   7.182  0.4094 -0.1232  0.6755
  148SAPE   H9R16317   2.142   4.379   7.097  0.8567  1.1330 -0.4012
  148SAPE  C21016318   2.254   4.346   7.282  0.0957  0.2560 -0.0752
  148SAPE  H10R16319   2.362   4.366   7.263  0.1675  1.4345  1.4449
  148SAPE  H10S16320   2.244   4.238   7.257 -0.2479 -0.1095  1.5926
  148SAPE  C21116321   2.231   4.357   7.431  0.5417  0.2437 -0.2827
  148SAPE  H11R16322   2.126   4.375   7.460  0.8684 -1.6000  2.1723
  148SAPE  C21216323   2.324   4.327   7.533  0.0870  0.0699 -0.3164
  148SAPE  H12R16324   2.313   4.358   7.638  0.3939  0.1067 -0.2922
  148SAPE  C21316325   2.464   4.297   7.512 -0.4966 -0.3585 -0.0124
  148SAPE  H13R16326   2.521   4.353   7.590  1.3753  0.1939 -1.7317
  148SAPE  H13S16327   2.497   4.331   7.411  1.1826  0.1615  0.6833
  148SAPE  C21416328   2.501   4.153   7.526  0.2299 -0.6080  0.1285
  148SAPE  H14R16329   2.497   4.089   7.437  5.1061 -0.7265 -0.1645
  148SAPE  C21516330   2.530   4.082   7.640  0.4778  0.3406  0.4948
  148SAPE  H15R16331   2.557   3.976   7.636 -1.5693 -0.2093  0.9530
  148SAPE  C21616332   2.547   4.138   7.776  0.1713  0.7043 -1.3711
  148SAPE  H16R16333   2.489   4.076   7.849 -0.0965  1.7071 -0.7149
  148SAPE  H16S16334   2.510   4.242   7.790 -1.8790 -0.3840  1.9572
  148SAPE  C21716335   2.686   4.133   7.847 -0.4997 -0.7587 -0.4033
  148SAPE  H17R16336   2.743   4.191   7.772 -0.7498 -0.7496 -0.5869
  148SAPE  H17S16337   2.716   4.026   7.849 -1.8655 -1.1314  0.7188
  148SAPE  C21816338   2.695   4.183   7.998 -0.1940  0.1546 -0.3193
  148SAPE  H18R16339   2.599   4.162   8.050 -1.1063 -1.6249 -2.6781
  148SAPE  H18S16340   2.708   4.293   7.993  1.7005 -0.0846 -1.3221
  148SAPE  C21916341   2.818   4.132   8.072 -0.4845 -0.0853 -0.1654
  148SAPE  H19R16342   2.911   4.159   8.018 -0.3651  0.4346  0.3034
  148SAPE  H19S16343   2.808   4.022   8.074 -0.2668 -0.0965  0.2813
  148SAPE  C22016344   2.834   4.193   8.216 -0.1291  0.2400  0.7472
  148SAPE  H20R16345   2.845   4.303   8.223  0.9669  0.2810 -1.0520
  148SAPE  H20S16346   2.925   4.144   8.257  0.5458 -1.3739 -2.5443
  148SAPE  H20T16347   2.757   4.161   8.289 -0.0825  2.0077  1.5929
  148SAPE   C3316348   1.227   4.973   7.103 -0.0313 -0.5191  0.9411
  148SAPE   H3X16349   1.169   4.880   7.089 -0.9836  0.2988 -0.7137
  148SAPE   H3Y16350   1.183   5.045   7.030 -0.3261 -1.7945 -0.1451
  148SAPE   C3416351   1.202   5.035   7.239  0.1412 -0.7197  0.5664
  148SAPE   H4X16352   1.093   5.050   7.255  0.0887  0.3350 -0.7190
  148SAPE   H4Y16353   1.241   5.138   7.253 -0.0713 -0.3095 -1.6868
  148SAPE   C3516354   1.242   4.951   7.355  0.4428  1.0592  0.2496
  148SAPE   H5X16355   1.353   4.941   7.354  0.2033 -2.8742  2.2556
  148SAPE   H5Y16356   1.199   4.848   7.356  2.8531  0.0108  0.7605
  148SAPE   C3616357   1.198   5.005   7.488 -0.6529  0.8871  0.0854
  148SAPE   H6X16358   1.254   4.945   7.563 -1.4273  0.7724  0.5757
  148SAPE   H6Y16359   1.091   4.981   7.506 -0.1523 -1.6049 -0.0179
  148SAPE   C3716360   1.225   5.151   7.517  0.5455 -1.0917  0.3875
  148SAPE   H7X16361   1.157   5.214   7.455  0.1122  0.9249  2.8208
  148SAPE   H7Y16362   1.331   5.180   7.503 -0.0733  1.6744  1.0335
  148SAPE   C3816363   1.187   5.198   7.658  0.6685 -0.1756  0.1942
  148SAPE   H8X16364   1.083   5.159   7.658  1.2572 -1.8251  1.2084
  148SAPE   H8Y16365   1.188   5.309   7.648  1.2291 -0.3079 -1.2545
  148SAPE   C3916366   1.280   5.158   7.770  0.2728  0.5780 -0.0271
  148SAPE   H9X16367   1.378   5.207   7.750  1.0619 -0.3092  1.5862
  148SAPE   H9Y16368   1.294   5.048   7.772 -0.3285  0.4466 -1.9510
  148SAPE  C31016369   1.237   5.201   7.915 -0.2652  0.2804  0.0753
  148SAPE  H10X16370   1.171   5.290   7.906 -1.4499 -0.6210 -0.3123
  148SAPE  H10Y16371   1.320   5.246   7.974 -0.5308 -0.0024  0.6675
  148SAPE  C31116372   1.179   5.090   7.996 -0.7910 -0.2703  0.1668
  148SAPE  H11X16373   1.249   5.005   8.008 -0.0627  0.0389 -1.7152
  148SAPE  H11Y16374   1.100   5.044   7.933  0.1736 -0.1787 -1.1281
  148SAPE  C31216375   1.112   5.144   8.123 -0.8264 -0.0892 -0.6966
  148SAPE  H12X16376   1.030   5.219   8.114 -2.9366 -1.9130  2.3418
  148SAPE  H12Y16377   1.189   5.181   8.195 -0.1021  1.0994 -2.0531
  148SAPE  C31316378   1.030   5.032   8.186 -0.2706 -0.4997 -0.8392
  148SAPE  H13X16379   1.102   4.949   8.200 -1.5229 -1.0561  2.9219
  148SAPE  H13Y16380   0.956   4.993   8.112 -2.2532  0.5900  0.5211
  148SAPE  C31416381   0.959   5.083   8.317 -0.2460 -0.7903  0.6721
  148SAPE  H14X16382   0.862   5.136   8.300  1.1594  1.7942  0.4604
  148SAPE  H14Y16383   1.027   5.163   8.351  0.0085 -1.0936  0.8776
  148SAPE  C31516384   0.955   4.973   8.422  0.1638 -0.3077  0.3023
  148SAPE  H15X16385   1.059   4.938   8.438  1.5673  2.5564 -1.8777
  148SAPE  H15Y16386   0.891   4.888   8.391  0.7932 -1.2727  1.6189
  148SAPE  C31616387   0.913   5.043   8.553  0.0506 -0.1288  0.5124
  148SAPE  H16X16388   0.812   5.086   8.532  0.8193  1.3814 -0.1882
  148SAPE  H16Y16389   0.981   5.125   8.585  0.8209 -0.7664  0.5147
  148SAPE  C31716390   0.903   4.943   8.669 -0.7306 -0.2866 -0.4925
  148SAPE  H17X16391   0.868   4.844   8.634 -1.9687 -0.0543  0.0851
  148SAPE  H17Y16392   0.830   4.967   8.749 -2.3315  0.6911 -2.1953
  148SAPE  C31816393   1.037   4.923   8.735  0.8316  1.1896  0.0559
  148SAPE  H18X16394   1.029   4.925   8.846  0.9945  1.3369  0.0653
  148SAPE  H18Y16395   1.106   5.005   8.706  2.4133 -0.8001 -2.0552
  148SAPE  H18Z16396   1.080   4.823   8.710  0.5147  0.2958  2.9219
  149SAPE     N16397   2.161   5.885   6.339  0.0976  0.6717 -0.1097
  149SAPE   HN116398   2.215   5.818   6.280  1.1073  0.0424  1.5086
  149SAPE   HN216399   2.102   5.933   6.268 -0.2085  0.8982  0.3014
  149SAPE   HN316400   2.226   5.954   6.381 -1.7245  2.4874 -0.2063
  149SAPE   C1216401   2.080   5.810   6.439  0.7580  0.1498 -0.1661
  149SAPE  H12A16402   2.008   5.747   6.383  0.0267  1.4924 -0.7783
  149SAPE  H12B16403   2.026   5.882   6.505 -2.2234 -1.2635 -0.9701
  149SAPE   C1116404   2.168   5.725   6.542 -0.1415 -1.2384 -0.3131
  149SAPE  H11A16405   2.102   5.687   6.623 -0.3422 -0.4790 -0.1184
  149SAPE  H11B16406   2.235   5.798   6.594  0.0956 -1.8238  0.2210
  149SAPE     P16407   2.192   5.482   6.465  0.2262  0.0207 -0.5556
  149SAPE   O1316408   2.059   5.470   6.392  0.1546  0.4490 -0.1901
  149SAPE   O1416409   2.300   5.389   6.419  0.0181 -0.0143 -0.1875
  149SAPE   O1216410   2.238   5.628   6.471 -0.3226 -0.1559 -0.5450
  149SAPE   O1116411   2.167   5.448   6.617  0.2810 -1.0080 -0.1206
  149SAPE    C116412   2.275   5.464   6.707 -0.4313 -0.1213  0.3760
  149SAPE    HA16413   2.338   5.374   6.690 -1.6894 -0.9361 -0.0307
  149SAPE    HB16414   2.328   5.561   6.697  1.4708 -1.3057 -1.7713
  149SAPE    C216415   2.224   5.430   6.853  0.4766 -0.1595  0.8928
  149SAPE    HS16416   2.180   5.329   6.845  0.0916 -0.0110  1.0930
  149SAPE   O2116417   2.138   5.539   6.904  0.2557 -0.1529  0.7554
  149SAPE   C2116418   2.030   5.492   6.968  0.0735  0.4151  0.3330
  149SAPE   O2216419   1.990   5.377   6.968 -0.2990 -0.0365  0.1536
  149SAPE   C2216420   1.949   5.616   6.998  0.6245  0.0739 -0.7165
  149SAPE   H2R16421   1.946   5.675   6.904 -0.9781 -1.0716 -1.4076
  149SAPE   H2S16422   1.843   5.592   7.020  0.1926  2.0488 -0.5933
  149SAPE    C316423   2.341   5.422   6.959 -0.6910 -0.0141 -0.1510
  149SAPE    HX16424   2.396   5.518   6.966  1.1779 -1.0086 -0.5753
  149SAPE    HY16425   2.410   5.339   6.930 -0.2354  0.1910  0.3415
  149SAPE   O3116426   2.293   5.402   7.094 -0.0622  0.0295  1.0770
  149SAPE   C3116427   2.256   5.271   7.128  0.3087  0.2315  0.1913
  149SAPE   O3216428   2.254   5.176   7.054 -0.3069 -0.0859  0.4259
  149SAPE   C3216429   2.211   5.270   7.271  0.1544 -0.2111 -0.2704
  149SAPE   H2X16430   2.104   5.244   7.259 -0.7947  3.6632 -0.8449
  149SAPE   H2Y16431   2.225   5.369   7.320 -1.6103 -0.0714 -0.0327
  149SAPE   C2316432   2.025   5.697   7.109 -0.1411 -0.6515  0.0457
  149SAPE   H3R16433   1.969   5.793   7.111 -3.1833 -2.2377 -3.0448
  149SAPE   H3S16434   2.135   5.703   7.096 -0.1071  1.7393  1.3029
  149SAPE   C2416435   1.999   5.629   7.244 -0.5334  0.1949  0.4461
  149SAPE   H4R16436   2.016   5.520   7.233  0.4063  0.0314  3.1016
  149SAPE   H4S16437   1.892   5.645   7.272 -0.6499  2.5741 -1.2154
  149SAPE   C2516438   2.088   5.689   7.349  0.0507 -0.3279  0.5820
  149SAPE   H5R16439   2.181   5.733   7.309 -0.5267 -0.5702 -1.0415
  149SAPE   C2616440   2.060   5.696   7.477  0.0485 -0.0836 -0.3809
  149SAPE   H6R16441   2.125   5.744   7.551  2.0365  0.1139 -2.2021
  149SAPE   C2716442   1.943   5.633   7.550  0.0230 -0.5506 -0.4152
  149SAPE   H7R16443   1.882   5.571   7.483 -1.0448  3.0821 -2.9580
  149SAPE   H7S16444   1.876   5.717   7.576  0.8691  0.4527 -1.4279
  149SAPE   C2816445   1.996   5.577   7.685  0.2566 -0.0330  0.0109
  149SAPE   H8R16446   2.074   5.501   7.672  1.2492  0.4554  2.7205
  149SAPE   C2916447   1.946   5.601   7.807 -0.1597 -0.6486  0.1810
  149SAPE   H9R16448   2.006   5.564   7.891  0.5017  0.5578  0.2485
  149SAPE  C21016449   1.835   5.694   7.849  0.0976  0.0010  0.3236
  149SAPE  H10R16450   1.759   5.638   7.907  2.2327 -1.6261  1.6041
  149SAPE  H10S16451   1.790   5.726   7.753  1.8697  1.0424 -0.1758
  149SAPE  C21116452   1.888   5.814   7.926  0.0453  0.3673 -0.3406
  149SAPE  H11R16453   1.996   5.834   7.935 -0.2326  1.4904  0.5434
  149SAPE  C21216454   1.817   5.888   8.013 -0.1704  0.3036  0.3328
  149SAPE  H12R16455   1.872   5.957   8.079 -0.1552  1.1760 -0.5651
  149SAPE  C21316456   1.670   5.876   8.035  0.6003 -0.1903 -0.1663
  149SAPE  H13R16457   1.623   5.780   8.007 -0.8936  1.0527 -2.1117
  149SAPE  H13S16458   1.621   5.958   7.978 -0.5282 -0.8473 -0.1579
  149SAPE  C21416459   1.635   5.886   8.180 -0.2144  0.6906  0.5213
  149SAPE  H14R16460   1.700   5.831   8.251 -0.2662  2.2556  1.8050
  149SAPE  C21516461   1.524   5.936   8.229  0.2676  0.0591 -0.4883
  149SAPE  H15R16462   1.502   5.924   8.336 -1.9109 -0.8769 -1.0025
  149SAPE  C21616463   1.402   5.997   8.159 -0.4551 -0.3798 -0.2638
  149SAPE  H16R16464   1.388   5.968   8.053 -2.2281  0.4942 -0.2913
  149SAPE  H16S16465   1.402   6.108   8.155 -0.3700 -0.4261 -1.5983
  149SAPE  C21716466   1.270   5.962   8.234 -0.0766  0.2870  0.2387
  149SAPE  H17R16467   1.257   6.011   8.333 -1.3933 -0.5095  0.4752
  149SAPE  H17S16468   1.284   5.854   8.258 -1.6135  0.7429  3.5399
  149SAPE  C21816469   1.155   5.987   8.145  0.1877  0.0761  0.2867
  149SAPE  H18R16470   1.067   5.956   8.206  0.0884 -3.1269 -1.3989
  149SAPE  H18S16471   1.160   5.932   8.049  0.0504  2.8321 -1.3679
  149SAPE  C21916472   1.138   6.134   8.118  0.0878 -0.5737 -0.2565
  149SAPE  H19R16473   1.197   6.147   8.025  1.4415  1.1872  0.8081
  149SAPE  H19S16474   1.178   6.199   8.199  2.6946  1.6106 -3.1665
  149SAPE  C22016475   0.997   6.192   8.105 -0.0325  0.6027  0.2262
  149SAPE  H20R16476   0.947   6.130   8.028  1.5684 -1.1434  0.5765
  149SAPE  H20S16477   1.001   6.296   8.065  2.9541  0.7099  0.7046
  149SAPE  H20T16478   0.931   6.180   8.193 -1.2125 -1.6388 -0.9341
  149SAPE   C3316479   2.278   5.157   7.352  0.3267 -0.0890 -0.0835
  149SAPE   H3X16480   2.378   5.183   7.393 -0.4991  1.6779  0.8841
  149SAPE   H3Y16481   2.295   5.064   7.294 -1.0388  0.0367 -0.7183
  149SAPE   C3416482   2.182   5.109   7.460 -0.2819  0.4077 -0.6656
  149SAPE   H4X16483   2.093   5.064   7.412  2.1665 -3.2279 -2.0155
  149SAPE   H4Y16484   2.153   5.198   7.521 -2.0188 -1.1984  0.9359
  149SAPE   C3516485   2.256   4.995   7.538 -0.4929  0.4676 -0.0903
  149SAPE   H5X16486   2.349   5.044   7.571  0.1654  0.0551 -1.2867
  149SAPE   H5Y16487   2.296   4.920   7.466  2.5461  1.9188  0.0302
  149SAPE   C3616488   2.165   4.925   7.637 -0.2228  0.2866 -0.2256
  149SAPE   H6X16489   2.070   4.903   7.584  0.1796  1.2835 -1.3910
  149SAPE   H6Y16490   2.148   5.000   7.717  0.3435 -1.3839  1.5195
  149SAPE   C3716491   2.210   4.796   7.705 -0.0176  0.1811 -0.0644
  149SAPE   H7X16492   2.311   4.807   7.752 -0.6724 -1.5649  1.8344
  149SAPE   H7Y16493   2.223   4.718   7.628  1.2796  0.3240 -0.0163
  149SAPE   C3816494   2.120   4.726   7.818 -0.8249 -0.2994 -0.0554
  149SAPE   H8X16495   2.019   4.701   7.780 -1.2999  3.2009 -1.2675
  149SAPE   H8Y16496   2.102   4.791   7.907 -0.7940 -1.0342  0.4969
  149SAPE   C3916497   2.172   4.582   7.852 -0.1252  0.2166  0.5687
  149SAPE   H9X16498   2.277   4.571   7.888 -0.2487  0.2577  0.9499
  149SAPE   H9Y16499   2.181   4.528   7.756 -0.3894 -0.0662  0.7006
  149SAPE  C31016500   2.071   4.517   7.955  0.7955 -0.0036  0.4211
  149SAPE  H10X16501   1.964   4.528   7.925  0.7404 -1.4075  0.0753
  149SAPE  H10Y16502   2.080   4.579   8.046 -0.4640 -0.5839  0.9565
  149SAPE  C31116503   2.087   4.369   7.988  0.3155  0.0682  0.0957
  149SAPE  H11X16504   2.181   4.367   8.047 -0.7009  2.6041  1.8649
  149SAPE  H11Y16505   2.098   4.315   7.891  0.1793  0.4712 -0.1441
  149SAPE  C31216506   1.977   4.305   8.076  0.1546 -0.0181 -0.0354
  149SAPE  H12X16507   2.003   4.198   8.088 -1.0022 -0.2441  0.5291
  149SAPE  H12Y16508   1.885   4.317   8.016  0.4343 -2.0048 -0.8895
  149SAPE  C31316509   1.960   4.359   8.220 -0.0832 -0.2692  0.0492
  149SAPE  H13X16510   1.895   4.292   8.281 -0.2640 -1.6014 -1.5721
  149SAPE  H13Y16511   1.912   4.458   8.209 -0.8231 -0.4208  1.6759
  149SAPE  C31416512   2.086   4.371   8.305  0.3445  0.0414 -0.7233
  149SAPE  H14X16513   2.159   4.438   8.254 -0.6716 -0.0840 -2.3809
  149SAPE  H14Y16514   2.146   4.278   8.308  1.1880  0.6255  0.4434
  149SAPE  C31516515   2.057   4.428   8.446 -0.5612 -0.9490 -0.0177
  149SAPE  H15X16516   1.987   4.364   8.504 -2.1142 -0.1469 -0.9747
  149SAPE  H15Y16517   2.004   4.525   8.441  0.1555 -0.4674  1.6798
  149SAPE  C31616518   2.189   4.450   8.525  0.2524  0.0243 -0.2743
  149SAPE  H16X16519   2.173   4.540   8.588 -0.5234  1.3935 -2.3825
  149SAPE  H16Y16520   2.273   4.463   8.453 -1.5830  0.8678 -2.3210
  149SAPE  C31716521   2.221   4.338   8.620  0.6833 -0.2294  0.2305
  149SAPE  H17X16522   2.330   4.352   8.640  0.7018 -0.3465  0.2058
  149SAPE  H17Y16523   2.207   4.243   8.564  0.3686  1.0589 -1.9739
  149SAPE  C31816524   2.135   4.328   8.754 -0.1576  1.3750 -0.7347
  149SAPE  H18X16525   2.029   4.295   8.746  0.3014 -0.0132 -1.2463
  149SAPE  H18Y16526   2.137   4.426   8.807  0.4057  1.8828 -1.6800
  149SAPE  H18Z16527   2.189   4.260   8.823 -2.3519  0.0824 -0.2477
  150SAPE     N16528   0.174   0.606   6.289  0.4765 -0.2571  0.4768
  150SAPE   HN116529   0.132   0.662   6.212  0.0245 -0.2339  0.7392
  150SAPE   HN216530   0.094   0.576   6.348 -1.0946  2.1460 -0.3495
  150SAPE   HN316531   0.242   0.654   6.350 -1.0914  2.2903  0.2723
  150SAPE   C1216532   0.242   0.487   6.238  0.6465 -0.0566  0.2925
  150SAPE  H12A16533   0.324   0.532   6.177  0.1615  1.7280  0.9252
  150SAPE  H12B16534   0.178   0.428   6.169 -0.3269 -0.2340  1.3360
  150SAPE   C1116535   0.283   0.400   6.356 -0.6827  0.0855  0.2488
  150SAPE  H11A16536   0.303   0.295   6.326  0.4272  0.7423 -1.3629
  150SAPE  H11B16537   0.193   0.385   6.419 -0.6551  0.4032  0.3609
  150SAPE     P16538   0.534   0.436   6.396 -0.1230 -0.1011 -0.5523
  150SAPE   O1316539   0.553   0.438   6.253 -0.4698 -0.0152  0.2151
  150SAPE   O1416540   0.618   0.524   6.485  0.5487 -0.5679 -0.2447
  150SAPE   O1216541   0.385   0.464   6.430 -0.5043  0.4143 -0.2566
  150SAPE   O1116542   0.545   0.286   6.434 -0.4117  0.4018 -0.4245
  150SAPE    C116543   0.484   0.222   6.536  0.2141 -0.1214 -0.7142
  150SAPE    HA16544   0.454   0.293   6.616  0.5798 -1.7673  0.9406
  150SAPE    HB16545   0.393   0.172   6.496 -0.4844  2.7486 -2.8478
  150SAPE    C216546   0.565   0.117   6.603 -0.1492 -0.1441 -0.1698
  150SAPE    HS16547   0.509   0.067   6.685  0.3600  0.2883  0.4475
  150SAPE   O2116548   0.682   0.184   6.661  0.3651 -0.2676 -0.0112
  150SAPE   C2116549   0.666   0.233   6.785  0.3280  0.0926 -0.3285
  150SAPE   O2216550   0.568   0.208   6.856 -0.3781 -0.1692  0.7374
  150SAPE   C2216551   0.793   0.313   6.832  1.2602 -0.2415 -0.2507
  150SAPE   H2R16552   0.866   0.229   6.827  2.5076  0.7483  1.0354
  150SAPE   H2S16553   0.814   0.395   6.760 -3.0977 -0.1544 -1.5416
  150SAPE    C316554   0.607   0.013   6.503 -0.1257 -0.0403  0.1983
  150SAPE    HX16555   0.626   0.064   6.406  1.1750 -0.1405  0.3926
  150SAPE    HY16556   0.513  -0.039   6.477 -0.6013  2.4429 -3.5586
  150SAPE   O3116557   0.711  -0.076   6.546  0.2954  0.0453  0.9068
  150SAPE   C3116558   0.666  -0.174   6.633 -1.0858  0.0148  0.1411
  150SAPE   O3216559   0.550  -0.196   6.650  0.5968  0.2335  0.0406
  150SAPE   C3216560   0.781  -0.256   6.689 -0.6082 -0.0816  0.0578
  150SAPE   H2X16561   0.852  -0.191   6.745 -0.4149  1.2125 -1.6509
  150SAPE   H2Y16562   0.841  -0.283   6.600 -0.2077 -1.3324  0.6891
  150SAPE   C2316563   0.770   0.378   6.970  0.2386 -0.6441 -0.5546
  150SAPE   H3R16564   0.872   0.422   6.977 -0.1789  0.1282  0.8147
  150SAPE   H3S16565   0.752   0.307   7.054 -0.7637  0.7192  0.4032
  150SAPE   C2416566   0.668   0.497   6.978 -0.9128  0.2916 -0.2333
  150SAPE   H4R16567   0.620   0.493   7.078 -0.2719 -3.5985 -0.0319
  150SAPE   H4S16568   0.585   0.465   6.912  0.4526 -1.4125 -1.1428
  150SAPE   C2516569   0.722   0.636   6.951 -0.0004 -0.8614 -0.3083
  150SAPE   H5R16570   0.751   0.664   6.849  0.2212 -0.6176 -0.1768
  150SAPE   C2616571   0.723   0.729   7.052 -0.5139  0.0259 -0.6024
  150SAPE   H6R16572   0.767   0.829   7.037  0.3182  0.1645  2.3905
  150SAPE   C2716573   0.690   0.705   7.202  0.1531 -0.5909  0.2887
  150SAPE   H7R16574   0.722   0.795   7.260  0.5292 -0.2534 -0.4322
  150SAPE   H7S16575   0.752   0.621   7.239  0.8288  0.4012  1.4480
  150SAPE   C2816576   0.542   0.689   7.240 -0.8299  0.2508 -0.3613
  150SAPE   H8R16577   0.473   0.685   7.154  0.0802  0.7853 -1.1238
  150SAPE   C2916578   0.486   0.680   7.364  0.1492  0.0915 -0.3366
  150SAPE   H9R16579   0.378   0.667   7.377  0.1520  1.1932  0.8490
  150SAPE  C21016580   0.552   0.680   7.495 -0.2870  0.1258 -0.4678
  150SAPE  H10R16581   0.513   0.760   7.562  0.3161  0.3000 -0.3146
  150SAPE  H10S16582   0.659   0.709   7.485 -0.2722  0.4592  0.5766
  150SAPE  C21116583   0.542   0.543   7.563 -0.0213 -0.0106  0.3711
  150SAPE  H11R16584   0.583   0.467   7.494  0.5721 -0.0454  0.7606
  150SAPE  C21216585   0.503   0.512   7.687 -0.0356  0.2930  0.4443
  150SAPE  H12R16586   0.506   0.403   7.701 -1.9798  0.3338  1.3030
  150SAPE  C21316587   0.462   0.615   7.798 -0.5220  0.5038  0.4105
  150SAPE  H13R16588   0.422   0.711   7.760  1.2184  1.2233  0.3570
  150SAPE  H13S16589   0.554   0.651   7.848 -0.1922  0.8051 -0.4134
  150SAPE  C21416590   0.363   0.559   7.900 -0.0004  0.6008  0.0931
  150SAPE  H14R16591   0.259   0.545   7.866 -0.4754  0.7001  1.4715
  150SAPE  C21516592   0.394   0.532   8.031 -0.0985 -0.5571 -0.1963
  150SAPE  H15R16593   0.313   0.492   8.094 -0.0496 -0.4271 -0.0495
  150SAPE  C21616594   0.523   0.545   8.106 -0.6022 -0.8034 -0.2320
  150SAPE  H16R16595   0.609   0.539   8.036  0.8300  0.4492  1.3811
  150SAPE  H16S16596   0.532   0.460   8.178  0.2008 -0.1394  0.4599
  150SAPE  C21716597   0.531   0.681   8.180  0.0788 -0.1767 -0.2591
  150SAPE  H17R16598   0.442   0.694   8.245  0.7691  0.9533  0.4625
  150SAPE  H17S16599   0.531   0.761   8.104  0.7400  0.8939  0.8580
  150SAPE  C21816600   0.651   0.697   8.276  0.3679  0.0428  0.1746
  150SAPE  H18R16601   0.678   0.804   8.289 -0.8272  0.4682 -0.7079
  150SAPE  H18S16602   0.735   0.639   8.232 -0.8672 -2.8502  1.4597
  150SAPE  C21916603   0.622   0.646   8.424  0.5666  0.0407 -0.0096
  150SAPE  H19R16604   0.586   0.542   8.417 -2.1614  0.8946  0.8501
  150SAPE  H19S16605   0.538   0.707   8.463  1.4501 -0.3445  2.6107
  150SAPE  C22016606   0.746   0.651   8.514  0.1350 -0.7009 -0.4088
  150SAPE  H20R16607   0.824   0.600   8.453 -0.8349 -2.6327 -0.0655
  150SAPE  H20S16608   0.731   0.594   8.608  2.0124  0.6926  0.7714
  150SAPE  H20T16609   0.776   0.755   8.538  1.6725 -1.1145 -0.4425
  150SAPE   C3316610   0.737  -0.378   6.776 -0.4850 -0.0794  0.2347
  150SAPE   H3X16611   0.821  -0.446   6.800 -0.8807 -1.3196 -1.7986
  150SAPE   H3Y16612   0.663  -0.439   6.720 -0.3095 -0.6287  0.5944
  150SAPE   C3416613   0.676  -0.339   6.915 -0.0807  0.5567  0.5626
  150SAPE   H4X16614   0.600  -0.258   6.919 -0.1353  0.5345 -0.0641
  150SAPE   H4Y16615   0.760  -0.298   6.974  0.9206 -1.8679  0.8936
  150SAPE   C3516616   0.608  -0.460   6.988 -0.0694  0.5237  0.1497
  150SAPE   H5X16617   0.680  -0.536   7.025  0.0048  0.4961 -0.0522
  150SAPE   H5Y16618   0.545  -0.499   6.906 -0.9204  1.8178  0.1739
  150SAPE   C3616619   0.522  -0.412   7.106  0.1434 -0.0397 -0.2153
  150SAPE   H6X16620   0.461  -0.504   7.118  0.3146 -0.3266 -1.4856
  150SAPE   H6Y16621   0.461  -0.329   7.065 -0.6298 -0.4438  0.1072
  150SAPE   C3716622   0.592  -0.395   7.242  0.1069 -0.0088 -0.6408
  150SAPE   H7X16623   0.662  -0.310   7.257  1.0172 -0.8112 -0.2920
  150SAPE   H7Y16624   0.661  -0.482   7.252  0.5795  0.6190  1.9830
  150SAPE   C3816625   0.498  -0.409   7.366  0.0211  0.3335 -1.1419
  150SAPE   H8X16626   0.428  -0.493   7.353  0.4216 -0.1385 -0.2847
  150SAPE   H8Y16627   0.431  -0.322   7.378  0.1401  0.4445 -1.2650
  150SAPE   C3916628   0.569  -0.440   7.499 -0.4264  0.3481  0.2170
  150SAPE   H9X16629   0.628  -0.349   7.523 -2.6256  2.0239 -0.5386
  150SAPE   H9Y16630   0.642  -0.523   7.490 -0.5583 -0.0033  2.1971
  150SAPE  C31016631   0.476  -0.469   7.615  0.6791  0.0162  0.9327
  150SAPE  H10X16632   0.404  -0.550   7.588 -0.1336  2.2605 -4.2593
  150SAPE  H10Y16633   0.414  -0.380   7.637  0.5291 -0.0103  0.6227
  150SAPE  C31116634   0.549  -0.503   7.744  0.1930 -0.1870 -0.1210
  150SAPE  H11X16635   0.595  -0.405   7.767  0.1477  0.0455 -0.9801
  150SAPE  H11Y16636   0.624  -0.584   7.728  1.2317  0.8094 -0.4098
  150SAPE  C31216637   0.445  -0.554   7.838 -0.4452 -0.4496  0.0229
  150SAPE  H12X16638   0.401  -0.653   7.817 -0.3477 -0.2587 -1.1510
  150SAPE  H12Y16639   0.358  -0.487   7.822  0.4237  0.9499  1.0538
  150SAPE  C31316640   0.513  -0.560   7.977 -0.7189 -0.3869 -0.4036
  150SAPE  H13X16641   0.537  -0.456   8.007  0.7905 -1.3302  1.7956
  150SAPE  H13Y16642   0.608  -0.619   7.975 -0.2874  0.3186 -2.3946
  150SAPE  C31416643   0.430  -0.616   8.090  0.8368 -0.3597 -0.2821
  150SAPE  H14X16644   0.405  -0.721   8.066 -2.6741  0.9057 -2.4368
  150SAPE  H14Y16645   0.341  -0.550   8.085  1.1706  0.1376  0.2515
  150SAPE  C31516646   0.498  -0.598   8.226 -0.0998 -0.4760  0.0132
  150SAPE  H15X16647   0.490  -0.491   8.257  2.0022 -0.0509 -0.8153
  150SAPE  H15Y16648   0.605  -0.616   8.201 -0.5715  1.3103 -3.7494
  150SAPE  C31616649   0.433  -0.678   8.330  0.8319 -0.0375  0.6481
  150SAPE  H16X16650   0.511  -0.693   8.408  2.6552 -1.1958 -1.3564
  150SAPE  H16Y16651   0.400  -0.775   8.289 -0.6436  0.0798  1.5238
  150SAPE  C31716652   0.311  -0.610   8.392 -0.0518 -0.3622  0.1848
  150SAPE  H17X16653   0.250  -0.561   8.313 -0.9141 -2.6091 -0.5575
  150SAPE  H17Y16654   0.343  -0.528   8.461  2.0420 -1.1393  0.1586
  150SAPE  C31816655   0.206  -0.694   8.454 -0.2134  0.7764  0.1604
  150SAPE  H18X16656   0.145  -0.637   8.527  1.5636  0.1467  2.1709
  150SAPE  H18Y16657   0.248  -0.766   8.527  0.1586  0.3364 -0.4823
  150SAPE  H18Z16658   0.157  -0.763   8.382 -0.8890  1.4146 -0.0008
  151SAPE     N16659   2.822   4.520   6.516 -0.1460 -0.3007  0.1705
  151SAPE   HN116660   2.806   4.622   6.499 -0.9990 -0.8682 -2.7044
  151SAPE   HN216661   2.721   4.493   6.523 -0.0215 -0.8431 -0.0929
  151SAPE   HN316662   2.849   4.502   6.614  3.3243  1.7508 -0.3419
  151SAPE   C1216663   2.893   4.449   6.402 -0.2401  0.5824 -0.2610
  151SAPE  H12A16664   2.815   4.444   6.323  0.0769  2.6090 -0.7293
  151SAPE  H12B16665   2.911   4.341   6.419  0.4800  0.5171 -1.4069
  151SAPE   C1116666   3.020   4.521   6.349 -0.3007 -0.1713  0.6966
  151SAPE  H11A16667   2.990   4.612   6.292  0.2923 -1.6900 -2.1589
  151SAPE  H11B16668   3.070   4.449   6.280 -0.6832 -0.9102  1.1891
  151SAPE     P16669   3.253   4.600   6.417  0.1788  0.4512  0.4415
  151SAPE   O1316670   3.326   4.504   6.328  0.3067 -0.4679  0.0898
  151SAPE   O1416671   3.240   4.745   6.380  0.6549 -0.4536 -0.0970
  151SAPE   O1216672   3.107   4.549   6.459  0.1118 -0.0781  0.7024
  151SAPE   O1116673   3.345   4.607   6.547  0.1163  0.1533 -0.3064
  151SAPE    C116674   3.292   4.572   6.675 -0.0005 -0.1993  0.4432
  151SAPE    HA16675   3.335   4.640   6.751 -1.8227  1.4692  0.0289
  151SAPE    HB16676   3.183   4.587   6.690  0.0351  0.1314  0.3709
  151SAPE    C216677   3.316   4.424   6.701 -0.4380 -0.2393  0.4590
  151SAPE    HS16678   3.421   4.413   6.665 -0.6683 -1.2963  0.1151
  151SAPE   O2116679   3.216   4.356   6.626 -0.2485  0.1195 -0.3395
  151SAPE   C2116680   3.244   4.237   6.584 -0.0026 -0.4044  0.5702
  151SAPE   O2216681   3.354   4.179   6.591 -0.2867 -1.0561  0.3054
  151SAPE   C2216682   3.109   4.184   6.534  0.6913 -0.4913 -1.0766
  151SAPE   H2R16683   3.032   4.213   6.608  0.9880 -1.3821 -0.4091
  151SAPE   H2S16684   3.087   4.238   6.439  1.9739 -1.6700 -2.0633
  151SAPE    C316685   3.320   4.391   6.860 -0.5059 -0.3247  0.0422
  151SAPE    HX16686   3.366   4.289   6.865 -1.8385 -0.9969 -1.1320
  151SAPE    HY16687   3.215   4.390   6.894 -1.1850 -1.2299 -1.9827
  151SAPE   O3116688   3.399   4.474   6.947 -0.0152 -0.2047  0.3264
  151SAPE   C3116689   3.350   4.583   6.995  0.1861  0.4414 -0.0911
  151SAPE   O3216690   3.238   4.628   6.973 -0.3087 -0.1897 -1.0487
  151SAPE   C3216691   3.448   4.648   7.095 -0.1977  0.1017  0.7949
  151SAPE   H2X16692   3.480   4.749   7.060 -1.8713  0.8528  1.3528
  151SAPE   H2Y16693   3.539   4.587   7.114 -0.9089 -0.9223  0.9484
  151SAPE   C2316694   3.102   4.032   6.512  0.4418  0.1271  0.3958
  151SAPE   H3R16695   3.167   3.999   6.428 -0.5309  0.3647 -0.4629
  151SAPE   H3S16696   3.000   4.005   6.478  0.7195 -0.9455  0.4069
  151SAPE   C2416697   3.129   3.936   6.632 -0.1027 -0.3482  0.1304
  151SAPE   H4R16698   3.231   3.957   6.669  1.3198 -2.1473 -2.5587
  151SAPE   H4S16699   3.126   3.831   6.597  2.1655 -1.1223  2.1730
  151SAPE   C2516700   3.019   3.977   6.730  0.5475  0.1707  0.1383
  151SAPE   H5R16701   2.915   3.963   6.695 -0.0757  3.5679  0.4204
  151SAPE   C2616702   3.037   4.026   6.859 -0.2355  0.3001 -0.3550
  151SAPE   H6R16703   2.940   4.039   6.909 -0.2201  0.5954 -0.3992
  151SAPE   C2716704   3.165   4.070   6.928 -0.7800  0.1071  0.4771
  151SAPE   H7R16705   3.241   4.100   6.853 -1.1498 -1.1524 -0.4181
  151SAPE   H7S16706   3.216   3.991   6.988 -1.1025 -0.4071  0.0815
  151SAPE   C2816707   3.133   4.186   7.016 -0.5561  0.9039 -0.5819
  151SAPE   H8R16708   3.083   4.264   6.957  1.6784  2.3601 -0.5840
  151SAPE   C2916709   3.164   4.206   7.143  0.6322  0.0920  0.6239
  151SAPE   H9R16710   3.132   4.300   7.190 -0.6809  0.6439 -1.3242
  151SAPE  C21016711   3.234   4.118   7.242  0.1872  0.3830 -0.1204
  151SAPE  H10R16712   3.280   4.178   7.323 -0.6319  0.6679  0.1491
  151SAPE  H10S16713   3.309   4.056   7.190  0.9516  1.1376  0.0753
  151SAPE  C21116714   3.134   4.023   7.306 -0.3246  0.3568 -0.3488
  151SAPE  H11R16715   3.035   4.013   7.260 -1.3445 -0.4570  1.9472
  151SAPE  C21216716   3.160   3.938   7.410 -0.1824 -0.0002  0.2698
  151SAPE  H12R16717   3.082   3.866   7.440  0.3184 -0.8576 -0.4669
  151SAPE  C21316718   3.290   3.940   7.489  0.9922  0.5543  0.7968
  151SAPE  H13R16719   3.378   3.931   7.422  1.2581 -1.2568  1.3770
  151SAPE  H13S16720   3.294   3.844   7.545  0.3074  1.8797  3.1906
  151SAPE  C21416721   3.316   4.046   7.593  0.7927 -0.4552 -0.2184
  151SAPE  H14R16722   3.388   4.120   7.557  2.0430 -0.4186  2.2368
  151SAPE  C21516723   3.261   4.049   7.721  0.2205  1.0446 -0.6267
  151SAPE  H15R16724   3.277   4.139   7.781  1.7686  0.1412  0.3531
  151SAPE  C21616725   3.164   3.947   7.776 -0.0277 -0.3710  0.3558
  151SAPE  H16R16726   3.152   3.858   7.711  3.0268 -0.6897  0.1352
  151SAPE  H16S16727   3.068   4.000   7.792  0.0054 -0.4166  0.7239
  151SAPE  C21716728   3.218   3.882   7.904  0.8318 -0.4097  0.5312
  151SAPE  H17R16729   3.322   3.845   7.897  1.4166  0.8860  1.9938
  151SAPE  H17S16730   3.160   3.793   7.935 -0.7962  0.5206  0.2482
  151SAPE  C21816731   3.207   3.972   8.027  0.4048  0.9406  0.6321
  151SAPE  H18R16732   3.099   3.980   8.051  0.0042  0.0545 -0.8234
  151SAPE  H18S16733   3.245   4.074   8.004  1.5670  0.8720  2.1542
  151SAPE  C21916734   3.281   3.900   8.147 -0.3045  0.4005 -0.1359
  151SAPE  H19R16735   3.386   3.881   8.117 -0.6884 -1.9431 -0.0396
  151SAPE  H19S16736   3.220   3.807   8.144 -1.7475  1.3313 -0.2556
  151SAPE  C22016737   3.264   3.982   8.283 -0.7982  0.2309  0.0665
  151SAPE  H20R16738   3.165   4.031   8.294 -0.4601  0.8071  0.5547
  151SAPE  H20S16739   3.278   3.915   8.370  2.9533  0.5314 -0.2315
  151SAPE  H20T16740   3.330   4.070   8.297 -2.0201  0.8858  1.8644
  151SAPE   C3316741   3.374   4.681   7.230 -0.1313 -0.2322  0.2056
  151SAPE   H3X16742   3.412   4.602   7.298  0.8451  0.3059  0.3004
  151SAPE   H3Y16743   3.264   4.673   7.229 -0.2300 -0.0572  4.0451
  151SAPE   C3416744   3.413   4.814   7.297 -0.5674  0.0101  0.6206
  151SAPE   H4X16745   3.379   4.897   7.232 -0.1032  0.5714  1.0882
  151SAPE   H4Y16746   3.521   4.820   7.320 -0.7653 -0.4824  1.7097
  151SAPE   C3516747   3.328   4.829   7.422 -0.3940  0.5231  0.2298
  151SAPE   H5X16748   3.389   4.883   7.497 -0.5631 -0.3745  1.0263
  151SAPE   H5Y16749   3.311   4.732   7.473  0.4582 -0.2644 -0.9613
  151SAPE   C3616750   3.183   4.875   7.402 -0.8450 -0.4477  0.0382
  151SAPE   H6X16751   3.128   4.786   7.364 -1.1888 -0.6067  0.8970
  151SAPE   H6Y16752   3.164   4.941   7.315  5.0279  1.7669  0.2650
  151SAPE   C3716753   3.129   4.915   7.539 -0.2998  0.1522 -1.1752
  151SAPE   H7X16754   3.193   4.987   7.594 -0.7238 -0.4614  0.1548
  151SAPE   H7Y16755   3.125   4.832   7.612 -1.0345  0.9144 -0.3268
  151SAPE   C3816756   2.999   4.993   7.532 -0.3736 -0.1926  0.3525
  151SAPE   H8X16757   2.930   4.916   7.490  0.2311 -0.5187 -0.0479
  151SAPE   H8Y16758   3.003   5.071   7.453 -0.9712 -1.4583 -0.9446
  151SAPE   C3916759   2.950   5.051   7.658  0.3533  0.5606  0.4495
  151SAPE   H9X16760   3.022   5.132   7.683 -0.4374  0.8691  1.8375
  151SAPE   H9Y16761   2.961   4.964   7.726  0.5354 -0.4837 -0.8993
  151SAPE  C31016762   2.799   5.082   7.650 -0.0294  0.1666  0.1032
  151SAPE  H10X16763   2.753   4.996   7.597 -0.5651  2.1539 -2.8220
  151SAPE  H10Y16764   2.790   5.172   7.585 -1.4405 -0.4416 -0.5638
  151SAPE  C31116765   2.731   5.098   7.784  0.3084 -0.4096 -0.4978
  151SAPE  H11X16766   2.792   5.174   7.837 -1.8612  0.6807  0.4958
  151SAPE  H11Y16767   2.741   5.002   7.840 -0.6072  0.7831  1.7839
  151SAPE  C31216768   2.583   5.147   7.773  0.4284 -0.4597 -0.1158
  151SAPE  H12X16769   2.535   5.081   7.698  0.2830  0.4330 -0.8162
  151SAPE  H12Y16770   2.599   5.244   7.720  0.0146  0.5618  1.5846
  151SAPE  C31316771   2.507   5.167   7.903  0.4967  1.3186 -0.0926
  151SAPE  H13X16772   2.430   5.247   7.896 -0.4867  0.4610  0.7205
  151SAPE  H13Y16773   2.579   5.184   7.986  0.9647  0.7361 -0.3732
  151SAPE  C31416774   2.434   5.034   7.927  0.5256  1.0458 -0.2000
  151SAPE  H14X16775   2.504   4.947   7.923 -1.9301 -1.0859  1.2218
  151SAPE  H14Y16776   2.360   5.007   7.848 -0.7322  0.9278  0.9962
  151SAPE  C31516777   2.358   5.021   8.063 -0.8076  0.2786 -0.4826
  151SAPE  H15X16778   2.323   4.916   8.074 -1.2948  0.5677  0.8608
  151SAPE  H15Y16779   2.269   5.088   8.062 -0.3195  0.9270 -0.5095
  151SAPE  C31616780   2.444   5.042   8.185 -0.2867 -1.1337 -0.9358
  151SAPE  H16X16781   2.387   5.023   8.278 -2.4243 -0.9947 -2.1808
  151SAPE  H16Y16782   2.477   5.148   8.182 -0.3073 -1.0726  0.6697
  151SAPE  C31716783   2.562   4.953   8.186 -0.5506 -0.2012 -0.4997
  151SAPE  H17X16784   2.659   4.996   8.154 -0.9816  0.3873 -1.0188
  151SAPE  H17Y16785   2.560   4.866   8.117 -1.0615 -0.2235 -0.4579
  151SAPE  C31816786   2.587   4.901   8.324 -0.4832 -0.1255  0.1158
  151SAPE  H18X16787   2.629   4.987   8.382  0.3394  0.1441 -0.8747
  151SAPE  H18Y16788   2.645   4.807   8.332  1.0582  0.7882 -0.1059
  151SAPE  H18Z16789   2.493   4.865   8.371 -0.1526  0.2783  1.1078
  152SAPE     N16790   0.779   0.998   6.282  0.1688 -0.0096 -0.4336
  152SAPE   HN116791   0.796   0.969   6.183  1.1750 -1.5914  0.1820
  152SAPE   HN216792   0.701   1.066   6.269 -0.0035  0.1451  1.2891
  152SAPE   HN316793   0.865   1.040   6.322  0.7882  0.4096 -2.1393
  152SAPE   C1216794   0.738   0.879   6.353  0.3995 -0.2643  0.4121
  152SAPE  H12A16795   0.714   0.912   6.457 -1.9079 -2.0041  0.4803
  152SAPE  H12B16796   0.826   0.811   6.351  0.5824 -0.0675  1.3805
  152SAPE   C1116797   0.603   0.816   6.298 -0.3125  0.2352 -0.9786
  152SAPE  H11A16798   0.560   0.743   6.370  3.0543  0.4309  1.3675
  152SAPE  H11B16799   0.631   0.773   6.200 -0.6532  0.1888 -1.0558
  152SAPE     P16800   0.369   0.897   6.222  0.4143  0.3129 -0.1059
  152SAPE   O1316801   0.312   1.035   6.195  0.1323 -0.3687 -0.3821
  152SAPE   O1416802   0.372   0.807   6.108 -0.0223  0.7506 -0.0159
  152SAPE   O1216803   0.519   0.927   6.275  0.9911  0.0241  0.2952
  152SAPE   O1116804   0.314   0.824   6.349 -0.8788 -0.1162 -0.3968
  152SAPE    C116805   0.286   0.917   6.458 -0.0898 -0.0943 -0.0653
  152SAPE    HA16806   0.379   0.943   6.514  0.1223  1.8019 -1.2458
  152SAPE    HB16807   0.236   1.009   6.422 -1.4470 -0.0194  1.9154
  152SAPE    C216808   0.183   0.861   6.557 -0.3985 -0.4153  0.0953
  152SAPE    HS16809   0.192   0.928   6.645  1.5102 -2.7998  1.7901
  152SAPE   O2116810   0.205   0.722   6.601 -0.3702  0.2845 -0.0862
  152SAPE   C2116811   0.299   0.706   6.692  0.2245 -0.2146  0.9763
  152SAPE   O2216812   0.381   0.790   6.726  0.4320  0.7841 -0.6037
  152SAPE   C2216813   0.280   0.572   6.756 -0.1499 -0.0888  0.1323
  152SAPE   H2R16814   0.236   0.505   6.680  0.5636  1.4727 -1.7240
  152SAPE   H2S16815   0.378   0.527   6.782  0.0651  0.0130 -0.4806
  152SAPE    C316816   0.038   0.850   6.505 -0.7222  0.2385  0.5192
  152SAPE    HX16817   0.046   0.774   6.425  0.2498  0.4040  0.4469
  152SAPE    HY16818   0.019   0.949   6.458 -0.3032  0.9021  1.7260
  152SAPE   O3116819  -0.056   0.798   6.590 -0.6945  0.1955 -0.0487
  152SAPE   C3116820  -0.072   0.846   6.709 -0.4007 -0.2110  0.3801
  152SAPE   O3216821  -0.006   0.933   6.760  0.6547 -0.1602 -0.3747
  152SAPE   C3216822  -0.188   0.776   6.775 -0.7029 -0.1177 -0.3178
  152SAPE   H2X16823  -0.199   0.671   6.741 -3.0926 -0.7564  2.2396
  152SAPE   H2Y16824  -0.279   0.832   6.744 -2.0982 -2.5994 -0.9055
  152SAPE   C2316825   0.194   0.572   6.887  0.0381  0.1294 -0.0095
  152SAPE   H3R16826   0.201   0.473   6.937  1.7466 -0.0981 -0.6798
  152SAPE   H3S16827   0.089   0.595   6.859  0.0469 -0.0614 -0.2013
  152SAPE   C2416828   0.231   0.669   6.998 -0.5641 -0.5538  0.1978
  152SAPE   H4R16829   0.341   0.676   6.996 -0.5190 -1.4231 -2.3148
  152SAPE   H4S16830   0.203   0.627   7.097 -1.0681 -0.4977  0.0803
  152SAPE   C2516831   0.189   0.813   6.982 -0.1066  0.2167  0.2783
  152SAPE   H5R16832   0.216   0.854   6.883 -0.6532 -2.5464 -1.0644
  152SAPE   C2616833   0.114   0.885   7.062  0.2468 -0.2767  0.2356
  152SAPE   H6R16834   0.093   0.990   7.036  0.5118 -0.7163 -1.8214
  152SAPE   C2716835   0.047   0.862   7.196 -0.0567 -0.7147 -0.2073
  152SAPE   H7R16836  -0.020   0.774   7.188 -1.3015  0.1475  0.5471
  152SAPE   H7S16837  -0.016   0.950   7.222  0.7478 -1.2242  3.7905
  152SAPE   C2816838   0.149   0.845   7.299  0.3983 -0.0123 -0.4642
  152SAPE   H8R16839   0.253   0.876   7.279  0.1465  2.0563  1.2775
  152SAPE   C2916840   0.130   0.791   7.425  0.2386  0.3476 -0.2561
  152SAPE   H9R16841   0.222   0.788   7.486  0.1993 -1.1338 -0.2468
  152SAPE  C21016842   0.005   0.730   7.481  0.8966 -0.1895 -0.2436
  152SAPE  H10R16843  -0.086   0.754   7.422 -0.2127 -0.6028  1.2682
  152SAPE  H10S16844  -0.010   0.769   7.584  0.6197 -0.8400 -0.0365
  152SAPE  C21116845   0.018   0.578   7.489 -0.1968  0.1311 -0.2999
  152SAPE  H11R16846   0.049   0.529   7.395  0.0917 -0.2126 -0.0298
  152SAPE  C21216847  -0.013   0.495   7.593  0.3944  0.2992 -1.0297
  152SAPE  H12R16848   0.000   0.386   7.578 -0.2447 -0.0906  1.0543
  152SAPE  C21316849  -0.071   0.535   7.731  0.1429  0.5371  0.7311
  152SAPE  H13R16850  -0.082   0.445   7.795  0.0434 -0.3281 -0.4816
  152SAPE  H13S16851  -0.174   0.574   7.712 -0.0030  0.8345  2.1193
  152SAPE  C21416852   0.003   0.642   7.809  0.2498  0.3902  0.5079
  152SAPE  H14R16853   0.088   0.698   7.768  0.2774  1.0322  1.4111
  152SAPE  C21516854  -0.030   0.680   7.929 -0.4524 -0.2691 -0.2376
  152SAPE  H15R16855   0.028   0.765   7.967 -0.3953 -0.2504 -0.3658
  152SAPE  C21616856  -0.134   0.612   8.016  0.1146  0.7313 -0.4320
  152SAPE  H16R16857  -0.218   0.566   7.961  0.8475  1.6779 -2.3802
  152SAPE  H16S16858  -0.176   0.692   8.082 -0.4226  0.8894 -0.9651
  152SAPE  C21716859  -0.072   0.509   8.109  0.0392  0.0344  0.6656
  152SAPE  H17R16860   0.019   0.549   8.158  1.4087  0.1215 -1.8890
  152SAPE  H17S16861  -0.051   0.425   8.039 -2.2410 -0.0944  0.0921
  152SAPE  C21816862  -0.166   0.452   8.208  0.2429  0.1483 -0.1732
  152SAPE  H18R16863  -0.116   0.356   8.234 -0.0697 -0.7932 -2.8377
  152SAPE  H18S16864  -0.268   0.428   8.173 -0.2486  1.3094  0.4710
  152SAPE  C21916865  -0.177   0.545   8.333  0.1807  0.2779 -0.3006
  152SAPE  H19R16866  -0.210   0.650   8.319  0.2519  0.2093 -1.0142
  152SAPE  H19S16867  -0.070   0.563   8.359  0.6041  3.2708 -3.7732
  152SAPE  C22016868  -0.249   0.483   8.455 -0.4276 -0.1259  0.3795
  152SAPE  H20R16869  -0.345   0.437   8.426  0.1856 -0.3202 -1.4136
  152SAPE  H20S16870  -0.283   0.557   8.530  0.7730  0.5746  0.2535
  152SAPE  H20T16871  -0.183   0.405   8.501  0.2005  0.4631  0.4957
  152SAPE   C3316872  -0.175   0.776   6.925 -0.6272 -0.0947  0.6263
  152SAPE   H3X16873  -0.152   0.877   6.964  0.8467 -0.1343 -0.1329
  152SAPE   H3Y16874  -0.088   0.712   6.951  0.3102  0.5832 -0.8169
  152SAPE   C3416875  -0.312   0.731   6.983 -0.4201  0.2824 -0.1911
  152SAPE   H4X16876  -0.349   0.635   6.941 -2.7023  0.6380  0.8833
  152SAPE   H4Y16877  -0.393   0.802   6.956 -0.9829  0.4276  1.8067
  152SAPE   C3516878  -0.299   0.731   7.140 -0.0289 -0.5429 -0.2549
  152SAPE   H5X16879  -0.260   0.828   7.177 -0.5345 -0.9844  1.4837
  152SAPE   H5Y16880  -0.220   0.657   7.162 -1.4936 -1.4286  2.1529
  152SAPE   C3616881  -0.418   0.691   7.218  0.5986  0.0045 -0.3480
  152SAPE   H6X16882  -0.431   0.588   7.180  0.6236 -1.3997  3.2362
  152SAPE   H6Y16883  -0.505   0.754   7.189 -0.7912 -1.5713  0.3073
  152SAPE   C3716884  -0.381   0.689   7.369  0.6407 -0.0565  0.2809
  152SAPE   H7X16885  -0.318   0.773   7.405 -0.5887 -0.0668  2.5765
  152SAPE   H7Y16886  -0.319   0.599   7.388 -1.2128 -1.0615  1.7171
  152SAPE   C3816887  -0.504   0.689   7.461 -0.1215  0.2037 -0.5627
  152SAPE   H8X16888  -0.576   0.615   7.420 -2.0650  1.7553 -0.0113
  152SAPE   H8Y16889  -0.536   0.795   7.462  1.3855  0.6784  0.2624
  152SAPE   C3916890  -0.458   0.662   7.600  0.2773 -0.3805  0.1386
  152SAPE   H9X16891  -0.374   0.729   7.626 -0.9754  0.9156  0.8709
  152SAPE   H9Y16892  -0.403   0.565   7.599  2.1503  0.5882  3.8187
  152SAPE  C31016893  -0.563   0.672   7.707  0.0761 -0.3412 -0.3919
  152SAPE  H10X16894  -0.640   0.594   7.688  2.2445 -2.2030 -1.8915
  152SAPE  H10Y16895  -0.605   0.774   7.722 -0.9883 -0.7626 -0.4410
  152SAPE  C31116896  -0.510   0.633   7.846 -0.1591 -0.7752  0.6828
  152SAPE  H11X16897  -0.436   0.710   7.878 -2.2693  2.5224 -1.9771
  152SAPE  H11Y16898  -0.449   0.540   7.844 -0.4168 -1.0187  2.7852
  152SAPE  C31216899  -0.629   0.633   7.951 -0.3289  0.3263  0.4746
  152SAPE  H12X16900  -0.711   0.565   7.918  0.0560 -1.1391  2.4534
  152SAPE  H12Y16901  -0.672   0.734   7.966  1.7791  1.4461 -0.7418
  152SAPE  C31316902  -0.566   0.567   8.079  0.0128  0.3169  0.0407
  152SAPE  H13X16903  -0.487   0.626   8.131 -0.2207  0.9241 -0.2852
  152SAPE  H13Y16904  -0.531   0.472   8.035 -1.7995 -0.2131 -0.2965
  152SAPE  C31416905  -0.664   0.528   8.190 -0.2379  0.0895  0.1434
  152SAPE  H14X16906  -0.595   0.485   8.266  3.4666  0.8041 -2.6659
  152SAPE  H14Y16907  -0.727   0.444   8.155 -0.8665  0.1516  1.1187
  152SAPE  C31516908  -0.748   0.641   8.256 -0.5473  0.2272  0.1343
  152SAPE  H15X16909  -0.793   0.708   8.180 -1.4110  0.6888  1.0372
  152SAPE  H15Y16910  -0.686   0.707   8.320  2.0530 -0.4061 -1.6584
  152SAPE  C31616911  -0.855   0.584   8.344  0.4545  0.4360  0.3374
  152SAPE  H16X16912  -0.830   0.486   8.389  0.5438  0.8604  1.2265
  152SAPE  H16Y16913  -0.939   0.564   8.274  2.2409 -1.9938 -1.1901
  152SAPE  C31716914  -0.907   0.677   8.454 -0.5967 -0.8949 -0.1264
  152SAPE  H17X16915  -0.884   0.782   8.425  1.2230 -1.3138 -0.3137
  152SAPE  H17Y16916  -0.854   0.665   8.551 -0.5006 -0.8744 -0.1759
  152SAPE  C31816917  -1.052   0.657   8.494  0.1421 -0.0519 -0.8139
  152SAPE  H18X16918  -1.058   0.553   8.535  3.3960  0.4064  1.0229
  152SAPE  H18Y16919  -1.109   0.653   8.399 -1.6718  0.6672  0.2327
  152SAPE  H18Z16920  -1.099   0.724   8.568 -1.2735 -1.9551  0.0722
  153SAPE     N16921   3.802   1.157   6.125  0.0621 -0.1596 -0.3799
  153SAPE   HN116922   3.699   1.144   6.134  0.1551 -0.0386  1.0557
  153SAPE   HN216923   3.843   1.205   6.208  0.0937  0.3178 -0.6715
  153SAPE   HN316924   3.822   1.220   6.045  0.0734 -0.0360 -0.2805
  153SAPE   C1216925   3.861   1.021   6.108 -0.6018 -0.0704 -0.3127
  153SAPE  H12A16926   3.964   1.036   6.069 -1.0307 -1.7388 -2.2110
  153SAPE  H12B16927   3.814   0.965   6.024  1.9726  1.9316 -3.2242
  153SAPE   C1116928   3.862   0.938   6.238  0.0999 -0.0755  0.0607
  153SAPE  H11A16929   3.900   0.996   6.325 -1.7105  2.5542 -0.8415
  153SAPE  H11B16930   3.932   0.853   6.224  0.0916 -0.6262  3.0336
  153SAPE     P16931   3.631   0.954   6.357 -0.1912 -0.2062 -0.1721
  153SAPE   O1316932   3.503   0.977   6.286 -0.3454  0.0073 -0.5504
  153SAPE   O1416933   3.619   0.872   6.479 -0.3599  0.0129 -0.3940
  153SAPE   O1216934   3.729   0.889   6.254  0.3540 -0.1938  0.1680
  153SAPE   O1116935   3.690   1.101   6.389  0.2334  0.0737 -0.0722
  153SAPE    C116936   3.602   1.209   6.420 -0.2249  0.2667  0.6568
  153SAPE    HA16937   3.590   1.276   6.332 -0.6654  0.2619  0.7108
  153SAPE    HB16938   3.497   1.178   6.437  0.2369 -1.5581  0.2852
  153SAPE    C216939   3.639   1.301   6.544  0.2241  0.4179  0.1325
  153SAPE    HS16940   3.726   1.364   6.514 -0.1439  1.0670  0.4205
  153SAPE   O2116941   3.665   1.220   6.658 -0.2496  0.0015  0.0261
  153SAPE   C2116942   3.783   1.170   6.669 -0.6636 -0.0546  0.5207
  153SAPE   O2216943   3.886   1.201   6.607  0.4822  0.0659 -0.0247
  153SAPE   C2216944   3.775   1.049   6.765  0.2011 -0.1977 -0.8321
  153SAPE   H2R16945   3.669   1.022   6.786  0.2470  1.3208  1.5063
  153SAPE   H2S16946   3.826   0.964   6.715  0.2406 -0.3210 -0.5828
  153SAPE    C316947   3.526   1.408   6.577 -0.3550  0.2076  0.5755
  153SAPE    HX16948   3.448   1.356   6.636  0.3507 -0.4537  0.9486
  153SAPE    HY16949   3.491   1.449   6.480  2.6999  2.3289  0.2843
  153SAPE   O3116950   3.598   1.505   6.655  0.7694  0.2551  0.1752
  153SAPE   C3116951   3.628   1.620   6.602 -0.1586  0.1315 -0.2386
  153SAPE   O3216952   3.593   1.669   6.497 -0.1301 -0.1173  0.4574
  153SAPE   C3216953   3.720   1.700   6.697  0.9602 -0.2910  0.6642
  153SAPE   H2X16954   3.679   1.691   6.800 -1.2461 -1.1317 -0.2795
  153SAPE   H2Y16955   3.722   1.808   6.670 -0.3840 -0.0658  1.4109
  153SAPE   C2316956   3.844   1.081   6.896 -0.4057  0.0170  0.5544
  153SAPE   H3R16957   3.939   1.138   6.889 -1.1245  1.2223  0.5194
  153SAPE   H3S16958   3.870   0.985   6.946 -0.9341  0.5161  1.8189
  153SAPE   C2416959   3.740   1.153   6.991  0.0512  0.2196  0.1003
  153SAPE   H4R16960   3.655   1.083   7.009 -0.2961  0.6246  0.0321
  153SAPE   H4S16961   3.697   1.235   6.930 -0.3247 -1.3870 -1.8884
  153SAPE   C2516962   3.806   1.214   7.116 -0.4246 -0.4650  0.5960
  153SAPE   H5R16963   3.889   1.282   7.094 -1.4744  1.0216  1.1217
  153SAPE   C2616964   3.777   1.192   7.240 -0.9768 -0.7247  0.2447
  153SAPE   H6R16965   3.842   1.237   7.317 -0.9685 -0.8888  0.3330
  153SAPE   C2716966   3.661   1.104   7.289  0.8287 -0.2066  0.2414
  153SAPE   H7R16967   3.718   1.026   7.343 -0.0984 -1.9613 -1.2257
  153SAPE   H7S16968   3.625   1.043   7.203 -0.7977 -1.0083  1.4627
  153SAPE   C2816969   3.559   1.159   7.384  0.6717 -0.1160  0.1961
  153SAPE   H8R16970   3.526   1.262   7.361 -2.6980 -1.7759 -2.7453
  153SAPE   C2916971   3.502   1.095   7.491  0.0590  0.7940 -0.1123
  153SAPE   H9R16972   3.431   1.147   7.558 -0.6373 -1.6447  1.1078
  153SAPE  C21016973   3.530   0.958   7.557  0.1814 -0.1741  0.8764
  153SAPE  H10R16974   3.621   0.920   7.507  1.2798  0.3986  2.4226
  153SAPE  H10S16975   3.445   0.888   7.540  1.0855 -1.7232  2.6622
  153SAPE  C21116976   3.553   0.949   7.716 -0.6728  0.0549  0.6445
  153SAPE  H11R16977   3.657   0.939   7.750 -0.4288  2.2404  0.6193
  153SAPE  C21216978   3.457   0.949   7.809  0.2837  0.5589 -0.3178
  153SAPE  H12R16979   3.495   0.959   7.912  0.0517  2.5392 -0.4030
  153SAPE  C21316980   3.305   0.971   7.794 -1.2777  0.4394 -0.3960
  153SAPE  H13R16981   3.279   0.967   7.686  0.4886  0.6785 -0.8527
  153SAPE  H13S16982   3.268   1.073   7.817  1.1222  1.4729 -0.9001
  153SAPE  C21416983   3.222   0.867   7.866 -0.2380  0.2642 -0.2224
  153SAPE  H14R16984   3.183   0.893   7.965 -0.4873  0.1661 -0.2928
  153SAPE  C21516985   3.194   0.741   7.820  0.2376 -0.3187 -0.3184
  153SAPE  H15R16986   3.130   0.680   7.886 -2.2005  0.9122 -1.4670
  153SAPE  C21616987   3.248   0.676   7.692  0.3674 -0.5505  0.0389
  153SAPE  H16R16988   3.306   0.581   7.698  1.0759 -0.1173  0.0154
  153SAPE  H16S16989   3.327   0.742   7.650  1.4267 -2.2614 -0.7122
  153SAPE  C21716990   3.135   0.673   7.580  0.0726 -0.5361 -0.1063
  153SAPE  H17R16991   3.123   0.768   7.522  2.5834 -0.5793 -0.7533
  153SAPE  H17S16992   3.036   0.648   7.624  0.2323 -2.8996 -1.0532
  153SAPE  C21816993   3.166   0.555   7.494  0.6674  0.1161  0.0230
  153SAPE  H18R16994   3.172   0.464   7.558  0.3667  0.9235  1.1924
  153SAPE  H18S16995   3.266   0.568   7.446  0.7953 -0.6732  0.0609
  153SAPE  C21916996   3.049   0.531   7.393 -0.4762  0.3595  0.2520
  153SAPE  H19R16997   3.037   0.628   7.341  0.4886  0.2634 -0.1731
  153SAPE  H19S16998   2.959   0.501   7.450 -0.0982  0.5933  0.9873
  153SAPE  C22016999   3.096   0.432   7.293  0.2860  0.0929  0.5250
  153SAPE  H20R17000   3.116   0.338   7.349  0.5371  0.0224  0.3213
  153SAPE  H20S17001   3.189   0.472   7.245  0.5189 -0.2783  0.6608
  153SAPE  H20T17002   3.025   0.420   7.208  1.6788 -1.2032 -0.4879
  153SAPE   C3317003   3.866   1.634   6.704  0.5640 -0.1193  0.1591
  153SAPE   H3X17004   3.918   1.654   6.609 -0.6885 -0.2718 -0.5770
  153SAPE   H3Y17005   3.844   1.525   6.706 -0.3710  0.0648  0.2315
  153SAPE   C3417006   3.955   1.673   6.820  0.1223 -0.2315 -0.2359
  153SAPE   H4X17007   3.937   1.776   6.857 -0.7862 -0.8735  1.1731
  153SAPE   H4Y17008   4.060   1.671   6.785  0.6950  1.1984  1.3428
  153SAPE   C3517009   3.954   1.570   6.932  0.2358 -0.4126 -0.6064
  153SAPE   H5X17010   3.963   1.468   6.888  0.2573 -0.3197 -0.8164
  153SAPE   H5Y17011   3.859   1.566   6.989  1.0054 -0.7214  0.6806
  153SAPE   C3617012   4.065   1.594   7.036 -0.2643 -0.1924  0.1524
  153SAPE   H6X17013   4.092   1.701   7.048 -1.2672 -0.3283  4.2075
  153SAPE   H6Y17014   4.159   1.544   7.002 -0.7621 -1.9294  1.2838
  153SAPE   C3717015   4.038   1.543   7.183  0.2186 -0.0294  0.6549
  153SAPE   H7X17016   4.026   1.433   7.168 -0.6353 -0.0065  1.1826
  153SAPE   H7Y17017   3.942   1.590   7.212  0.6789  2.0515 -1.0843
  153SAPE   C3817018   4.151   1.585   7.282  1.5120  0.0379 -0.9565
  153SAPE   H8X17019   4.141   1.694   7.300  0.2294 -0.2457  0.1510
  153SAPE   H8Y17020   4.251   1.559   7.243  1.5670 -0.1419 -0.7051
  153SAPE   C3917021   4.128   1.510   7.421 -0.3174 -0.3049  0.3791
  153SAPE   H9X17022   4.171   1.408   7.404  0.8699 -0.0108  1.5535
  153SAPE   H9Y17023   4.018   1.510   7.436 -0.4051 -1.2431 -0.2179
  153SAPE  C31017024   4.209   1.576   7.534 -0.7326  0.0783  0.1058
  153SAPE  H10X17025   4.193   1.685   7.546  2.2195  0.3775  1.6611
  153SAPE  H10Y17026   4.316   1.561   7.506 -0.7119  1.6090 -0.7059
  153SAPE  C31117027   4.166   1.513   7.660 -0.0951 -0.6619 -0.5082
  153SAPE  H11X17028   4.162   1.402   7.654  0.2950 -0.5764 -3.4972
  153SAPE  H11Y17029   4.069   1.561   7.687  0.6079  0.3214  0.3339
  153SAPE  C31217030   4.261   1.548   7.773  0.4181 -0.1219  0.1218
  153SAPE  H12X17031   4.260   1.658   7.790 -0.5632  0.3654 -2.7856
  153SAPE  H12Y17032   4.363   1.517   7.742  1.2013  0.9716  1.5062
  153SAPE  C31317033   4.232   1.463   7.897 -0.4144  0.0166 -0.2871
  153SAPE  H13X17034   4.296   1.373   7.904  0.6859  0.8573  0.7741
  153SAPE  H13Y17035   4.124   1.434   7.898 -0.8552  1.6115  0.9038
  153SAPE  C31417036   4.244   1.541   8.032 -0.3518 -0.5152  0.2471
  153SAPE  H14X17037   4.182   1.633   8.023 -0.1166 -0.5306 -1.9154
  153SAPE  H14Y17038   4.354   1.557   8.025 -0.6319  2.0370  1.2165
  153SAPE  C31517039   4.205   1.466   8.153 -0.6223  0.0230 -0.8909
  153SAPE  H15X17040   4.275   1.382   8.170 -0.5193  0.6688  2.2019
  153SAPE  H15Y17041   4.102   1.430   8.133 -0.7136 -0.1867 -0.0582
  153SAPE  C31617042   4.213   1.538   8.287 -0.3957  0.1721  0.2303
  153SAPE  H16X17043   4.157   1.634   8.282  0.0116  0.3795 -0.3710
  153SAPE  H16Y17044   4.318   1.570   8.301  0.3191 -1.1597 -1.8493
  153SAPE  C31717045   4.162   1.451   8.401 -0.5951 -0.0225 -0.5243
  153SAPE  H17X17046   4.065   1.404   8.374  0.1296 -1.3523 -0.8621
  153SAPE  H17Y17047   4.145   1.502   8.498  1.8671 -1.8745  0.9214
  153SAPE  C31817048   4.261   1.338   8.430  0.2664  0.0545 -0.2096
  153SAPE  H18X17049   4.363   1.378   8.445 -0.8670  2.4299  1.4816
  153SAPE  H18Y17050   4.258   1.259   8.351  0.6225 -0.7309  0.5546
  153SAPE  H18Z17051   4.248   1.299   8.533 -0.2713 -0.1674 -0.3583
  154SAPE     N17052   1.096   6.548   6.292  0.2441 -0.8989  0.3678
  154SAPE   HN117053   1.136   6.588   6.379 -0.8079 -0.6777  0.7559
  154SAPE   HN217054   0.995   6.538   6.315  0.3440 -0.2918  1.0960
  154SAPE   HN317055   1.132   6.454   6.268  1.2204 -0.9608  2.0612
  154SAPE   C1217056   1.124   6.649   6.183  1.3294 -0.0884 -0.0936
  154SAPE  H12A17057   1.080   6.750   6.201  0.1834 -0.6600  0.3399
  154SAPE  H12B17058   1.081   6.612   6.087 -0.7102 -4.8938  2.5122
  154SAPE   C1117059   1.275   6.683   6.171 -0.1381  0.3785 -0.0624
  154SAPE  H11A17060   1.287   6.776   6.112  0.4902  1.1228  1.1955
  154SAPE  H11B17061   1.330   6.600   6.121 -0.8745  0.4125 -0.9247
  154SAPE     P17062   1.480   6.766   6.307  0.4158 -0.1478 -0.2589
  154SAPE   O1317063   1.576   6.662   6.277 -0.1672 -0.5046 -0.2883
  154SAPE   O1417064   1.489   6.892   6.226  0.1701 -0.3674 -0.4227
  154SAPE   O1217065   1.334   6.704   6.300 -0.5970 -0.0816  0.3424
  154SAPE   O1117066   1.487   6.806   6.465 -1.1876  0.3299  0.0585
  154SAPE    C117067   1.384   6.887   6.505 -0.0449  0.6635 -0.0869
  154SAPE    HA17068   1.414   6.988   6.467 -0.1780  0.9313  0.5208
  154SAPE    HB17069   1.283   6.852   6.476  1.2698 -2.2816 -1.3454
  154SAPE    C217070   1.379   6.884   6.656  0.6158 -0.4402 -0.3154
  154SAPE    HS17071   1.288   6.936   6.693  1.5168  1.2540 -0.4208
  154SAPE   O2117072   1.507   6.928   6.714 -0.2195 -0.4719 -0.0948
  154SAPE   C2117073   1.486   6.986   6.839 -0.3135  0.4814 -0.1484
  154SAPE   O2217074   1.380   6.991   6.894  0.2229 -0.2779 -0.0772
  154SAPE   C2217075   1.621   7.046   6.885 -0.0172 -0.1081 -0.9952
  154SAPE   H2R17076   1.686   6.956   6.897  3.5461  2.1894 -2.5126
  154SAPE   H2S17077   1.660   7.107   6.802 -0.1931  0.5973 -0.5614
  154SAPE    C317078   1.370   6.745   6.713  0.1238  0.0134  0.0201
  154SAPE    HX17079   1.470   6.700   6.694 -0.2284 -0.7285 -0.1023
  154SAPE    HY17080   1.308   6.685   6.643 -0.1519  1.4408 -0.9774
  154SAPE   O3117081   1.313   6.721   6.850  0.3552 -0.0455 -0.3520
  154SAPE   C3117082   1.187   6.758   6.867 -0.0574  0.4767  0.2547
  154SAPE   O3217083   1.104   6.777   6.779  0.2518  0.4335 -0.2276
  154SAPE   C3217084   1.163   6.780   7.015 -0.1291 -0.6903  0.3127
  154SAPE   H2X17085   1.240   6.849   7.058  0.1214 -1.1306  0.5718
  154SAPE   H2Y17086   1.161   6.679   7.061 -0.7994 -0.4147  0.8957
  154SAPE   C2317087   1.594   7.133   7.006 -0.5507 -0.8607  0.3778
  154SAPE   H3R17088   1.560   7.067   7.088 -0.1308 -0.4706  0.8707
  154SAPE   H3S17089   1.511   7.200   6.977  0.3783  0.3812  0.5403
  154SAPE   C2417090   1.714   7.220   7.049  0.4121 -0.4104 -0.1540
  154SAPE   H4R17091   1.686   7.292   7.129  3.5311 -0.6539  1.2430
  154SAPE   H4S17092   1.739   7.280   6.958 -1.7268  0.2297 -0.3506
  154SAPE   C2517093   1.823   7.123   7.084  0.2252  0.1890  0.1786
  154SAPE   H5R17094   1.892   7.104   7.000 -1.1290 -0.4617 -0.7988
  154SAPE   C2617095   1.854   7.064   7.202 -0.1310 -0.3419 -0.2140
  154SAPE   H6R17096   1.947   7.005   7.208 -0.7870 -1.5084 -1.2704
  154SAPE   C2717097   1.781   7.080   7.331  0.1979 -1.6907 -0.2820
  154SAPE   H7R17098   1.687   7.138   7.319  0.6058 -0.6636  1.3193
  154SAPE   H7S17099   1.841   7.151   7.391  0.1072 -0.1508 -1.9791
  154SAPE   C2817100   1.766   6.955   7.409  0.5996  0.0808  0.2120
  154SAPE   H8R17101   1.729   6.869   7.351 -0.9960  1.9341 -1.5572
  154SAPE   C2917102   1.808   6.929   7.537 -0.4757 -1.1226 -0.3822
  154SAPE   H9R17103   1.789   6.830   7.582 -3.6113  0.7810  2.6882
  154SAPE  C21017104   1.885   7.021   7.635  0.5012 -0.5663  1.0872
  154SAPE  H10R17105   1.940   7.096   7.575 -0.8928  0.0356  0.5287
  154SAPE  H10S17106   1.960   6.957   7.687  2.0924 -1.7850 -2.5869
  154SAPE  C21117107   1.796   7.100   7.720  0.1467  0.4785 -0.7280
  154SAPE  H11R17108   1.716   7.157   7.669  0.6303  0.4549 -1.5177
  154SAPE  C21217109   1.804   7.113   7.853  0.2190 -0.5689 -0.1928
  154SAPE  H12R17110   1.723   7.166   7.906  0.6517 -1.1050  1.0330
  154SAPE  C21317111   1.898   7.039   7.952 -0.0893 -0.5274 -0.0024
  154SAPE  H13R17112   1.901   7.100   8.045 -0.0265  1.7326 -1.4220
  154SAPE  H13S17113   2.006   7.038   7.924  0.0505  0.1389  0.4854
  154SAPE  C21417114   1.839   6.899   7.974 -0.4073 -0.4734  1.2878
  154SAPE  H14R17115   1.877   6.834   7.894  2.5231  0.9341  1.4617
  154SAPE  C21517116   1.750   6.855   8.066 -0.6546  0.0036 -0.3989
  154SAPE  H15R17117   1.728   6.748   8.076  0.6919 -0.3089 -0.6377
  154SAPE  C21617118   1.681   6.941   8.170  0.0847 -0.0410 -0.0294
  154SAPE  H16R17119   1.592   6.886   8.208 -0.6960  1.5188  0.4313
  154SAPE  H16S17120   1.648   7.036   8.124  2.1216  0.6013 -0.2473
  154SAPE  C21717121   1.758   6.979   8.292 -0.9394  0.0699 -0.5976
  154SAPE  H17R17122   1.699   7.036   8.367 -2.4448  0.6294 -2.1980
  154SAPE  H17S17123   1.828   7.058   8.257 -0.5911  1.1079  2.2842
  154SAPE  C21817124   1.836   6.860   8.359  0.3395  0.0863  0.7662
  154SAPE  H18R17125   1.884   6.894   8.453  0.8648 -0.5321  0.7253
  154SAPE  H18S17126   1.914   6.829   8.287  0.7319 -0.1197  1.2814
  154SAPE  C21917127   1.747   6.748   8.414 -0.7727  0.0604  0.2723
  154SAPE  H19R17128   1.690   6.706   8.329  0.7412 -0.2492 -0.5993
  154SAPE  H19S17129   1.673   6.787   8.488  0.4546  0.4367  1.3313
  154SAPE  C22017130   1.829   6.636   8.462 -0.3599  0.0314  0.6604
  154SAPE  H20R17131   1.776   6.559   8.522  1.5373 -0.0314  2.2939
  154SAPE  H20S17132   1.925   6.665   8.510  0.5450  1.0497 -1.6996
  154SAPE  H20T17133   1.874   6.588   8.372  0.5235 -0.0479  1.1387
  154SAPE   C3317134   1.018   6.832   7.040 -0.0598 -0.3415  0.1214
  154SAPE   H3X17135   0.943   6.759   7.002 -1.3191  0.6289  0.7160
  154SAPE   H3Y17136   0.998   6.928   6.988  2.6306  0.5831  0.7084
  154SAPE   C3417137   0.983   6.860   7.186  0.0290 -0.1829  0.7314
  154SAPE   H4X17138   0.907   6.941   7.184  0.2962  0.0448 -0.5941
  154SAPE   H4Y17139   1.072   6.903   7.237  1.4620 -0.7220 -1.2464
  154SAPE   C3517140   0.938   6.744   7.277 -0.3081  0.0375  0.1183
  154SAPE   H5X17141   1.013   6.663   7.271  1.1815  1.4016 -0.1068
  154SAPE   H5Y17142   0.855   6.702   7.216 -1.2487  2.2999 -0.2195
  154SAPE   C3617143   0.906   6.779   7.426  0.1292  0.0705 -0.3311
  154SAPE   H6X17144   0.822   6.852   7.420 -2.1826 -2.5069 -0.1681
  154SAPE   H6Y17145   0.994   6.828   7.473 -0.3127  0.2977  0.2648
  154SAPE   C3717146   0.883   6.661   7.512  0.4668 -0.2237  1.3021
  154SAPE   H7X17147   0.963   6.586   7.500  0.7026  0.6544 -3.6060
  154SAPE   H7Y17148   0.785   6.615   7.486 -0.1742  1.3446  0.8981
  154SAPE   C3817149   0.877   6.695   7.664 -0.6647 -0.7294  0.1221
  154SAPE   H8X17150   0.822   6.790   7.684 -0.0312 -0.0357 -1.4257
  154SAPE   H8Y17151   0.976   6.720   7.709 -0.8461  0.0037  0.1284
  154SAPE   C3917152   0.807   6.585   7.744 -0.1796 -0.2386 -0.8738
  154SAPE   H9X17153   0.844   6.483   7.724 -1.2223 -1.0504  1.1719
  154SAPE   H9Y17154   0.702   6.586   7.707 -0.7715  0.0591  0.7803
  154SAPE  C31017155   0.801   6.619   7.891 -0.0151  0.1035  0.1605
  154SAPE  H10X17156   0.703   6.663   7.919 -0.1636 -1.8838  2.9462
  154SAPE  H10Y17157   0.877   6.697   7.913  0.1815  0.0065 -0.1745
  154SAPE  C31117158   0.851   6.517   7.997  0.4444  0.9889 -0.5122
  154SAPE  H11X17159   0.960   6.502   7.979  0.1456 -1.0470 -0.7153
  154SAPE  H11Y17160   0.792   6.423   7.988  0.6373  0.7952  0.2075
  154SAPE  C31217161   0.842   6.570   8.143  0.5231 -0.2135 -0.3046
  154SAPE  H12X17162   0.733   6.571   8.165  0.4165 -2.3262 -0.6402
  154SAPE  H12Y17163   0.876   6.675   8.138 -1.0602  0.4352  1.7364
  154SAPE  C31317164   0.924   6.499   8.250 -0.6300  0.1911  0.0809
  154SAPE  H13X17165   1.029   6.504   8.215 -0.5134 -1.5665  0.1761
  154SAPE  H13Y17166   0.902   6.391   8.249 -0.6373  0.1867  0.4412
  154SAPE  C31417167   0.900   6.550   8.396 -0.2714 -0.1440  0.2055
  154SAPE  H14X17168   0.960   6.504   8.477 -0.0037  0.9337  0.6232
  154SAPE  H14Y17169   0.793   6.540   8.426 -0.2831 -0.6010  0.0217
  154SAPE  C31517170   0.910   6.709   8.409 -0.4477 -0.3526  0.5623
  154SAPE  H15X17171   0.891   6.731   8.516  3.1105  0.8113  0.9953
  154SAPE  H15Y17172   0.829   6.763   8.355 -0.9532 -1.1609  0.5049
  154SAPE  C31617173   1.048   6.775   8.362  0.2522 -0.0345 -0.3393
  154SAPE  H16X17174   1.050   6.884   8.385 -0.1397 -0.1529  0.2784
  154SAPE  H16Y17175   1.068   6.770   8.253 -2.2578  1.4609 -0.9053
  154SAPE  C31717176   1.159   6.704   8.443 -0.7167  0.1692  0.5778
  154SAPE  H17X17177   1.182   6.605   8.400  0.0939 -0.2500  1.9460
  154SAPE  H17Y17178   1.127   6.701   8.549 -2.5623 -1.3978 -0.0164
  154SAPE  C31817179   1.290   6.785   8.434  0.6504 -0.0308  0.6887
  154SAPE  H18X17180   1.350   6.757   8.345  2.0331 -0.5072  1.7661
  154SAPE  H18Y17181   1.363   6.750   8.510 -1.2947 -1.0244  2.1530
  154SAPE  H18Z17182   1.280   6.894   8.448 -1.1717 -0.3043  1.7781
  155SAPE     N17183   1.837   0.941   6.291 -0.4163 -0.8565  0.0272
  155SAPE   HN117184   1.747   0.988   6.269 -1.3811 -2.2400  0.9083
  155SAPE   HN217185   1.853   0.885   6.205  0.5971  1.4493 -1.3470
  155SAPE   HN317186   1.828   0.886   6.379  2.1368 -0.1890  0.7603
  155SAPE   C1217187   1.966   1.019   6.304  0.5825  0.3215 -0.0346
  155SAPE  H12A17188   2.004   1.037   6.201  0.1236  1.9172  0.0598
  155SAPE  H12B17189   2.040   0.958   6.360  0.7810 -0.5349 -1.1922
  155SAPE   C1117190   1.935   1.154   6.365 -0.5942 -0.1388  0.7687
  155SAPE  H11A17191   2.033   1.204   6.353 -0.2964  0.0029  3.3920
  155SAPE  H11B17192   1.916   1.132   6.473  0.7031 -0.4429  0.9355
  155SAPE     P17193   1.784   1.355   6.301 -0.3689 -0.1999 -0.1252
  155SAPE   O1317194   1.907   1.427   6.279 -0.7215  0.2686  0.0479
  155SAPE   O1417195   1.684   1.387   6.197  0.1021 -0.7940 -0.0479
  155SAPE   O1217196   1.816   1.199   6.300  0.0373  0.3119 -0.1935
  155SAPE   O1117197   1.740   1.408   6.447 -0.4643  0.3737  0.1856
  155SAPE    C117198   1.646   1.328   6.516  0.1317 -0.5347 -1.0813
  155SAPE    HA17199   1.560   1.322   6.446  0.9397 -0.5118 -2.0869
  155SAPE    HB17200   1.682   1.227   6.544 -1.4686 -0.1388  2.5797
  155SAPE    C217201   1.603   1.397   6.646  0.5289 -0.9669  0.9038
  155SAPE    HS17202   1.573   1.502   6.622  2.0139 -0.6616  0.3321
  155SAPE   O2117203   1.713   1.387   6.734 -0.2854 -0.1128  0.2133
  155SAPE   C2117204   1.734   1.491   6.811 -0.9776 -0.9336 -0.0870
  155SAPE   O2217205   1.691   1.604   6.783  0.0143  0.4094  0.2454
  155SAPE   C2217206   1.823   1.443   6.921  0.0774 -0.4992 -0.2069
  155SAPE   H2R17207   1.800   1.334   6.931 -1.9307 -0.0376  0.4061
  155SAPE   H2S17208   1.927   1.453   6.884  0.5376  2.4245  1.7175
  155SAPE    C317209   1.474   1.334   6.706  0.2089 -0.7929  0.2628
  155SAPE    HX17210   1.497   1.227   6.725 -0.8486 -0.9716  0.5329
  155SAPE    HY17211   1.398   1.335   6.625  0.4491 -0.4881  0.0398
  155SAPE   O3117212   1.419   1.409   6.815 -0.0910 -0.1685  0.5381
  155SAPE   C3117213   1.442   1.348   6.927  0.0027  0.7532  0.1365
  155SAPE   O3217214   1.486   1.237   6.949  0.0199 -0.2214 -0.0719
  155SAPE   C3217215   1.394   1.445   7.040 -0.0081  0.2490  0.6232
  155SAPE   H2X17216   1.288   1.475   7.025 -0.4697 -0.3672  2.4573
  155SAPE   H2Y17217   1.465   1.531   7.044 -1.4533  1.4231  2.0281
  155SAPE   C2317218   1.818   1.517   7.058 -0.9638 -0.1672 -0.0790
  155SAPE   H3R17219   1.713   1.548   7.075 -0.5215  2.0239 -1.2171
  155SAPE   H3S17220   1.889   1.602   7.065  1.3665 -1.8843 -1.8375
  155SAPE   C2417221   1.832   1.419   7.182 -0.0012  0.4953 -0.1455
  155SAPE   H4R17222   1.763   1.337   7.153  0.0511 -0.2234  1.7049
  155SAPE   H4S17223   1.800   1.490   7.261 -2.5305  0.1221 -0.7861
  155SAPE   C2517224   1.966   1.360   7.212  0.0700 -0.7587 -0.8413
  155SAPE   H5R17225   2.025   1.319   7.128  1.7089 -2.1772  0.9517
  155SAPE   C2617226   2.019   1.357   7.333  0.2971 -0.0440  0.1936
  155SAPE   H6R17227   2.120   1.317   7.347  1.1555  1.5888 -1.1286
  155SAPE   C2717228   1.965   1.411   7.459  0.3881  0.8726  0.0826
  155SAPE   H7R17229   1.878   1.479   7.451  0.6296  1.2252  0.3902
  155SAPE   H7S17230   2.039   1.469   7.519 -0.1770  0.3897  1.2748
  155SAPE   C2817231   1.933   1.289   7.538 -0.8543  0.0402 -0.9650
  155SAPE   H8R17232   1.884   1.214   7.475 -1.2512  1.3943 -2.3074
  155SAPE   C2917233   1.955   1.256   7.670  0.2975  0.3481 -0.1220
  155SAPE   H9R17234   1.907   1.163   7.706 -0.7666  0.8057 -0.3369
  155SAPE  C21017235   2.027   1.349   7.765  0.6138  0.0401 -0.5819
  155SAPE  H10R17236   2.120   1.388   7.718  0.1680 -0.0091 -1.5209
  155SAPE  H10S17237   2.055   1.286   7.852 -2.2614  1.5220  1.4852
  155SAPE  C21117238   1.934   1.462   7.807  0.5070 -0.1878 -0.1020
  155SAPE  H11R17239   1.868   1.507   7.732  0.9975  2.5248  1.0361
  155SAPE  C21217240   1.936   1.518   7.925  0.3809 -0.1156 -0.3249
  155SAPE  H12R17241   1.872   1.602   7.954  3.1686  2.6401 -1.8753
  155SAPE  C21317242   2.036   1.489   8.040 -0.4562 -0.1323  0.1751
  155SAPE  H13R17243   2.126   1.440   7.997 -0.9180 -0.1653 -0.7772
  155SAPE  H13S17244   1.992   1.424   8.118 -0.0696 -1.4396 -0.6742
  155SAPE  C21417245   2.074   1.621   8.106 -0.1404  0.0044  0.1099
  155SAPE  H14R17246   2.173   1.663   8.081 -0.8883  1.4882 -0.3629
  155SAPE  C21517247   1.996   1.681   8.197  0.5848 -0.2918  0.1141
  155SAPE  H15R17248   2.022   1.784   8.224 -2.1853  0.4347  0.1579
  155SAPE  C21617249   1.854   1.635   8.253  0.1417 -0.4750  0.3179
  155SAPE  H16R17250   1.807   1.555   8.193  1.0626 -1.7197  1.2244
  155SAPE  H16S17251   1.784   1.721   8.256 -4.0990 -3.6951 -2.4016
  155SAPE  C21717252   1.870   1.586   8.401 -0.4310  0.5003  0.1018
  155SAPE  H17R17253   1.769   1.585   8.448  0.2711  0.6160  1.6305
  155SAPE  H17S17254   1.941   1.654   8.453  2.5811 -2.1898 -0.4012
  155SAPE  C21817255   1.935   1.443   8.417 -0.6955  0.2888  0.5747
  155SAPE  H18R17256   2.030   1.431   8.362 -0.4980  1.9323  0.5210
  155SAPE  H18S17257   1.871   1.388   8.345 -0.2268  0.6139 -0.0950
  155SAPE  C21917258   1.957   1.380   8.553  0.9236  0.1370 -0.4955
  155SAPE  H19R17259   2.034   1.413   8.626  1.3598  0.3034 -1.0259
  155SAPE  H19S17260   2.011   1.284   8.537  0.7483 -0.0124 -0.2003
  155SAPE  C22017261   1.825   1.351   8.635 -0.7184 -0.1685 -0.5836
  155SAPE  H20R17262   1.758   1.295   8.567 -0.7140  1.2374 -1.7586
  155SAPE  H20S17263   1.780   1.446   8.671 -0.2266 -0.2821  0.3574
  155SAPE  H20T17264   1.852   1.285   8.721  0.8598  1.3075  0.1010
  155SAPE   C3317265   1.410   1.370   7.174  0.4503  0.5232 -0.7629
  155SAPE   H3X17266   1.519   1.347   7.177  0.6252  1.5017  1.7181
  155SAPE   H3Y17267   1.360   1.272   7.171  1.2915  0.1042 -1.3663
  155SAPE   C3417268   1.369   1.463   7.288  0.6958 -0.0992 -0.4479
  155SAPE   H4X17269   1.259   1.468   7.273  0.7363  1.2849 -0.4112
  155SAPE   H4Y17270   1.412   1.566   7.289 -1.6213  0.9275  2.2581
  155SAPE   C3517271   1.392   1.405   7.431  0.3245  0.1481  0.1513
  155SAPE   H5X17272   1.355   1.300   7.432 -1.5700  0.7718 -0.9516
  155SAPE   H5Y17273   1.334   1.456   7.511  0.9132 -2.0853  2.0640
  155SAPE   C3617274   1.539   1.413   7.476  0.4733  0.0537  0.2515
  155SAPE   H6X17275   1.587   1.509   7.448  1.5260 -0.9998 -1.6496
  155SAPE   H6Y17276   1.598   1.334   7.425  2.0589  0.5794  1.2323
  155SAPE   C3717277   1.558   1.405   7.629 -0.0693 -0.6231  0.1223
  155SAPE   H7X17278   1.497   1.489   7.669  1.2943  0.8980 -0.9238
  155SAPE   H7Y17279   1.665   1.433   7.641  0.5566 -2.9918  0.4360
  155SAPE   C3817280   1.545   1.260   7.687  0.2354  0.3464  0.3866
  155SAPE   H8X17281   1.630   1.195   7.658  0.9457  1.2106  0.5277
  155SAPE   H8Y17282   1.444   1.217   7.668  1.2067 -0.9898 -1.9274
  155SAPE   C3917283   1.575   1.266   7.846  0.1817  0.0408  0.3196
  155SAPE   H9X17284   1.673   1.319   7.851 -1.1642  2.5015  1.0634
  155SAPE   H9Y17285   1.602   1.167   7.889  2.3177 -0.1787 -1.4113
  155SAPE  C31017286   1.462   1.330   7.925  0.4407 -0.5046 -0.1466
  155SAPE  H10X17287   1.371   1.267   7.920 -0.6530  1.1596 -2.3869
  155SAPE  H10Y17288   1.429   1.429   7.886 -1.2240  0.0495  2.5758
  155SAPE  C31117289   1.496   1.348   8.071 -0.3338 -0.3993 -0.0691
  155SAPE  H11X17290   1.427   1.414   8.129  0.4210 -1.4896  2.1458
  155SAPE  H11Y17291   1.599   1.390   8.079 -0.7259  0.8231 -1.3292
  155SAPE  C31217292   1.519   1.217   8.156  0.5392  0.4844 -1.3217
  155SAPE  H12X17293   1.549   1.253   8.257 -0.5920 -1.7292 -0.1423
  155SAPE  H12Y17294   1.600   1.157   8.112  0.8296 -1.5071  1.7710
  155SAPE  C31317295   1.404   1.130   8.185 -0.0861  0.3656 -0.7661
  155SAPE  H13X17296   1.378   1.080   8.089 -1.8892  1.3839 -0.8219
  155SAPE  H13Y17297   1.318   1.192   8.219 -1.2917  0.0139 -3.0629
  155SAPE  C31417298   1.438   1.020   8.280 -0.5944 -0.2040  0.1564
  155SAPE  H14X17299   1.541   0.979   8.272 -1.3139 -2.1542  0.6417
  155SAPE  H14Y17300   1.381   0.927   8.262  0.7143 -0.9246 -0.3439
  155SAPE  C31517301   1.436   1.057   8.428 -0.2137 -0.4244 -0.6309
  155SAPE  H15X17302   1.342   1.114   8.445  0.9886  1.7445 -1.1912
  155SAPE  H15Y17303   1.516   1.133   8.440 -1.3420  0.9421 -1.5936
  155SAPE  C31617304   1.449   0.938   8.526 -0.1622  0.1229 -0.1645
  155SAPE  H16X17305   1.543   0.878   8.519  0.4781  1.0012  0.6573
  155SAPE  H16Y17306   1.373   0.862   8.498  0.1389  0.3809 -1.7311
  155SAPE  C31717307   1.434   0.976   8.676 -0.5214  0.1900  0.1495
  155SAPE  H17X17308   1.343   1.039   8.682  0.5166  1.8095 -0.8867
  155SAPE  H17Y17309   1.519   1.043   8.700 -0.1884 -0.0438 -0.3679
  155SAPE  C31817310   1.406   0.854   8.764  0.1473  0.5371 -0.4289
  155SAPE  H18X17311   1.408   0.880   8.872  0.3001 -0.3714 -0.2086
  155SAPE  H18Y17312   1.488   0.780   8.759 -0.3272  0.0737 -1.8492
  155SAPE  H18Z17313   1.314   0.800   8.732  0.3816  0.6126 -1.2616
  156SAPE     N17314   6.417   2.017   6.677  0.1444  0.2226 -0.1276
  156SAPE   HN117315   6.434   2.110   6.719 -2.6526 -0.1922  2.0830
  156SAPE   HN217316   6.328   1.973   6.710 -0.2152  0.0308 -1.3100
  156SAPE   HN317317   6.490   1.947   6.698 -2.5065 -2.0322  1.8990
  156SAPE   C1217318   6.409   2.043   6.532  0.2384  0.1926 -0.2767
  156SAPE  H12A17319   6.323   2.113   6.518 -0.7247 -0.9199  0.0682
  156SAPE  H12B17320   6.380   1.944   6.491 -0.3453 -0.1084  0.8359
  156SAPE   C1117321   6.544   2.091   6.480  0.4115 -0.0945  0.4717
  156SAPE  H11A17322   6.562   2.181   6.543 -0.5761  0.3099  0.1851
  156SAPE  H11B17323   6.539   2.122   6.373  1.9709  0.0379  0.4188
  156SAPE     P17324   6.673   1.874   6.439  0.2642  0.0220 -0.1773
  156SAPE   O1317325   6.660   1.914   6.296 -1.3518 -0.2058 -0.1062
  156SAPE   O1417326   6.800   1.808   6.472 -0.4538 -0.0650 -0.4978
  156SAPE   O1217327   6.654   2.008   6.516 -0.0601  0.1073  0.4635
  156SAPE   O1117328   6.548   1.793   6.484  0.8156 -0.1449 -0.3507
  156SAPE    C117329   6.540   1.645   6.479  0.4611  0.4909 -0.1145
  156SAPE    HA17330   6.444   1.620   6.428 -1.1733  1.6979  2.3054
  156SAPE    HB17331   6.629   1.590   6.441 -0.1856 -2.7826  2.8783
  156SAPE    C217332   6.527   1.589   6.618 -0.0871 -0.2148 -0.8227
  156SAPE    HS17333   6.444   1.644   6.666  1.9943  0.4913  2.1199
  156SAPE   O2117334   6.644   1.614   6.698  0.2492  0.4536  0.1799
  156SAPE   C2117335   6.650   1.725   6.769  0.5455  0.4252 -0.3203
  156SAPE   O2217336   6.568   1.812   6.776  0.1771 -0.1001 -1.2026
  156SAPE   C2217337   6.797   1.729   6.820 -0.1189 -0.3471 -0.5503
  156SAPE   H2R17338   6.827   1.627   6.854  0.2149  0.2755  1.0725
  156SAPE   H2S17339   6.848   1.757   6.726  1.0684  0.6696  0.3801
  156SAPE    C317340   6.500   1.436   6.616  0.1789  0.0871 -0.0959
  156SAPE    HX17341   6.578   1.394   6.549  2.4514 -0.6347  2.9291
  156SAPE    HY17342   6.405   1.416   6.561 -1.3133 -0.5072  2.5932
  156SAPE   O3117343   6.488   1.382   6.751 -0.1861 -0.6122  0.0839
  156SAPE   C3117344   6.503   1.251   6.765 -0.5792  0.0648 -0.1205
  156SAPE   O3217345   6.524   1.170   6.679  0.2669 -0.1675 -0.1411
  156SAPE   C3217346   6.484   1.221   6.913 -0.0033 -0.4026  0.2766
  156SAPE   H2X17347   6.458   1.312   6.971  2.9126  0.0876  0.9149
  156SAPE   H2Y17348   6.582   1.186   6.952  0.4635  1.6428  0.9910
  156SAPE   C2317349   6.835   1.842   6.927 -0.6850  0.8906 -0.5469
  156SAPE   H3R17350   6.781   1.936   6.905 -2.2286  0.4252  1.1137
  156SAPE   H3S17351   6.943   1.852   6.905 -0.4171 -0.2785  0.1942
  156SAPE   C2417352   6.827   1.798   7.076  0.2551  0.5037  0.6090
  156SAPE   H4R17353   6.895   1.711   7.086 -1.2695 -0.7613  0.2502
  156SAPE   H4S17354   6.723   1.773   7.106 -0.0416 -0.7245 -1.3252
  156SAPE   C2517355   6.892   1.906   7.167 -0.5616 -0.1159 -0.2186
  156SAPE   H5R17356   6.932   1.991   7.110 -2.4859  0.0560 -1.3432
  156SAPE   C2617357   6.882   1.920   7.302  0.3103 -0.3701  1.1355
  156SAPE   H6R17358   6.936   1.998   7.358  0.5013 -1.0511  1.9124
  156SAPE   C2717359   6.809   1.815   7.382  0.0330  0.4534  0.4775
  156SAPE   H7R17360   6.879   1.768   7.453  2.8829 -0.4322 -2.7499
  156SAPE   H7S17361   6.776   1.725   7.326 -1.0418  1.6359 -0.8320
  156SAPE   C2817362   6.700   1.869   7.468 -0.3474 -0.5184 -0.3581
  156SAPE   H8R17363   6.651   1.962   7.438  0.1462 -0.3405 -0.6166
  156SAPE   C2917364   6.655   1.809   7.583 -0.8639  0.3249 -0.7009
  156SAPE   H9R17365   6.573   1.862   7.633 -0.3249 -0.7450  1.3620
  156SAPE  C21017366   6.710   1.690   7.646  1.0481  0.0177  0.1690
  156SAPE  H10R17367   6.806   1.729   7.685 -0.6470  2.2303  2.3230
  156SAPE  H10S17368   6.728   1.607   7.574 -1.6183 -0.3148 -0.1889
  156SAPE  C21117369   6.627   1.637   7.762  0.1049  0.1499 -0.4018
  156SAPE  H11R17370   6.588   1.535   7.748  0.6502  0.2406 -2.8389
  156SAPE  C21217371   6.614   1.686   7.882  0.5646 -0.1985 -0.2514
  156SAPE  H12R17372   6.555   1.630   7.956  0.4659  1.2090  0.7408
  156SAPE  C21317373   6.678   1.815   7.927 -0.5028  0.3034  0.0809
  156SAPE  H13R17374   6.675   1.892   7.847  0.1494  0.0156 -0.2237
  156SAPE  H13S17375   6.787   1.801   7.941 -0.1548  1.7176 -1.1220
  156SAPE  C21417376   6.616   1.885   8.043  0.5569  0.1868 -0.4257
  156SAPE  H14R17377   6.564   1.979   8.023  0.4552  0.1790 -0.2004
  156SAPE  C21517378   6.636   1.854   8.172 -0.0737 -0.3006  0.0383
  156SAPE  H15R17379   6.587   1.909   8.254 -0.2246 -0.1433 -0.1574
  156SAPE  C21617380   6.723   1.738   8.227  0.5202 -0.5700  0.0316
  156SAPE  H16R17381   6.803   1.788   8.286 -2.3189  1.7491  2.0670
  156SAPE  H16S17382   6.767   1.675   8.146 -1.3192 -1.5783 -0.2124
  156SAPE  C21717383   6.636   1.651   8.316 -0.2308  0.5165 -0.3044
  156SAPE  H17R17384   6.632   1.713   8.409  0.3854  1.2131 -0.7388
  156SAPE  H17S17385   6.687   1.553   8.333  0.5325  0.6485 -1.7990
  156SAPE  C21817386   6.502   1.606   8.255 -0.1525 -0.5620 -0.3549
  156SAPE  H18R17387   6.518   1.544   8.164 -0.8574 -1.1699 -0.0705
  156SAPE  H18S17388   6.440   1.693   8.225 -0.5055 -0.5918  0.2777
  156SAPE  C21917389   6.421   1.522   8.346  0.7158 -0.1074  0.3726
  156SAPE  H19R17390   6.427   1.573   8.445  1.4212 -0.2356  0.3955
  156SAPE  H19S17391   6.457   1.418   8.360  0.0463 -0.5408 -1.0340
  156SAPE  C22017392   6.276   1.514   8.299  0.2667  0.5306 -0.2741
  156SAPE  H20R17393   6.245   1.616   8.266  2.9292  0.5498 -2.9071
  156SAPE  H20S17394   6.207   1.461   8.367  1.7870 -0.7890  0.2741
  156SAPE  H20T17395   6.277   1.459   8.203 -0.0240  3.2916 -1.9378
  156SAPE   C3317396   6.374   1.116   6.928 -0.3203 -0.3600  1.0641
  156SAPE   H3X17397   6.403   1.033   6.860  0.2110 -0.0169  0.8746
  156SAPE   H3Y17398   6.277   1.163   6.900  0.4158  0.4783 -0.1523
  156SAPE   C3417399   6.363   1.062   7.069  0.3011 -0.2738  0.0559
  156SAPE   H4X17400   6.464   1.018   7.089  0.0358 -0.5886  0.7290
  156SAPE   H4Y17401   6.281   0.989   7.083  0.4439 -0.2917  0.8197
  156SAPE   C3517402   6.332   1.161   7.184 -0.1265  0.2584  0.5025
  156SAPE   H5X17403   6.240   1.221   7.169 -0.2833 -0.3291 -0.9143
  156SAPE   H5Y17404   6.428   1.216   7.196  2.2640 -3.6743  0.4856
  156SAPE   C3617405   6.316   1.097   7.326  0.3097 -0.3963  0.0729
  156SAPE   H6X17406   6.402   1.026   7.334  1.4676  1.0935  1.1987
  156SAPE   H6Y17407   6.222   1.038   7.320  1.3676 -2.0453 -0.8137
  156SAPE   C3717408   6.318   1.200   7.435  1.0151 -0.2745 -0.5682
  156SAPE   H7X17409   6.220   1.253   7.441  2.3514  2.0756  1.3901
  156SAPE   H7Y17410   6.393   1.280   7.420 -0.5703  0.7425 -3.4503
  156SAPE   C3817411   6.335   1.129   7.567 -0.8273 -0.2053  0.0407
  156SAPE   H8X17412   6.429   1.069   7.561  0.2141  1.2614  1.3415
  156SAPE   H8Y17413   6.252   1.056   7.582 -1.6215  0.2267 -2.1150
  156SAPE   C3917414   6.349   1.220   7.689 -0.1598 -0.2095  0.0861
  156SAPE   H9X17415   6.294   1.316   7.678  0.9618  0.3643 -0.7138
  156SAPE   H9Y17416   6.456   1.246   7.706 -0.5407  2.3873 -1.1428
  156SAPE  C31017417   6.299   1.158   7.822  0.3295 -0.2404  0.2999
  156SAPE  H10X17418   6.371   1.079   7.850  2.0123  0.7856 -1.0645
  156SAPE  H10Y17419   6.203   1.104   7.804  2.0964 -2.7626 -1.8794
  156SAPE  C31117420   6.290   1.273   7.930 -0.5063  0.4210 -0.7169
  156SAPE  H11X17421   6.236   1.359   7.886  1.8630  2.5021  0.3260
  156SAPE  H11Y17422   6.394   1.307   7.949 -0.4926 -0.4963  0.9208
  156SAPE  C31217423   6.232   1.213   8.061 -0.4925  0.8030 -0.2893
  156SAPE  H12X17424   6.152   1.137   8.050  0.0281  0.0048  1.3793
  156SAPE  H12Y17425   6.176   1.294   8.112 -0.5720  1.0030 -0.6900
  156SAPE  C31317426   6.338   1.152   8.156 -0.0430  0.7045 -0.0144
  156SAPE  H13X17427   6.413   1.227   8.191 -1.3375  1.6643  0.7440
  156SAPE  H13Y17428   6.399   1.086   8.091 -0.6540  2.5583 -2.5154
  156SAPE  C31417429   6.272   1.071   8.275 -0.3353 -0.5535  0.4107
  156SAPE  H14X17430   6.197   1.006   8.225  0.4990 -0.9766 -0.2939
  156SAPE  H14Y17431   6.223   1.155   8.328  2.3418  0.5440  1.2066
  156SAPE  C31517432   6.372   1.001   8.366  0.4330  0.2236  0.2555
  156SAPE  H15X17433   6.433   1.079   8.417 -2.1086  2.1828  0.4095
  156SAPE  H15Y17434   6.427   0.932   8.299  0.0971 -0.2530  0.4750
  156SAPE  C31617435   6.307   0.919   8.483  0.2540 -0.8709  0.1944
  156SAPE  H16X17436   6.278   0.815   8.457 -0.8460 -0.7726  0.9589
  156SAPE  H16Y17437   6.210   0.971   8.500  0.4721 -0.2151 -0.5672
  156SAPE  C31717438   6.382   0.926   8.620  0.1521  0.2951  0.4755
  156SAPE  H17X17439   6.326   0.856   8.686  0.6400 -1.6698 -1.1403
  156SAPE  H17Y17440   6.375   1.034   8.643  0.4538  0.6449 -1.0261
  156SAPE  C31817441   6.534   0.884   8.617 -0.4075  0.6558 -0.5806
  156SAPE  H18X17442   6.579   0.867   8.717  2.1093  2.4744 -1.3635
  156SAPE  H18Y17443   6.600   0.951   8.559  4.5844 -3.4914 -0.1006
  156SAPE  H18Z17444   6.541   0.783   8.571 -4.6117  0.7950 -1.7859
  157SAPE     N17445   4.202   3.612   6.084 -0.3788 -0.3133  0.1646
  157SAPE   HN117446   4.174   3.575   5.991 -1.0328  1.0289 -0.1829
  157SAPE   HN217447   4.157   3.705   6.097 -0.3165 -0.0479 -1.4116
  157SAPE   HN317448   4.305   3.618   6.097  0.0141 -1.2431 -2.2893
  157SAPE   C1217449   4.142   3.519   6.189  0.1070 -0.4347  0.7298
  157SAPE  H12A17450   4.192   3.420   6.185 -0.4163 -0.6479 -0.8472
  157SAPE  H12B17451   4.034   3.511   6.166 -0.1339 -0.2498  1.8049
  157SAPE   C1117452   4.173   3.580   6.320 -0.2670  0.2121 -0.1737
  157SAPE  H11A17453   4.283   3.596   6.328  0.1849 -3.4857  1.6856
  157SAPE  H11B17454   4.137   3.516   6.403  1.1637  0.0460  0.3243
  157SAPE     P17455   3.975   3.745   6.366 -0.7728 -0.0617  0.2462
  157SAPE   O1317456   3.959   3.883   6.399  0.6069 -0.2950 -0.6405
  157SAPE   O1417457   3.885   3.683   6.268  0.7226  0.1922  0.4437
  157SAPE   O1217458   4.120   3.713   6.317 -0.0431 -0.1926 -0.2341
  157SAPE   O1117459   3.972   3.653   6.493 -0.5183  0.1077 -0.6660
  157SAPE    C117460   4.039   3.682   6.616  0.2355  0.4493  0.6692
  157SAPE    HA17461   4.055   3.588   6.672  0.7714 -0.6339 -1.2495
  157SAPE    HB17462   4.132   3.742   6.608 -0.1491  1.0350  0.5309
  157SAPE    C217463   3.951   3.764   6.710  0.6338  0.2018 -0.0250
  157SAPE    HS17464   3.943   3.871   6.681  2.5097 -0.0088 -1.3881
  157SAPE   O2117465   4.021   3.762   6.833 -0.6702  0.2764 -0.0481
  157SAPE   C2117466   4.011   3.873   6.905  0.1396 -0.0130 -0.4824
  157SAPE   O2217467   3.980   3.981   6.866 -0.5081  0.1224  0.1871
  157SAPE   C2217468   4.060   3.852   7.051  0.5204  0.6472  0.4870
  157SAPE   H2R17469   3.993   3.779   7.102 -0.1959  0.2381 -1.0076
  157SAPE   H2S17470   4.157   3.804   7.028 -1.5442 -2.5500 -2.1201
  157SAPE    C317471   3.811   3.707   6.737  0.5050 -0.1042  0.9968
  157SAPE    HX17472   3.839   3.602   6.759 -0.7888 -0.1901  2.3761
  157SAPE    HY17473   3.763   3.717   6.637  0.7473  0.8869  0.9767
  157SAPE   O3117474   3.748   3.779   6.845  0.0134  0.0048 -0.2253
  157SAPE   C3117475   3.613   3.768   6.834 -0.5818 -0.7303 -0.0255
  157SAPE   O3217476   3.556   3.680   6.771 -0.3845 -0.3712  0.5492
  157SAPE   C3217477   3.557   3.892   6.906 -0.4634  0.3912 -0.3969
  157SAPE   H2X17478   3.453   3.913   6.871 -1.1924 -1.0843  0.8162
  157SAPE   H2Y17479   3.624   3.977   6.882  0.1754  0.4107  1.3670
  157SAPE   C2317480   4.077   3.983   7.141  0.3921  0.2913  0.2239
  157SAPE   H3R17481   3.974   4.020   7.161 -0.1945 -0.7582 -0.7816
  157SAPE   H3S17482   4.134   4.056   7.080 -2.0946  1.9361 -0.2377
  157SAPE   C2417483   4.145   3.941   7.272 -0.6883  0.7752 -0.2170
  157SAPE   H4R17484   4.192   4.032   7.316  1.2998  0.2189 -1.1524
  157SAPE   H4S17485   4.230   3.870   7.261 -0.6181  0.3177  2.8259
  157SAPE   C2517486   4.058   3.857   7.359 -0.4336 -0.3278  0.7985
  157SAPE   H5R17487   3.992   3.788   7.304  1.8941 -2.2385  0.3400
  157SAPE   C2617488   4.034   3.884   7.488 -0.1972  0.0409 -0.3755
  157SAPE   H6R17489   3.975   3.809   7.542  1.7074 -1.3298 -0.1573
  157SAPE   C2717490   4.087   3.991   7.579  0.4946  0.2464 -0.3135
  157SAPE   H7R17491   4.012   4.015   7.657  0.1210 -1.2097 -0.2120
  157SAPE   H7S17492   4.113   4.081   7.520  0.1696 -0.0578 -0.9270
  157SAPE   C2817493   4.222   3.944   7.630 -0.4936  0.2854  0.3063
  157SAPE   H8R17494   4.310   3.957   7.566  0.5666 -0.4723  1.5923
  157SAPE   C2917495   4.241   3.887   7.753  0.1882 -0.3053  0.8584
  157SAPE   H9R17496   4.343   3.854   7.775  1.0054  1.2280 -0.4818
  157SAPE  C21017497   4.131   3.863   7.853 -0.1319  0.4555 -0.1644
  157SAPE  H10R17498   4.142   3.764   7.903  1.5134 -0.2407 -1.8288
  157SAPE  H10S17499   4.030   3.870   7.808 -0.8763  0.4396  1.4709
  157SAPE  C21117500   4.138   3.971   7.958  0.0622  0.2889  0.5548
  157SAPE  H11R17501   4.086   4.062   7.928  3.0612  1.8867 -0.0519
  157SAPE  C21217502   4.212   3.976   8.074  0.6323  0.1340 -0.2602
  157SAPE  H12R17503   4.195   4.062   8.140 -0.1277 -0.0506 -0.2079
  157SAPE  C21317504   4.303   3.863   8.126 -0.4246 -0.0668 -0.0473
  157SAPE  H13R17505   4.345   3.799   8.045  2.3758  2.3854 -0.6141
  157SAPE  H13S17506   4.235   3.790   8.175 -1.6690 -0.0781 -1.7305
  157SAPE  C21417507   4.409   3.915   8.217  0.5340  0.0289  0.1908
  157SAPE  H14R17508   4.470   3.995   8.173 -0.8578  0.7880 -0.3732
  157SAPE  C21517509   4.423   3.885   8.348  0.7847  0.0224  0.0738
  157SAPE  H15R17510   4.514   3.921   8.398  2.3878 -2.7853 -0.7221
  157SAPE  C21617511   4.325   3.796   8.429 -0.0746  0.1722  0.1552
  157SAPE  H16R17512   4.369   3.694   8.437 -1.4616 -0.5025 -0.5661
  157SAPE  H16S17513   4.232   3.773   8.372  1.3406 -3.5393 -0.8443
  157SAPE  C21717514   4.277   3.854   8.569 -0.0363  0.1773 -0.1572
  157SAPE  H17R17515   4.194   3.793   8.609 -1.3702  1.3688 -1.0547
  157SAPE  H17S17516   4.236   3.957   8.564  0.1553  0.2641  0.0596
  157SAPE  C21817517   4.387   3.860   8.677 -0.4231  0.1615 -0.4091
  157SAPE  H18R17518   4.353   3.913   8.769  2.3019  1.4075 -0.0711
  157SAPE  H18S17519   4.476   3.917   8.642 -0.1759 -0.1677 -0.3213
  157SAPE  C21917520   4.448   3.729   8.716  0.6879  0.8441  0.2853
  157SAPE  H19R17521   4.514   3.690   8.636  1.9564  0.1489  1.6477
  157SAPE  H19S17522   4.373   3.650   8.738  1.0035  0.2309 -0.7954
  157SAPE  C22017523   4.536   3.735   8.835 -0.5821 -0.4574 -0.0458
  157SAPE  H20R17524   4.479   3.785   8.916 -1.8865 -1.9157 -0.0279
  157SAPE  H20S17525   4.611   3.815   8.815 -0.6173 -0.5032 -0.3533
  157SAPE  H20T17526   4.585   3.640   8.866 -0.9451 -0.1343  1.5755
  157SAPE   C3317527   3.549   3.860   7.061 -0.3273 -0.8853 -0.1049
  157SAPE   H3X17528   3.497   3.762   7.067 -0.5084 -0.7672  0.2506
  157SAPE   H3Y17529   3.492   3.932   7.123  1.6541  1.1976 -0.6295
  157SAPE   C3417530   3.679   3.841   7.131 -0.1756 -0.9670 -0.4905
  157SAPE   H4X17531   3.735   3.928   7.091  0.6027 -2.4457 -2.6717
  157SAPE   H4Y17532   3.736   3.751   7.098 -0.7281 -1.1878 -0.8380
  157SAPE   C3517533   3.659   3.853   7.288 -0.0205 -0.3810  0.5598
  157SAPE   H5X17534   3.562   3.907   7.294  0.9470  1.9066 -3.0866
  157SAPE   H5Y17535   3.732   3.921   7.335 -0.1491 -1.1515  1.9037
  157SAPE   C3617536   3.676   3.719   7.366 -0.0150  0.2788  0.3368
  157SAPE   H6X17537   3.779   3.682   7.384  0.0044  0.7323  1.2023
  157SAPE   H6Y17538   3.632   3.638   7.305  1.4802 -0.4178  0.1502
  157SAPE   C3717539   3.619   3.733   7.505 -0.1004  0.6245  0.2509
  157SAPE   H7X17540   3.647   3.643   7.563 -1.6806 -0.9601 -1.3840
  157SAPE   H7Y17541   3.509   3.749   7.494 -0.2234  0.5384  1.3039
  157SAPE   C3817542   3.670   3.849   7.585  0.3180 -0.7529 -0.7565
  157SAPE   H8X17543   3.612   3.938   7.553  3.1262  1.1886 -0.6532
  157SAPE   H8Y17544   3.779   3.862   7.568  0.9417 -2.4874  1.6843
  157SAPE   C3917545   3.638   3.841   7.740 -0.5392  0.4830  0.1369
  157SAPE   H9X17546   3.538   3.797   7.760 -0.4576 -1.7228 -3.7992
  157SAPE   H9Y17547   3.635   3.942   7.786  2.2765  1.5050 -1.7993
  157SAPE  C31017548   3.748   3.773   7.824 -0.5343  0.5088  0.0164
  157SAPE  H10X17549   3.836   3.840   7.814  1.8779 -2.3176  1.6011
  157SAPE  H10Y17550   3.766   3.674   7.778  0.5683  0.3426  0.7732
  157SAPE  C31117551   3.719   3.752   7.974  0.3376 -0.6340 -0.2942
  157SAPE  H11X17552   3.612   3.735   7.996  1.0503 -2.5161  1.9157
  157SAPE  H11Y17553   3.729   3.853   8.019  0.5884 -1.0790  0.6390
  157SAPE  C31217554   3.812   3.646   8.031 -0.0767  0.8056  0.3090
  157SAPE  H12X17555   3.911   3.684   7.998  0.8378 -1.1381  0.7434
  157SAPE  H12Y17556   3.790   3.550   7.978 -0.6648  0.4702  1.1441
  157SAPE  C31317557   3.809   3.631   8.189 -0.6788  0.3670  1.0453
  157SAPE  H13X17558   3.844   3.532   8.227 -0.7723  0.3086  0.9791
  157SAPE  H13Y17559   3.714   3.646   8.245 -1.7389  1.2520 -0.9289
  157SAPE  C31417560   3.910   3.733   8.239  0.8163  0.0772  0.3457
  157SAPE  H14X17561   3.882   3.834   8.201  1.0554  0.6183  1.5764
  157SAPE  H14Y17562   4.015   3.718   8.207  0.5871  0.1183 -0.4209
  157SAPE  C31517563   3.907   3.753   8.396  0.4217  0.2914  0.4079
  157SAPE  H15X17564   3.805   3.784   8.425  0.4945  0.6840  0.2400
  157SAPE  H15Y17565   3.970   3.833   8.439  0.2228  1.3336 -1.2121
  157SAPE  C31617566   3.935   3.623   8.473  0.2234  0.8859 -0.6734
  157SAPE  H16X17567   4.044   3.602   8.482 -0.5047 -2.3900  1.4435
  157SAPE  H16Y17568   3.884   3.542   8.418  0.5719  1.3390 -1.6760
  157SAPE  C31717569   3.861   3.621   8.608  0.3496  0.3573  0.4214
  157SAPE  H17X17570   3.848   3.516   8.642  0.5042  0.0591 -0.4281
  157SAPE  H17Y17571   3.756   3.656   8.608  0.2230  0.0129  1.6128
  157SAPE  C31817572   3.936   3.702   8.715 -0.6849 -0.4065  0.5624
  157SAPE  H18X17573   3.911   3.677   8.820  0.0704 -0.8167  0.6489
  157SAPE  H18Y17574   3.915   3.810   8.699  1.3673  0.0553  0.8607
  157SAPE  H18Z17575   4.044   3.679   8.713  0.0136  2.5165  2.4324
  158SAPE     N17576   6.369   1.154   6.184  0.4249 -0.3020  0.4859
  158SAPE   HN117577   6.459   1.135   6.233  0.7085 -0.7606 -0.2040
  158SAPE   HN217578   6.287   1.129   6.241  0.4503  0.3573  0.8270
  158SAPE   HN317579   6.368   1.097   6.097  2.1262 -0.6201  0.6439
  158SAPE   C1217580   6.346   1.293   6.122 -0.5083 -0.7631  0.9670
  158SAPE  H12A17581   6.257   1.283   6.056  0.6724 -0.7069 -0.6567
  158SAPE  H12B17582   6.441   1.317   6.070 -0.1284 -0.5664  1.7458
  158SAPE   C1117583   6.302   1.403   6.223  0.1923 -0.1854  0.6006
  158SAPE  H11A17584   6.304   1.502   6.173 -0.0295 -1.0471 -1.1647
  158SAPE  H11B17585   6.385   1.410   6.297 -0.3653 -0.6817  1.2791
  158SAPE     P17586   6.045   1.393   6.215 -0.0827 -0.2349  0.0720
  158SAPE   O1317587   6.062   1.484   6.105  0.7896  0.5350  0.5620
  158SAPE   O1417588   5.996   1.258   6.182  0.0253  0.2636  0.5468
  158SAPE   O1217589   6.186   1.371   6.292  0.2493 -0.3719  0.5059
  158SAPE   O1117590   5.958   1.467   6.324  0.4368  0.0675  0.4274
  158SAPE    C117591   5.924   1.395   6.445 -1.0341 -0.8085 -0.0035
  158SAPE    HA17592   5.825   1.432   6.479 -0.8712  0.0201 -0.4175
  158SAPE    HB17593   5.906   1.286   6.430 -1.7165 -0.8674  1.1986
  158SAPE    C217594   6.024   1.424   6.556 -1.2304  0.5916 -0.6616
  158SAPE    HS17595   6.109   1.352   6.552 -1.6196  0.1491 -1.1234
  158SAPE   O2117596   5.958   1.406   6.684 -0.0662 -0.3500 -0.1637
  158SAPE   C2117597   5.937   1.289   6.723  0.1566  0.1999 -0.6744
  158SAPE   O2217598   5.973   1.184   6.671  0.0904 -0.9989 -0.1253
  158SAPE   C2217599   5.874   1.288   6.864 -0.3441  0.0805  0.7153
  158SAPE   H2R17600   5.769   1.321   6.846 -0.7613 -2.9488 -3.1802
  158SAPE   H2S17601   5.868   1.183   6.900 -3.1555  0.4146  1.3561
  158SAPE    C317602   6.090   1.565   6.563  0.1577 -0.8455 -0.2101
  158SAPE    HX17603   6.005   1.633   6.584  0.9016 -0.3604  1.3379
  158SAPE    HY17604   6.141   1.596   6.469  1.2373 -0.5300  0.4666
  158SAPE   O3117605   6.190   1.567   6.663  0.3979 -1.2667 -0.4529
  158SAPE   C3117606   6.163   1.639   6.784  0.2593 -0.4754 -0.9159
  158SAPE   O3217607   6.083   1.727   6.796  0.2915 -0.7193  0.2511
  158SAPE   C3217608   6.243   1.569   6.897  0.8788  0.2028 -0.0218
  158SAPE   H2X17609   6.329   1.515   6.852  0.3442  0.0762 -0.9087
  158SAPE   H2Y17610   6.175   1.495   6.943  0.2888  0.6225 -0.2076
  158SAPE   C2317611   5.945   1.371   6.962 -0.2891  0.5266 -0.1715
  158SAPE   H3R17612   5.929   1.477   6.934  2.4991  1.0932  0.2915
  158SAPE   H3S17613   6.054   1.354   6.951 -0.4005 -0.2960 -0.0614
  158SAPE   C2417614   5.921   1.348   7.110  0.1638  0.3665  0.1744
  158SAPE   H4R17615   5.814   1.367   7.136  0.0905  0.7440 -0.4066
  158SAPE   H4S17616   5.982   1.427   7.159 -0.5976 -0.5738  2.6919
  158SAPE   C2517617   5.953   1.202   7.150  0.2253  0.1409 -0.1128
  158SAPE   H5R17618   5.973   1.116   7.085 -0.1368 -0.3934  0.4704
  158SAPE   C2617619   5.968   1.167   7.284 -0.0801  0.0279  0.6174
  158SAPE   H6R17620   5.996   1.063   7.307  0.6736  0.8437  3.6019
  158SAPE   C2717621   5.952   1.267   7.401  0.2524 -0.8134  0.4664
  158SAPE   H7R17622   5.870   1.337   7.374  0.1333 -2.0837 -2.6336
  158SAPE   H7S17623   6.046   1.326   7.409 -0.8632  1.2930 -1.4047
  158SAPE   C2817624   5.917   1.201   7.528 -0.2995 -0.0408 -0.2578
  158SAPE   H8R17625   5.909   1.091   7.521 -2.5056 -0.2715  3.9491
  158SAPE   C2917626   5.888   1.257   7.646 -0.3693 -0.0051 -0.9501
  158SAPE   H9R17627   5.847   1.190   7.723 -0.6769  0.2022 -0.9338
  158SAPE  C21017628   5.892   1.403   7.665 -0.1109 -0.1122 -0.0471
  158SAPE  H10R17629   5.890   1.460   7.570 -3.4080  1.4564  0.8880
  158SAPE  H10S17630   5.992   1.419   7.713 -1.2859  1.9346  1.8384
  158SAPE  C21117631   5.795   1.453   7.765  0.0620 -0.3513  0.3001
  158SAPE  H11R17632   5.726   1.522   7.715  0.8726 -0.4595 -0.9789
  158SAPE  C21217633   5.783   1.423   7.894  0.1333  1.0524 -1.0809
  158SAPE  H12R17634   5.711   1.473   7.961 -0.4108 -0.1931 -0.7261
  158SAPE  C21317635   5.864   1.336   7.985  0.4340 -0.1458 -0.2738
  158SAPE  H13R17636   5.898   1.411   8.060  1.4833 -0.9179  0.0309
  158SAPE  H13S17637   5.956   1.300   7.935 -0.5392 -0.8749 -1.5772
  158SAPE  C21417638   5.798   1.212   8.039  0.9820  0.9416 -0.1300
  158SAPE  H14R17639   5.817   1.117   7.989 -1.6869 -0.3050  1.1234
  158SAPE  C21517640   5.739   1.211   8.155  0.0035 -0.5027 -0.3014
  158SAPE  H15R17641   5.687   1.119   8.186  1.7118 -1.3172  0.2131
  158SAPE  C21617642   5.722   1.329   8.247 -0.0893 -0.0833 -0.5694
  158SAPE  H16R17643   5.694   1.422   8.195  0.9674  0.8224  0.4517
  158SAPE  H16S17644   5.817   1.353   8.300  0.0689 -1.2910 -0.2678
  158SAPE  C21717645   5.615   1.306   8.357 -0.5494 -0.1134  0.3648
  158SAPE  H17R17646   5.513   1.286   8.318  0.2541 -1.5929 -1.0505
  158SAPE  H17S17647   5.605   1.403   8.409 -0.3616  0.1073 -0.0060
  158SAPE  C21817648   5.656   1.201   8.463  0.1896  0.1474 -0.1732
  158SAPE  H18R17649   5.648   1.255   8.560  0.4799  0.6747 -0.4403
  158SAPE  H18S17650   5.762   1.172   8.450  0.8602  2.6234 -0.5186
  158SAPE  C21917651   5.558   1.074   8.475 -0.2901 -0.2021 -0.2280
  158SAPE  H19R17652   5.555   1.024   8.375  3.3277  2.4614 -1.8132
  158SAPE  H19S17653   5.460   1.110   8.513 -0.1108 -0.7542  0.7709
  158SAPE  C22017654   5.616   0.972   8.571  0.7877 -0.1081 -0.2903
  158SAPE  H20R17655   5.541   0.890   8.575  0.4510  0.2357  0.7065
  158SAPE  H20S17656   5.603   1.021   8.670 -0.7475 -0.7733 -0.1548
  158SAPE  H20T17657   5.719   0.932   8.557  0.8229 -0.9601  2.0967
  158SAPE   C3317658   6.288   1.668   7.006 -0.4180  0.7803  0.3009
  158SAPE   H3X17659   6.205   1.718   7.060 -1.1709 -0.2447  0.0928
  158SAPE   H3Y17660   6.342   1.750   6.954 -0.0514 -0.3751 -1.1834
  158SAPE   C3417661   6.368   1.600   7.120  0.1185 -0.7058 -0.3197
  158SAPE   H4X17662   6.478   1.616   7.113  0.0534 -1.0006 -2.5358
  158SAPE   H4Y17663   6.365   1.491   7.102  1.4814 -0.9064  0.5538
  158SAPE   C3517664   6.334   1.643   7.266 -0.4364  0.0628 -0.1792
  158SAPE   H5X17665   6.356   1.752   7.273  2.6296 -0.3984 -1.5139
  158SAPE   H5Y17666   6.392   1.582   7.339  0.1891 -1.5961 -2.0140
  158SAPE   C3617667   6.196   1.599   7.308  0.5381  0.0885  0.7460
  158SAPE   H6X17668   6.167   1.494   7.285 -2.9800  1.2824 -0.5572
  158SAPE   H6Y17669   6.120   1.659   7.254  2.4332  0.5794 -1.4586
  158SAPE   C3717670   6.190   1.608   7.459  0.3427  1.2276  0.0143
  158SAPE   H7X17671   6.092   1.560   7.483 -0.8069  3.6829  0.3603
  158SAPE   H7Y17672   6.276   1.554   7.503 -0.2969  1.4082  1.5299
  158SAPE   C3817673   6.195   1.749   7.523  0.1583  0.0077 -0.1063
  158SAPE   H8X17674   6.145   1.822   7.456 -0.4439 -0.8077 -0.5569
  158SAPE   H8Y17675   6.300   1.786   7.528  0.7046 -1.6935  1.4010
  158SAPE   C3917676   6.146   1.755   7.665 -0.1774 -0.1594  0.2782
  158SAPE   H9X17677   6.037   1.733   7.667  0.0135 -1.1605  0.1815
  158SAPE   H9Y17678   6.139   1.860   7.699 -1.0335  0.5831 -2.1243
  158SAPE  C31017679   6.231   1.669   7.765 -0.5061 -0.3592 -0.1429
  158SAPE  H10X17680   6.315   1.734   7.799 -0.6731 -0.0484 -0.3264
  158SAPE  H10Y17681   6.276   1.586   7.706 -0.1419  0.8801 -1.6746
  158SAPE  C31117682   6.151   1.632   7.892  0.7861  1.3055 -0.1179
  158SAPE  H11X17683   6.220   1.585   7.966 -1.6679 -0.7534  0.9293
  158SAPE  H11Y17684   6.071   1.557   7.876  0.0961  1.8942  0.5492
  158SAPE  C31217685   6.082   1.752   7.949  0.8559  0.1224  0.5653
  158SAPE  H12X17686   5.999   1.771   7.877 -0.3471 -2.3685  1.2585
  158SAPE  H12Y17687   6.146   1.843   7.955 -0.0957  0.7898  0.6026
  158SAPE  C31317688   6.019   1.720   8.086 -0.1422 -0.0548 -0.0051
  158SAPE  H13X17689   6.097   1.680   8.154 -0.3684  2.9726  2.1498
  158SAPE  H13Y17690   5.938   1.645   8.077  0.7596 -1.5674  3.8035
  158SAPE  C31417691   5.965   1.843   8.164 -0.8000  0.0604  0.3943
  158SAPE  H14X17692   5.855   1.835   8.147 -0.8093  0.9358  0.0345
  158SAPE  H14Y17693   5.995   1.944   8.129  0.5508 -0.4309  0.1377
  158SAPE  C31517694   5.986   1.833   8.318 -0.3329  0.2089  0.4714
  158SAPE  H15X17695   6.094   1.810   8.333 -0.6046  0.4034  3.0528
  158SAPE  H15Y17696   5.932   1.747   8.363  0.3315 -0.1637  0.5622
  158SAPE  C31617697   5.940   1.954   8.399  0.0013  0.0169 -0.8105
  158SAPE  H16X17698   6.008   2.042   8.391 -1.5018  1.0322 -2.9557
  158SAPE  H16Y17699   5.931   1.931   8.508  1.5486  2.5780 -0.0942
  158SAPE  C31717700   5.806   2.006   8.359  0.2942  0.0234 -0.9626
  158SAPE  H17X17701   5.739   1.918   8.366 -0.9199  0.9635 -0.5245
  158SAPE  H17Y17702   5.808   2.039   8.253 -1.4234  0.8813 -0.7386
  158SAPE  C31817703   5.764   2.121   8.455 -0.0981 -0.5366 -0.2201
  158SAPE  H18X17704   5.744   2.081   8.557 -2.0171  1.8503  0.3898
  158SAPE  H18Y17705   5.682   2.184   8.416  1.7600  2.0531 -0.0594
  158SAPE  H18Z17706   5.846   2.195   8.461 -0.9814  0.4712 -0.4174
  159SAPE     N17707   4.739   4.777   6.293  0.3026  1.2291  0.3182
  159SAPE   HN117708   4.636   4.791   6.290  0.0970 -0.3061 -0.3714
  159SAPE   HN217709   4.785   4.764   6.201  0.5569 -0.6168  0.6749
  159SAPE   HN317710   4.748   4.686   6.343  1.0190  1.3134  0.3585
  159SAPE   C1217711   4.827   4.864   6.373  0.2589 -0.4735 -0.1405
  159SAPE  H12A17712   4.814   4.840   6.480  0.6585  2.4562  0.5940
  159SAPE  H12B17713   4.822   4.963   6.322  3.9713  0.0619  0.3871
  159SAPE   C1117714   4.969   4.820   6.346  0.9858  0.3485  0.6269
  159SAPE  H11A17715   4.987   4.717   6.383 -1.0324 -0.0570  0.5553
  159SAPE  H11B17716   5.030   4.887   6.411  0.2137  1.1773  0.5027
  159SAPE     P17717   5.062   4.730   6.125 -0.3823 -0.4863 -0.2903
  159SAPE   O1317718   4.935   4.654   6.097  0.3564 -0.8240 -0.0015
  159SAPE   O1417719   5.134   4.783   6.005 -0.4801  0.4797  0.2314
  159SAPE   O1217720   5.017   4.854   6.219 -0.4878  0.2350 -0.2449
  159SAPE   O1117721   5.159   4.646   6.218 -0.3739  0.2638 -0.8082
  159SAPE    C117722   5.282   4.706   6.253  0.3956 -0.5729 -0.1322
  159SAPE    HA17723   5.345   4.715   6.162  2.9672  1.3625  1.7672
  159SAPE    HB17724   5.272   4.811   6.288 -1.5407 -0.9581  0.5014
  159SAPE    C217725   5.368   4.651   6.375 -0.0461 -0.0995 -0.9093
  159SAPE    HS17726   5.429   4.567   6.335  0.7614 -0.3523  0.8443
  159SAPE   O2117727   5.291   4.595   6.484  0.4563  0.2981 -0.4950
  159SAPE   C2117728   5.222   4.683   6.551  0.0511  0.4032 -0.5822
  159SAPE   O2217729   5.219   4.803   6.535  0.2970 -0.5325 -0.1151
  159SAPE   C2217730   5.151   4.612   6.673  0.5412 -0.0307  0.2326
  159SAPE   H2R17731   5.177   4.504   6.674 -1.2702 -0.5544 -2.6357
  159SAPE   H2S17732   5.196   4.663   6.760  0.1424  1.3972 -0.3729
  159SAPE    C317733   5.475   4.761   6.421  0.4083  0.7671  0.0788
  159SAPE    HX17734   5.424   4.859   6.433 -0.1242  0.6385 -1.0954
  159SAPE    HY17735   5.546   4.760   6.336  1.2669 -1.3706  0.7782
  159SAPE   O3117736   5.538   4.720   6.546 -0.1887 -0.8232 -0.7594
  159SAPE   C3117737   5.654   4.781   6.570 -0.5565  0.2272 -0.0765
  159SAPE   O3217738   5.704   4.869   6.504 -0.0799 -0.0741 -0.3574
  159SAPE   C3217739   5.705   4.727   6.704 -0.9172 -0.1909 -0.3001
  159SAPE   H2X17740   5.736   4.621   6.696  1.2017  0.3768 -0.0614
  159SAPE   H2Y17741   5.623   4.739   6.777  0.3448  1.4068  0.8853
  159SAPE   C2317742   4.996   4.631   6.676 -0.2727 -0.2842 -0.2063
  159SAPE   H3R17743   4.946   4.561   6.606 -1.5877  1.1461 -0.7187
  159SAPE   H3S17744   4.965   4.733   6.646  0.2550 -0.6489 -2.0798
  159SAPE   C2417745   4.935   4.597   6.817 -1.0117 -0.2195  0.1506
  159SAPE   H4R17746   4.829   4.632   6.820 -0.7689  0.3556  2.6340
  159SAPE   H4S17747   4.987   4.656   6.895 -0.7669 -1.2529  0.7828
  159SAPE   C2517748   4.942   4.451   6.848 -0.2215 -0.7145  0.3664
  159SAPE   H5R17749   4.905   4.386   6.767  0.0271 -1.7430  1.0635
  159SAPE   C2617750   4.986   4.395   6.962 -0.3965 -0.3791  0.2934
  159SAPE   H6R17751   4.978   4.286   6.968 -1.9774 -0.3419 -0.9334
  159SAPE   C2717752   5.061   4.454   7.082  0.6789  0.2497 -0.7304
  159SAPE   H7R17753   5.108   4.550   7.051 -1.1611  0.4011 -3.1819
  159SAPE   H7S17754   5.145   4.391   7.117 -0.3300  0.0441  1.4140
  159SAPE   C2817755   4.951   4.488   7.190 -0.6703 -0.9598  0.5365
  159SAPE   H8R17756   4.891   4.578   7.172  1.2023  0.4959  1.3691
  159SAPE   C2917757   4.928   4.404   7.297 -0.0759 -0.4931  0.7252
  159SAPE   H9R17758   4.838   4.425   7.357  0.1375 -0.0086  0.8790
  159SAPE  C21017759   4.995   4.271   7.334  0.1594 -0.4052 -0.1859
  159SAPE  H10R17760   5.035   4.202   7.257  1.5307  0.5858 -0.3814
  159SAPE  H10S17761   4.923   4.202   7.383  0.9012 -0.7729  0.4034
  159SAPE  C21117762   5.108   4.293   7.430 -0.1275  0.2749 -0.2732
  159SAPE  H11R17763   5.206   4.307   7.382  0.4440 -0.1971  0.7439
  159SAPE  C21217764   5.101   4.314   7.566  0.1141  0.3321  0.1412
  159SAPE  H12R17765   5.198   4.336   7.611  0.6296 -1.8631  0.1412
  159SAPE  C21317766   4.977   4.333   7.647 -0.2146 -0.7428 -1.0209
  159SAPE  H13R17767   4.892   4.310   7.578 -1.7023  2.8852 -0.5103
  159SAPE  H13S17768   4.966   4.440   7.671 -0.1548 -0.7292 -1.0544
  159SAPE  C21417769   4.977   4.251   7.770 -0.0755  0.1688  0.2413
  159SAPE  H14R17770   4.996   4.145   7.747 -0.9831 -0.2833  1.5100
  159SAPE  C21517771   4.954   4.284   7.901  0.0462 -0.4618  0.3712
  159SAPE  H15R17772   4.963   4.204   7.976  1.7773  0.2338  0.9255
  159SAPE  C21617773   4.922   4.420   7.944  0.1300  0.2396  0.3884
  159SAPE  H16R17774   4.828   4.453   7.895  1.0301  0.5594 -1.1719
  159SAPE  H16S17775   5.004   4.495   7.932  1.9277 -1.7628 -0.0674
  159SAPE  C21717776   4.892   4.435   8.095 -0.3712 -0.3975 -0.4448
  159SAPE  H17R17777   4.983   4.409   8.153  0.0795 -0.6785 -1.2669
  159SAPE  H17S17778   4.822   4.356   8.130 -0.3217  0.0527  0.6753
  159SAPE  C21817779   4.834   4.570   8.134  0.1168  0.0220 -0.0861
  159SAPE  H18R17780   4.790   4.557   8.235 -0.4024 -0.4039 -0.3636
  159SAPE  H18S17781   4.752   4.613   8.072  1.2976  0.2994 -1.4955
  159SAPE  C21917782   4.940   4.681   8.148  1.0631 -0.3730 -0.3622
  159SAPE  H19R17783   5.038   4.629   8.161  0.9717 -0.7004 -0.9334
  159SAPE  H19S17784   4.914   4.723   8.248  1.5203 -0.2122 -0.3129
  159SAPE  C22017785   4.952   4.787   8.032  0.8637  0.6806 -0.1737
  159SAPE  H20R17786   4.867   4.858   8.024  0.4985  0.1841 -0.8286
  159SAPE  H20S17787   4.964   4.721   7.943  1.6318 -1.0663  1.1930
  159SAPE  H20T17788   5.037   4.857   8.049 -0.5853  2.0407  1.6869
  159SAPE   C3317789   5.831   4.813   6.748 -0.1391 -0.1572  0.2906
  159SAPE   H3X17790   5.833   4.920   6.719 -1.6776 -0.7990 -2.3486
  159SAPE   H3Y17791   5.916   4.763   6.697  0.3521 -1.6601  2.5176
  159SAPE   C3417792   5.861   4.796   6.896 -0.5153 -0.1380 -0.3769
  159SAPE   H4X17793   5.799   4.857   6.965 -2.1863 -2.6908  0.4728
  159SAPE   H4Y17794   5.961   4.840   6.915 -0.6186  0.2220 -0.6775
  159SAPE   C3517795   5.858   4.646   6.957  0.3103  1.0918 -0.6251
  159SAPE   H5X17796   5.925   4.592   6.886  1.1223 -0.3096  1.1715
  159SAPE   H5Y17797   5.758   4.599   6.949  0.5437  0.0224  2.1089
  159SAPE   C3617798   5.895   4.638   7.104 -0.4680 -0.2659  0.4436
  159SAPE   H6X17799   6.001   4.664   7.121  1.1786 -4.9928 -1.6710
  159SAPE   H6Y17800   5.897   4.530   7.130  3.6224 -0.2162  0.5670
  159SAPE   C3717801   5.800   4.717   7.203  0.1170  0.6863  0.2507
  159SAPE   H7X17802   5.702   4.677   7.171 -0.2249  1.5184  0.2484
  159SAPE   H7Y17803   5.812   4.826   7.182  0.7610  0.8121  1.2304
  159SAPE   C3817804   5.821   4.682   7.351 -0.7003  0.3655 -0.0717
  159SAPE   H8X17805   5.824   4.571   7.359 -0.6184  0.5398  3.4973
  159SAPE   H8Y17806   5.734   4.712   7.414  1.2511  4.5793  0.7943
  159SAPE   C3917807   5.953   4.731   7.399 -0.2957 -0.2159  0.0151
  159SAPE   H9X17808   5.961   4.840   7.380  2.0365 -0.6537 -1.6172
  159SAPE   H9Y17809   6.033   4.672   7.350  2.0177  2.2359  0.7075
  159SAPE  C31017810   5.968   4.710   7.553  0.3107  0.3938  0.3490
  159SAPE  H10X17811   5.882   4.758   7.605  0.2027 -0.3094  0.8144
  159SAPE  H10Y17812   6.064   4.760   7.581  1.7249 -1.6012 -0.7581
  159SAPE  C31117813   5.985   4.571   7.597 -0.0981  0.0739 -0.4551
  159SAPE  H11X17814   6.068   4.523   7.542 -0.0517 -0.0128 -0.3109
  159SAPE  H11Y17815   5.898   4.507   7.572  0.6853 -1.4830  0.6556
  159SAPE  C31217816   6.010   4.569   7.747 -0.2923 -0.0538 -0.7278
  159SAPE  H12X17817   5.925   4.623   7.793 -0.5208  0.7858 -2.1183
  159SAPE  H12Y17818   6.105   4.626   7.760 -0.1437 -0.2304 -1.0306
  159SAPE  C31317819   6.012   4.436   7.807 -0.1232  0.6519 -0.5133
  159SAPE  H13X17820   6.104   4.386   7.772 -1.2295 -1.4294 -0.5309
  159SAPE  H13Y17821   5.929   4.366   7.781 -0.6276  0.5450  1.3173
  159SAPE  C31417822   6.005   4.426   7.961 -0.1846  0.2539 -0.5276
  159SAPE  H14X17823   5.938   4.506   7.997 -0.0704  1.0130 -1.9942
  159SAPE  H14Y17824   6.106   4.438   8.007 -0.0494  1.6270 -1.1773
  159SAPE  C31517825   5.944   4.290   8.010  0.0778 -0.0137 -0.4211
  159SAPE  H15X17826   5.995   4.205   7.960  1.2216 -1.1411  2.5669
  159SAPE  H15Y17827   5.834   4.288   7.991  0.4144 -0.6367 -2.4274
  159SAPE  C31617828   5.952   4.278   8.167 -0.4479  0.1131  0.2639
  159SAPE  H16X17829   5.885   4.195   8.198  3.3686 -2.3921  2.2904
  159SAPE  H16Y17830   5.917   4.368   8.223  1.1063  0.7710  0.2027
  159SAPE  C31717831   6.089   4.221   8.207  0.3229 -0.0399  0.1477
  159SAPE  H17X17832   6.091   4.218   8.318  2.0932  1.2404  0.1600
  159SAPE  H17Y17833   6.166   4.297   8.183 -1.0584  1.3873  0.1463
  159SAPE  C31817834   6.122   4.078   8.157 -0.2756  0.1705 -0.1773
  159SAPE  H18X17835   6.043   4.004   8.185  0.3242 -0.1047  0.7963
  159SAPE  H18Y17836   6.216   4.042   8.204 -0.4357  1.0845  0.8433
  159SAPE  H18Z17837   6.135   4.064   8.047  0.1075 -0.8562 -0.0092
  160SAPE     N17838   0.042   2.740   6.435  0.3545  0.5695 -0.2987
  160SAPE   HN117839   0.035   2.728   6.538  1.1113 -0.4827 -0.3588
  160SAPE   HN217840   0.138   2.729   6.396  0.5232 -2.7371  0.9247
  160SAPE   HN317841  -0.003   2.831   6.414  0.0339  0.4202 -0.2639
  160SAPE   C1217842  -0.037   2.627   6.372 -0.6451  0.5426 -0.4815
  160SAPE  H12A17843   0.001   2.530   6.411 -1.8561  1.1328  2.2908
  160SAPE  H12B17844  -0.032   2.633   6.261  1.6367 -0.5090 -0.4772
  160SAPE   C1117845  -0.186   2.634   6.407 -0.8149 -0.3294 -0.3909
  160SAPE  H11A17846  -0.202   2.598   6.511  3.6670 -0.5934  0.3386
  160SAPE  H11B17847  -0.235   2.558   6.343 -0.2172 -1.5810  0.6080
  160SAPE     P17848  -0.388   2.784   6.390  0.2052  0.0060 -0.1762
  160SAPE   O1317849  -0.424   2.798   6.245 -0.4820  0.6043  0.0063
  160SAPE   O1417850  -0.455   2.665   6.452  0.4765 -0.6195 -0.1453
  160SAPE   O1217851  -0.233   2.767   6.397 -0.0304 -0.2032  0.0480
  160SAPE   O1117852  -0.411   2.914   6.465  0.2469 -0.6060  0.9027
  160SAPE    C117853  -0.337   2.956   6.576 -0.6592  0.2804 -0.1986
  160SAPE    HA17854  -0.228   2.936   6.563 -0.9668 -1.1420 -0.6997
  160SAPE    HB17855  -0.351   3.065   6.593 -2.0676 -0.0045  0.5301
  160SAPE    C217856  -0.380   2.891   6.707  0.0655  0.9743 -0.1559
  160SAPE    HS17857  -0.352   2.784   6.706 -0.9840  0.6871 -0.8374
  160SAPE   O2117858  -0.524   2.926   6.722 -0.0777 -0.0377 -0.4684
  160SAPE   C2117859  -0.595   2.820   6.768 -0.0033  0.3721  0.1033
  160SAPE   O2217860  -0.539   2.716   6.800  0.0589 -0.0202  0.5980
  160SAPE   C2217861  -0.747   2.851   6.763 -0.2963  0.3511  0.4568
  160SAPE   H2R17862  -0.761   2.961   6.753  0.0319  0.3642  0.1112
  160SAPE   H2S17863  -0.793   2.804   6.674  0.6953  4.3325 -2.3179
  160SAPE    C317864  -0.306   2.948   6.832 -0.4364  0.0539  0.4029
  160SAPE    HX17865  -0.339   3.054   6.823  1.0387  0.6492  1.6927
  160SAPE    HY17866  -0.195   2.945   6.822 -0.3553 -2.8501  1.7705
  160SAPE   O3117867  -0.355   2.889   6.957  0.0547  0.0656 -0.6314
  160SAPE   C3117868  -0.294   2.775   6.994 -0.6607  0.6997 -0.2359
  160SAPE   O3217869  -0.201   2.725   6.936 -0.1045  0.1306  0.1224
  160SAPE   C3217870  -0.357   2.737   7.127  0.4693 -0.0772 -0.5854
  160SAPE   H2X17871  -0.466   2.755   7.116  0.6759  1.4143 -0.4009
  160SAPE   H2Y17872  -0.317   2.803   7.207 -1.7004 -0.1731  0.6210
  160SAPE   C2317873  -0.818   2.800   6.896 -0.0016  0.5558  0.8525
  160SAPE   H3R17874  -0.804   2.690   6.908 -2.0209  0.2092  0.1502
  160SAPE   H3S17875  -0.925   2.812   6.870  0.4123  0.9417 -0.7450
  160SAPE   C2417876  -0.772   2.868   7.026  0.2686  0.6918 -0.3694
  160SAPE   H4R17877  -0.662   2.861   7.045  0.5016  1.7646 -1.2991
  160SAPE   H4S17878  -0.820   2.816   7.112  1.3715  0.5733  0.1920
  160SAPE   C2517879  -0.807   3.016   7.028 -0.5349  1.0006  0.5119
  160SAPE   H5R17880  -0.767   3.076   6.945 -2.4553  0.0561 -1.1457
  160SAPE   C2617881  -0.901   3.076   7.101 -0.0122 -0.0811 -0.7503
  160SAPE   H6R17882  -0.915   3.183   7.078  1.3340  0.5167  1.0463
  160SAPE   C2717883  -0.997   3.021   7.203  0.4140  0.5976 -0.7201
  160SAPE   H7R17884  -0.979   2.912   7.203  0.1384  0.5540 -1.0978
  160SAPE   H7S17885  -1.106   3.036   7.188  0.7257  1.9697 -1.7500
  160SAPE   C2817886  -0.932   3.080   7.327  0.3124  0.1032 -0.5342
  160SAPE   H8R17887  -0.888   3.181   7.333 -1.0861  0.6692  0.3319
  160SAPE   C2917888  -0.904   3.009   7.442  0.7998  0.3029 -0.1608
  160SAPE   H9R17889  -0.847   3.060   7.521  0.0766  0.8241  0.0225
  160SAPE  C21017890  -0.919   2.860   7.461  0.4144 -0.1845 -0.3386
  160SAPE  H10R17891  -1.022   2.830   7.430  0.7063 -1.3603 -0.2032
  160SAPE  H10S17892  -0.921   2.846   7.571 -0.6274  2.0697 -0.0398
  160SAPE  C21117893  -0.810   2.768   7.412 -0.5773 -0.0126 -0.3426
  160SAPE  H11R17894  -0.728   2.810   7.353  0.9857 -2.5452 -0.0647
  160SAPE  C21217895  -0.801   2.637   7.451  0.2104  0.3794  0.2775
  160SAPE  H12R17896  -0.714   2.578   7.418 -1.1235 -2.3486  1.4306
  160SAPE  C21317897  -0.893   2.564   7.544 -0.5551 -0.0410 -0.0984
  160SAPE  H13R17898  -0.944   2.487   7.483 -0.9599 -0.2968  0.5508
  160SAPE  H13S17899  -0.971   2.632   7.585  1.1406  1.4123  0.8064
  160SAPE  C21417900  -0.831   2.474   7.655 -0.0635 -0.4630 -0.0649
  160SAPE  H14R17901  -0.723   2.456   7.641 -0.4310 -2.6350 -0.3935
  160SAPE  C21517902  -0.906   2.419   7.759 -0.0478 -0.3846  0.1219
  160SAPE  H15R17903  -0.851   2.354   7.828 -1.1073 -0.9892  0.4113
  160SAPE  C21617904  -1.045   2.443   7.794  0.1818  0.3004 -0.1791
  160SAPE  H16R17905  -1.098   2.355   7.753 -1.4505 -0.0533  2.5715
  160SAPE  H16S17906  -1.091   2.529   7.740 -0.5451 -0.4116 -0.6964
  160SAPE  C21717907  -1.057   2.472   7.941  0.2523  0.0223  0.1729
  160SAPE  H17R17908  -1.157   2.510   7.971 -0.2860 -2.3196  1.4709
  160SAPE  H17S17909  -0.983   2.545   7.981  0.8228 -0.2430 -0.3841
  160SAPE  C21817910  -1.038   2.351   8.031 -0.7320  0.0478  0.0576
  160SAPE  H18R17911  -0.929   2.332   8.034 -0.5647  1.2063  2.0312
  160SAPE  H18S17912  -1.099   2.273   7.980 -1.0736  0.4816 -0.2081
  160SAPE  C21917913  -1.096   2.374   8.171 -0.3913 -0.4401  0.3214
  160SAPE  H19R17914  -1.111   2.275   8.219 -0.3054  0.2344  1.7912
  160SAPE  H19S17915  -1.198   2.417   8.171 -0.0352  0.4360  0.3273
  160SAPE  C22017916  -1.009   2.459   8.274 -0.1484  0.5615  0.2102
  160SAPE  H20R17917  -0.976   2.556   8.229  0.3528  0.3237  0.0712
  160SAPE  H20S17918  -0.916   2.406   8.300 -2.1757 -1.9690  2.5617
  160SAPE  H20T17919  -1.070   2.494   8.360  0.7532  1.2728  0.5670
  160SAPE   C3317920  -0.331   2.589   7.169 -0.7335  0.6369  0.2576
  160SAPE   H3X17921  -0.223   2.569   7.187 -1.4821 -2.3174  1.7560
  160SAPE   H3Y17922  -0.360   2.510   7.097  2.0150 -1.4610  1.3493
  160SAPE   C3417923  -0.406   2.553   7.303  0.6193 -0.7680 -0.3040
  160SAPE   H4X17924  -0.370   2.452   7.333 -0.1638 -0.3953  1.9548
  160SAPE   H4Y17925  -0.515   2.548   7.282  0.1659  2.8520  0.8491
  160SAPE   C3517926  -0.396   2.642   7.428 -0.5342 -0.1814  0.2702
  160SAPE   H5X17927  -0.481   2.713   7.430  1.6569  2.4790  2.2244
  160SAPE   H5Y17928  -0.296   2.690   7.436 -0.7721  0.5428 -0.9269
  160SAPE   C3617929  -0.411   2.556   7.559 -0.1363  0.6385  0.7441
  160SAPE   H6X17930  -0.314   2.512   7.591  0.6656  0.9510 -1.1782
  160SAPE   H6Y17931  -0.487   2.481   7.530  1.5002 -1.0593  0.7276
  160SAPE   C3717932  -0.457   2.632   7.677  0.2047 -0.3648  0.6101
  160SAPE   H7X17933  -0.559   2.675   7.668  0.4812  0.8764  2.8194
  160SAPE   H7Y17934  -0.376   2.707   7.688  1.3019 -1.5739  0.9519
  160SAPE   C3817935  -0.453   2.549   7.814 -0.2607  0.0823 -0.2628
  160SAPE   H8X17936  -0.360   2.489   7.820 -0.4121  0.0015  1.6367
  160SAPE   H8Y17937  -0.546   2.488   7.809 -0.3478  0.2651 -0.9178
  160SAPE   C3917938  -0.473   2.635   7.947  0.4369  0.4879 -0.2687
  160SAPE   H9X17939  -0.402   2.720   7.941  1.1765 -0.2262 -2.1745
  160SAPE   H9Y17940  -0.445   2.569   8.032  2.5605  0.6906 -0.7895
  160SAPE  C31017941  -0.620   2.695   7.954  0.1923  0.5557 -0.5823
  160SAPE  H10X17942  -0.677   2.602   7.929 -0.3470  1.2606 -2.0230
  160SAPE  H10Y17943  -0.651   2.761   7.871 -1.0921 -1.4052 -1.7047
  160SAPE  C31117944  -0.662   2.740   8.094  0.1171  0.1202  0.3974
  160SAPE  H11X17945  -0.771   2.757   8.099 -0.3539 -1.6838 -2.5352
  160SAPE  H11Y17946  -0.608   2.836   8.107 -1.7127  1.2213 -0.0213
  160SAPE  C31217947  -0.621   2.655   8.209  0.1728 -0.2099 -0.0151
  160SAPE  H12X17948  -0.510   2.659   8.220  0.2343 -0.7310 -0.4414
  160SAPE  H12Y17949  -0.657   2.556   8.174  0.2931 -0.2577 -0.0093
  160SAPE  C31317950  -0.696   2.692   8.339 -0.2177 -0.0028 -0.5612
  160SAPE  H13X17951  -0.677   2.610   8.411  0.0081  0.7821  0.2680
  160SAPE  H13Y17952  -0.801   2.673   8.306  0.4389 -1.3241 -1.9632
  160SAPE  C31417953  -0.678   2.835   8.390 -0.1867 -0.2358  0.0628
  160SAPE  H14X17954  -0.619   2.898   8.320 -0.5415  0.1523  0.1178
  160SAPE  H14Y17955  -0.616   2.838   8.482  0.5445 -1.7058 -0.3637
  160SAPE  C31517956  -0.812   2.893   8.422  0.3692  0.6215  0.2411
  160SAPE  H15X17957  -0.843   2.832   8.510 -0.8190 -0.4198 -0.8785
  160SAPE  H15Y17958  -0.883   2.870   8.340  2.2701 -2.4023 -0.6437
  160SAPE  C31617959  -0.794   3.040   8.454  0.5613 -0.6360 -0.0796
  160SAPE  H16X17960  -0.768   3.102   8.366 -2.3551  0.3596 -0.3101
  160SAPE  H16Y17961  -0.718   3.058   8.533  0.8629  0.1583 -0.5590
  160SAPE  C31717962  -0.925   3.085   8.519 -0.2258 -0.6684 -0.5847
  160SAPE  H17X17963  -0.966   3.016   8.596 -0.6609 -0.4892 -0.6550
  160SAPE  H17Y17964  -1.008   3.096   8.447  0.5859 -0.6223 -1.5298
  160SAPE  C31817965  -0.905   3.225   8.575  0.5815  0.2338 -0.3165
  160SAPE  H18X17966  -1.006   3.256   8.611 -0.1705 -1.8767 -0.5282
  160SAPE  H18Y17967  -0.876   3.296   8.494  0.7367  1.4341  0.7631
  160SAPE  H18Z17968  -0.834   3.225   8.660  0.3710  0.3457 -0.1385
  161SOPE     N17969   3.951   4.135  10.785  0.3005 -0.2656 -0.0684
  161SOPE   HN117970   4.024   4.093  10.847  2.1146  2.9246  0.1004
  161SOPE   HN217971   3.865   4.139  10.843  0.3081  0.4664 -0.0973
  161SOPE   HN317972   3.931   4.082  10.699  1.1867 -2.5723  1.0975
  161SOPE   C1217973   3.988   4.277  10.744 -0.0030 -0.0455 -0.4848
  161SOPE  H12A17974   3.893   4.334  10.744 -0.8138 -1.3719  0.6614
  161SOPE  H12B17975   4.041   4.281  10.647  1.1791  2.9906  0.2070
  161SOPE   C1117976   4.063   4.331  10.860  0.3930  0.3141 -0.1405
  161SOPE  H11A17977   4.017   4.317  10.960  0.0129  1.1958 -0.1904
  161SOPE  H11B17978   4.059   4.441  10.846  1.6675  0.3519 -0.3558
  161SOPE     P17979   4.321   4.366  10.774  0.4758 -0.1964 -0.2234
  161SOPE   O1317980   4.446   4.350  10.840  0.3087 -0.1272 -1.0210
  161SOPE   O1417981   4.298   4.509  10.742  0.1872 -0.5613  0.6552
  161SOPE   O1217982   4.209   4.303  10.864 -0.3288  0.0311 -0.5061
  161SOPE   O1117983   4.321   4.277  10.651  0.6253  0.6782  0.1088
  161SOPE    C117984   4.347   4.135  10.653  0.5043 -0.3306 -0.5641
  161SOPE    HA17985   4.259   4.072  10.677 -0.1187  0.4796 -0.6887
  161SOPE    HB17986   4.428   4.099  10.721 -1.8064 -2.3846  1.1884
  161SOPE    C217987   4.389   4.083  10.510 -0.1117  0.7546  0.2881
  161SOPE    HS17988   4.461   4.157  10.469 -1.9639  2.8807  0.7283
  161SOPE   O2117989   4.267   4.064  10.431 -0.3804  0.6780 -0.0888
  161SOPE   C2117990   4.264   4.124  10.315 -0.3779  0.5154  0.1935
  161SOPE   O2217991   4.358   4.183  10.261  0.4642  0.2710  0.8047
  161SOPE   C2217992   4.118   4.108  10.266  0.5878  0.2673  0.0417
  161SOPE   H2R17993   4.053   4.124  10.355  0.4827  0.6840 -0.1127
  161SOPE   H2S17994   4.104   4.000  10.243  3.5568 -0.4373  1.2439
  161SOPE    C317995   4.466   3.947  10.509 -0.5082 -0.2459 -0.1807
  161SOPE    HX17996   4.391   3.877  10.552 -1.8512  1.7815  0.8697
  161SOPE    HY17997   4.557   3.946  10.573 -0.7280  0.2238  0.1354
  161SOPE   O3117998   4.494   3.899  10.372  0.6508  0.0266 -0.0267
  161SOPE   C3117999   4.604   3.962  10.326  0.6750  0.7276  1.3835
  161SOPE   O3218000   4.670   4.039  10.387  0.0482 -0.1565  0.6975
  161SOPE   C3218001   4.615   3.916  10.176  0.6163 -0.3525 -0.0384
  161SOPE   H2X18002   4.526   3.954  10.121  1.8940  1.4643 -0.9026
  161SOPE   H2Y18003   4.641   3.808  10.179  1.5008 -0.1355  0.2806
  161SOPE   C2318004   4.076   4.203  10.151 -0.4402 -0.5591  0.3949
  161SOPE   H3R18005   4.126   4.301  10.169 -0.6103 -0.8497  2.5025
  161SOPE   H3S18006   3.966   4.218  10.158 -0.4482 -0.2606 -0.3137
  161SOPE   C2418007   4.122   4.148  10.015  0.0209 -0.3062 -1.0022
  161SOPE   H4R18008   4.231   4.165  10.001  0.3077 -2.5503 -1.7095
  161SOPE   H4S18009   4.113   4.038   9.999 -0.7192 -0.1581 -1.6217
  161SOPE   C2518010   4.046   4.209   9.893  0.4053 -0.1384 -0.2541
  161SOPE   H5R18011   3.938   4.186   9.906  0.1760  0.1782 -1.5823
  161SOPE   H5S18012   4.059   4.319   9.901  1.0574 -0.4570  5.0928
  161SOPE   C2618013   4.104   4.163   9.756 -0.4803  0.0317  0.7739
  161SOPE   H6R18014   4.197   4.217   9.731 -0.9310  0.4447 -0.0488
  161SOPE   H6S18015   4.141   4.061   9.778  0.9052  0.6230  1.2521
  161SOPE   C2718016   4.009   4.174   9.639  0.3124 -0.1867 -0.2789
  161SOPE   H7R18017   3.913   4.118   9.642 -0.0601  0.4449 -0.4393
  161SOPE   H7S18018   3.964   4.275   9.634 -0.7484 -0.6953 -1.4056
  161SOPE   C2818019   4.083   4.164   9.507 -0.0736 -0.0705  0.4065
  161SOPE   H8R18020   4.017   4.194   9.423 -1.9763 -1.1918  1.4485
  161SOPE   H8S18021   4.162   4.241   9.496  0.4040 -0.7731 -1.2869
  161SOPE   C2918022   4.144   4.029   9.501 -0.2216 -0.1875  0.9680
  161SOPE   H9118023   4.194   3.984   9.588  1.9792  1.4031  0.5596
  161SOPE  C21018024   4.138   3.943   9.394  0.6713 -0.2201  0.4252
  161SOPE  H10118025   4.183   3.843   9.404  0.4570 -0.3557  0.0585
  161SOPE  C21118026   4.076   3.976   9.262 -0.1710 -0.5180  0.0537
  161SOPE  H11R18027   4.078   4.084   9.233  2.4405  0.2995  2.9191
  161SOPE  H11S18028   3.972   3.939   9.261 -0.3381 -0.0267 -0.8840
  161SOPE  C21218029   4.153   3.906   9.146 -0.2413  0.0367  0.4170
  161SOPE  H12R18030   4.157   3.796   9.163 -2.5280 -0.4665 -1.9860
  161SOPE  H12S18031   4.261   3.932   9.138  0.2242 -1.5859  1.1970
  161SOPE  C21318032   4.083   3.925   9.014  0.4886 -0.2081  0.6433
  161SOPE  H13R18033   3.974   3.912   9.030  0.7098 -3.2302  0.0348
  161SOPE  H13S18034   4.110   3.844   8.943  1.1369 -0.1818  0.8498
  161SOPE  C21418035   4.133   4.047   8.943 -0.2696  0.6414  0.5150
  161SOPE  H14R18036   4.240   4.037   8.915 -0.4018  1.8190 -0.4734
  161SOPE  H14S18037   4.128   4.132   9.014  3.4260  1.5160 -0.1713
  161SOPE  C21518038   4.052   4.093   8.813  0.2566 -0.0381  0.3247
  161SOPE  H15R18039   3.953   4.115   8.859 -0.6271 -0.1449 -1.4882
  161SOPE  H15S18040   4.042   4.008   8.742 -0.1751  1.2552 -1.1908
  161SOPE  C21618041   4.112   4.219   8.744 -0.4709 -0.5505 -0.1883
  161SOPE  H16R18042   4.205   4.197   8.687 -0.8534 -1.1196 -0.5992
  161SOPE  H16S18043   4.137   4.291   8.825 -0.3617  0.3329 -1.0028
  161SOPE  C21718044   4.012   4.274   8.644 -0.2234 -0.6521  0.1095
  161SOPE  H17R18045   3.993   4.199   8.564 -0.3243  0.4131 -0.8833
  161SOPE  H17S18046   4.049   4.368   8.599 -0.1743 -0.0719  1.3577
  161SOPE  C21818047   3.867   4.298   8.688 -0.0974  0.5931 -0.0748
  161SOPE  H18R18048   3.821   4.202   8.720 -1.5707  0.7713 -1.5458
  161SOPE  H18S18049   3.804   4.338   8.606 -1.1189  1.2680  1.0330
  161SOPE  H18T18050   3.865   4.353   8.784 -0.8019  0.1157  0.1895
  161SOPE   C3318051   4.736   3.990  10.112  0.6427 -0.2392 -0.7361
  161SOPE   H3X18052   4.833   3.959  10.156  1.0272  1.6611 -0.2073
  161SOPE   H3Y18053   4.724   4.100  10.119  0.0048 -0.3983  0.9395
  161SOPE   C3418054   4.751   3.962   9.965  0.7677 -0.0277 -0.6374
  161SOPE   H4X18055   4.677   4.024   9.910 -0.7356 -2.3437 -1.3226
  161SOPE   H4Y18056   4.729   3.853   9.952 -0.0399  0.2304 -1.5307
  161SOPE   C3518057   4.895   4.012   9.922 -0.4843  0.2045 -0.8018
  161SOPE   H5X18058   4.978   3.953   9.967 -0.4960  1.2014  0.5555
  161SOPE   H5Y18059   4.922   4.114   9.955  1.4132  0.0700 -1.8122
  161SOPE   C3618060   4.913   4.006   9.767  1.0385 -0.1658 -0.0116
  161SOPE   H6X18061   4.840   4.081   9.731 -0.4274 -0.9132  1.2903
  161SOPE   H6Y18062   4.883   3.911   9.718  0.2258  0.7352 -1.2894
  161SOPE   C3718063   5.056   4.045   9.728  0.2554  0.6564 -0.2258
  161SOPE   H7X18064   5.113   3.959   9.770 -0.0376  0.8398  0.5623
  161SOPE   H7Y18065   5.078   4.140   9.781  0.2413  1.7864 -2.2088
  161SOPE   C3818066   5.093   4.063   9.582 -0.9660 -0.4822 -0.5873
  161SOPE   H8X18067   5.065   3.983   9.511 -0.5055 -0.2705 -1.0067
  161SOPE   H8Y18068   5.204   4.068   9.586 -1.1097  2.1020  1.4428
  161SOPE   C3918069   5.031   4.191   9.532 -0.0898  0.0919  0.3364
  161SOPE   H9X18070   5.062   4.266   9.608 -0.2321 -0.1473  0.6320
  161SOPE   H9Y18071   4.921   4.176   9.530 -0.2016  1.0050 -0.5256
  161SOPE  C31018072   5.075   4.241   9.396  0.0602  0.4246  0.7988
  161SOPE  H10X18073   5.043   4.159   9.329 -0.6744  2.3788 -1.3235
  161SOPE  H10Y18074   5.184   4.266   9.388  0.2887 -0.7311  0.2588
  161SOPE  C31118075   5.023   4.379   9.349  0.0655 -0.0842  0.2675
  161SOPE  H11X18076   5.066   4.456   9.416 -0.2921 -0.3771  0.8282
  161SOPE  H11Y18077   4.915   4.391   9.371 -0.1989  0.1146 -1.0949
  161SOPE  C31218078   5.069   4.438   9.213  0.5709 -0.1182  0.6612
  161SOPE  H12X18079   5.177   4.417   9.202  0.6493 -0.2506  1.6189
  161SOPE  H12Y18080   5.055   4.548   9.220 -0.2972 -0.2247  0.7089
  161SOPE  C31318081   4.987   4.381   9.097  0.7970 -0.1403  0.4690
  161SOPE  H13X18082   4.880   4.410   9.107  0.3094 -1.9948  0.9632
  161SOPE  H13Y18083   4.998   4.271   9.105 -1.1825 -0.2149  2.6800
  161SOPE  C31418084   5.044   4.421   8.959 -0.8604 -0.3547  1.0571
  161SOPE  H14X18085   5.153   4.432   8.979 -1.0768  0.0895  2.0201
  161SOPE  H14Y18086   5.023   4.529   8.939 -1.1372 -0.3319  1.4857
  161SOPE  C31518087   5.008   4.317   8.854 -0.3940  0.0459 -0.3218
  161SOPE  H15X18088   4.899   4.307   8.834 -0.7118 -1.6441  2.0173
  161SOPE  H15Y18089   5.049   4.219   8.885  0.4077  0.0649 -1.3177
  161SOPE  C31618090   5.063   4.357   8.715  1.0210 -0.7157 -0.3885
  161SOPE  H16X18091   5.030   4.277   8.645 -0.1696 -1.9373  1.5098
  161SOPE  H16Y18092   5.174   4.363   8.721  1.2031 -2.9183 -1.0759
  161SOPE  C31718093   4.988   4.476   8.662  0.1550 -0.6344 -0.7950
  161SOPE  H17X18094   5.018   4.569   8.715 -2.4090 -0.6987  0.8871
  161SOPE  H17Y18095   4.883   4.458   8.694  0.5131 -0.3532  0.5831
  161SOPE  C31818096   4.997   4.504   8.512 -0.0218 -0.3968 -0.0994
  161SOPE  H18X18097   4.934   4.448   8.440  0.1256  0.2046 -0.7009
  161SOPE  H18Y18098   5.105   4.498   8.486  0.7696  1.6074  2.5018
  161SOPE  H18Z18099   4.961   4.607   8.491 -0.2429 -0.1006  1.7080
  162SOPE     N18100   3.184   4.366  11.110  0.1759 -0.0389 -0.5476
  162SOPE   HN118101   3.086   4.356  11.077 -1.1522  2.0581  2.5733
  162SOPE   HN218102   3.200   4.283  11.170  1.0072  0.1485 -0.5077
  162SOPE   HN318103   3.195   4.451  11.168  0.8671 -0.7468  0.3671
  162SOPE   C1218104   3.273   4.349  11.000 -0.4221 -0.3985  0.3781
  162SOPE  H12A18105   3.371   4.319  11.044 -1.2673 -1.3907  1.5968
  162SOPE  H12B18106   3.279   4.435  10.929 -2.2697  0.5088  1.2802
  162SOPE   C1118107   3.216   4.233  10.913 -0.3082 -0.8362  0.0554
  162SOPE  H11A18108   3.265   4.215  10.815 -1.2299 -2.8330 -0.0810
  162SOPE  H11B18109   3.109   4.247  10.888  0.2223  1.0215 -1.2568
  162SOPE     P18110   3.333   4.010  10.979 -0.1836  0.0921  0.0635
  162SOPE   O1318111   3.320   3.907  11.086 -0.7982  0.3172 -0.0496
  162SOPE   O1418112   3.459   4.078  10.962  0.2072 -0.1407  0.1482
  162SOPE   O1218113   3.210   4.120  10.993 -0.3849  0.0283 -0.0581
  162SOPE   O1118114   3.300   3.937  10.844 -0.1831 -0.3680  0.0040
  162SOPE    C118115   3.167   3.910  10.803  0.6967  0.1976 -0.1127
  162SOPE    HA18116   3.118   4.006  10.775  0.9538  1.6035  3.8338
  162SOPE    HB18117   3.108   3.870  10.888  2.1020  0.5011  1.0276
  162SOPE    C218118   3.174   3.802  10.690 -0.7561  0.4921  0.6486
  162SOPE    HS18119   3.241   3.716  10.713  0.9164  1.7695  0.6353
  162SOPE   O2118120   3.230   3.861  10.570  0.3490  0.2126 -0.3727
  162SOPE   C2118121   3.272   3.778  10.476  0.6904 -0.0484 -0.3010
  162SOPE   O2218122   3.259   3.656  10.473 -0.3462  0.4029 -0.1952
  162SOPE   C2218123   3.326   3.864  10.359 -0.0817 -0.2709 -0.0017
  162SOPE   H2R18124   3.414   3.814  10.314  1.0120  2.0668 -0.5840
  162SOPE   H2S18125   3.361   3.957  10.410  0.3789 -1.4944  1.9302
  162SOPE    C318126   3.032   3.733  10.669 -0.2816  0.7202 -0.3328
  162SOPE    HX18127   3.003   3.684  10.764  0.8182  0.7496  0.0181
  162SOPE    HY18128   3.035   3.644  10.603 -0.4308 -0.3298  1.0520
  162SOPE   O3118129   2.933   3.827  10.635  0.4286 -0.1047  0.9932
  162SOPE   C3118130   2.898   3.821  10.500 -0.0440 -0.0154 -0.5829
  162SOPE   O3218131   2.915   3.726  10.425 -0.1283 -0.1533 -0.2586
  162SOPE   C3218132   2.831   3.959  10.456  0.0392 -0.0504 -0.0431
  162SOPE   H2X18133   2.918   4.024  10.431  1.6771 -2.5602 -1.0741
  162SOPE   H2Y18134   2.771   3.990  10.544  2.0329  0.5976  1.1378
  162SOPE   C2318135   3.212   3.898  10.263 -0.9988  0.0350  0.8291
  162SOPE   H3R18136   3.126   3.942  10.318 -0.1035  0.9345  1.5376
  162SOPE   H3S18137   3.178   3.812  10.203  0.4599 -0.2202  0.3304
  162SOPE   C2418138   3.261   4.003  10.159  0.5220 -0.1960  0.0253
  162SOPE   H4R18139   3.299   4.095  10.209  0.5396  0.9059 -2.0004
  162SOPE   H4S18140   3.355   3.960  10.118 -1.0329 -4.1332  0.3639
  162SOPE   C2518141   3.153   4.018  10.050  0.9604 -0.0868  0.3914
  162SOPE   H5R18142   3.172   3.932   9.983 -0.5526  2.7873 -3.9287
  162SOPE   H5S18143   3.051   4.027  10.093  1.0206 -1.5870  0.8690
  162SOPE   C2618144   3.181   4.140   9.959 -0.2460  0.9487  0.1257
  162SOPE   H6R18145   3.180   4.235  10.017 -1.6001  2.3033 -2.0382
  162SOPE   H6S18146   3.284   4.129   9.919 -0.3638  0.7071 -0.1124
  162SOPE   C2718147   3.077   4.147   9.846 -0.0362  0.3013  0.6634
  162SOPE   H7R18148   3.105   4.081   9.761 -1.4732  2.6136 -1.6709
  162SOPE   H7S18149   2.979   4.114   9.887 -0.6277  1.0885 -0.1111
  162SOPE   C2818150   3.066   4.291   9.796  0.0139  0.4355  0.5995
  162SOPE   H8R18151   2.979   4.307   9.728  0.9362 -0.5446 -0.8458
  162SOPE   H8S18152   3.041   4.354   9.884  2.6604  0.2233  1.5299
  162SOPE   C2918153   3.202   4.322   9.725  0.3384 -0.4978  0.1455
  162SOPE   H9118154   3.284   4.343   9.795 -0.9303 -1.0846  1.8628
  162SOPE  C21018155   3.225   4.313   9.591 -0.7115  0.4652 -0.6323
  162SOPE  H10118156   3.323   4.336   9.546  0.9798 -1.9388  1.7246
  162SOPE  C21118157   3.135   4.264   9.484  0.3838 -0.5501 -0.1844
  162SOPE  H11R18158   3.095   4.350   9.426  0.2816 -0.6483 -0.2575
  162SOPE  H11S18159   3.040   4.225   9.525 -0.5066  1.1776 -0.5543
  162SOPE  C21218160   3.204   4.156   9.400  0.7775 -0.0477  0.4043
  162SOPE  H12R18161   3.146   4.072   9.356 -0.1406  1.0647 -0.5658
  162SOPE  H12S18162   3.277   4.098   9.461 -0.8696 -0.2205  2.2354
  162SOPE  C21318163   3.282   4.211   9.283 -0.0149  0.5723 -0.3858
  162SOPE  H13R18164   3.323   4.128   9.222 -1.1692  1.3183 -2.2250
  162SOPE  H13S18165   3.366   4.279   9.307  1.2151 -0.5055 -1.5773
  162SOPE  C21418166   3.188   4.281   9.177  0.7583 -0.2276  0.2635
  162SOPE  H14R18167   3.238   4.377   9.152  2.2207 -1.1313 -0.3683
  162SOPE  H14S18168   3.085   4.306   9.210  0.9921  0.0019  0.8469
  162SOPE  C21518169   3.181   4.209   9.043  0.4814 -0.3444 -0.0415
  162SOPE  H15R18170   3.131   4.111   9.060  3.7497 -2.0650  0.1925
  162SOPE  H15S18171   3.282   4.176   9.009  0.0561 -0.1115 -1.5910
  162SOPE  C21618172   3.125   4.291   8.929  0.0160 -0.0808  0.0159
  162SOPE  H16R18173   3.175   4.389   8.924  0.8384 -0.3252  2.6263
  162SOPE  H16S18174   3.020   4.319   8.952 -0.3197 -0.7892 -0.6201
  162SOPE  C21718175   3.118   4.219   8.793 -0.6026  0.1277  0.0178
  162SOPE  H17R18176   3.056   4.127   8.799 -0.8146  0.3300  0.9377
  162SOPE  H17S18177   3.220   4.195   8.758 -0.8380  0.9630 -1.2780
  162SOPE  C21818178   3.050   4.318   8.688  0.1808  0.6132  0.2170
  162SOPE  H18R18179   3.129   4.382   8.643  0.4393  1.4535  1.8460
  162SOPE  H18S18180   2.969   4.374   8.738 -1.4114 -1.6056  0.1882
  162SOPE  H18T18181   3.002   4.261   8.606  2.6663  0.1872 -1.0106
  162SOPE   C3318182   2.732   3.961  10.339 -0.5731 -0.0696 -0.6677
  162SOPE   H3X18183   2.647   3.893  10.358  0.4027 -2.1548 -3.4593
  162SOPE   H3Y18184   2.772   3.914  10.247 -1.1245  0.3155 -1.1172
  162SOPE   C3418185   2.681   4.099  10.304  0.5590 -0.4853  0.4413
  162SOPE   H4X18186   2.767   4.168  10.284  0.2725  0.5844  2.7374
  162SOPE   H4Y18187   2.637   4.152  10.391 -0.3885  0.8634 -0.8203
  162SOPE   C3518188   2.583   4.112  10.186  0.3929  0.2863  0.4773
  162SOPE   H5X18189   2.521   4.205  10.183 -0.4300 -0.3043 -1.0043
  162SOPE   H5Y18190   2.501   4.037  10.193  0.5392  0.0265 -0.5643
  162SOPE   C3618191   2.656   4.100  10.046 -0.0703  0.9904  0.9501
  162SOPE   H6X18192   2.694   3.996  10.038  1.2835  1.4350  1.5825
  162SOPE   H6Y18193   2.736   4.173  10.024 -0.4458  1.2845  0.5594
  162SOPE   C3718194   2.558   4.119   9.936  0.1409 -0.1850 -0.3279
  162SOPE   H7X18195   2.535   4.228   9.931  1.5822  0.0580 -1.7178
  162SOPE   H7Y18196   2.464   4.064   9.960 -0.4209  0.4276 -1.0804
  162SOPE   C3818197   2.617   4.077   9.798 -0.0475 -0.2387  0.4540
  162SOPE   H8X18198   2.660   3.975   9.789  1.9097  0.6223 -0.1936
  162SOPE   H8Y18199   2.699   4.144   9.766  0.9748 -0.7815  1.8893
  162SOPE   C3918200   2.505   4.087   9.682  0.1742 -0.6728 -0.0883
  162SOPE   H9X18201   2.423   4.015   9.705 -0.2150  0.3269  1.8042
  162SOPE   H9Y18202   2.553   4.053   9.588 -1.0868 -0.1759 -0.9317
  162SOPE  C31018203   2.454   4.227   9.655 -0.4427 -0.1412  0.3959
  162SOPE  H10X18204   2.547   4.287   9.644 -1.7031  1.6174 -1.0769
  162SOPE  H10Y18205   2.393   4.269   9.738 -2.5571 -2.0891 -0.1327
  162SOPE  C31118206   2.362   4.221   9.530  0.1670  0.0016 -0.8815
  162SOPE  H11X18207   2.288   4.147   9.568 -0.2551  0.1138 -1.4857
  162SOPE  H11Y18208   2.407   4.177   9.439 -0.7919 -0.0091 -1.3502
  162SOPE  C31218209   2.300   4.361   9.491  0.0127  0.4388 -0.1011
  162SOPE  H12X18210   2.381   4.426   9.451  0.5578 -0.1042  0.1187
  162SOPE  H12Y18211   2.249   4.407   9.579 -0.8419 -0.1564 -0.2787
  162SOPE  C31318212   2.183   4.340   9.391 -0.9183  0.4560  0.0978
  162SOPE  H13X18213   2.095   4.318   9.454  0.1441 -0.9725  1.1157
  162SOPE  H13Y18214   2.203   4.244   9.339 -1.8230 -1.3851  3.0246
  162SOPE  C31418215   2.159   4.451   9.289  0.5447  0.1432 -0.7773
  162SOPE  H14X18216   2.166   4.548   9.344 -4.2933  0.5189 -0.6066
  162SOPE  H14Y18217   2.055   4.440   9.250  0.0941  0.2331  0.3848
  162SOPE  C31518218   2.259   4.455   9.171 -0.1284  0.1083  0.0717
  162SOPE  H15X18219   2.257   4.359   9.116 -0.7226  0.9647 -1.4204
  162SOPE  H15Y18220   2.355   4.466   9.226 -2.1075  0.0416  3.7061
  162SOPE  C31618221   2.237   4.573   9.077 -0.2416 -0.1644 -0.0931
  162SOPE  H16X18222   2.230   4.667   9.136 -0.2545 -1.5331  2.1324
  162SOPE  H16Y18223   2.135   4.558   9.035  0.1038 -1.1988 -0.5678
  162SOPE  C31718224   2.345   4.577   8.977 -0.3239 -0.1023  0.0161
  162SOPE  H17X18225   2.365   4.479   8.930 -0.2555  0.0988 -0.3810
  162SOPE  H17Y18226   2.441   4.603   9.027 -0.5863 -3.3251  2.3312
  162SOPE  C31818227   2.320   4.671   8.863 -0.4517  0.6880 -0.0244
  162SOPE  H18X18228   2.310   4.776   8.897 -0.9409  0.0985  1.6852
  162SOPE  H18Y18229   2.220   4.652   8.819 -0.8500  0.2662  1.0440
  162SOPE  H18Z18230   2.401   4.673   8.787  1.8891 -1.5158  2.3428
  163SOPE     N18231   3.749   0.819  10.895  0.7017 -0.9252 -0.1242
  163SOPE   HN118232   3.689   0.899  10.868  0.3056 -0.6325  1.6098
  163SOPE   HN218233   3.822   0.797  10.823 -0.1608 -1.1621 -0.9389
  163SOPE   HN318234   3.697   0.729  10.899 -0.7629 -0.0706  0.1681
  163SOPE   C1218235   3.814   0.829  11.026 -0.0448  0.1588  0.6995
  163SOPE  H12A18236   3.883   0.743  11.036  1.1043  0.7926 -1.3383
  163SOPE  H12B18237   3.733   0.821  11.102  0.9700 -2.9724  1.4959
  163SOPE   C1118238   3.885   0.963  11.041 -0.0072 -0.0254 -0.4292
  163SOPE  H11A18239   3.904   0.979  11.149  1.5539 -2.5890 -0.2829
  163SOPE  H11B18240   3.816   1.046  11.013 -0.1338  0.2460  0.6501
  163SOPE     P18241   4.034   1.028  10.835 -0.0468 -0.4392 -0.4418
  163SOPE   O1318242   4.169   0.988  10.783 -0.0731 -0.3565  0.1705
  163SOPE   O1418243   4.006   1.169  10.857 -0.2188 -0.2333  0.6510
  163SOPE   O1218244   4.014   0.956  10.975 -0.0730  0.1023  0.2337
  163SOPE   O1118245   3.920   0.973  10.744  0.1347  0.0015  0.6027
  163SOPE    C118246   3.944   0.900  10.626 -0.0788 -0.5020 -0.0317
  163SOPE    HA18247   3.867   0.821  10.615 -0.2283 -1.0630  4.3179
  163SOPE    HB18248   4.040   0.844  10.624 -0.2928 -0.9975  2.3281
  163SOPE    C218249   3.928   0.991  10.498  0.0585  0.4457 -0.0270
  163SOPE    HS18250   4.005   1.069  10.513  3.1120 -2.7306  1.3712
  163SOPE   O2118251   3.801   1.054  10.488  0.5198 -0.2012  0.4852
  163SOPE   C2118252   3.783   1.148  10.397  0.5422 -0.3238  0.1351
  163SOPE   O2218253   3.872   1.228  10.368 -0.2541  0.2010 -0.0156
  163SOPE   C2218254   3.633   1.157  10.367  0.3064 -0.2107 -0.3482
  163SOPE   H2R18255   3.582   1.214  10.447  1.9303 -2.0673  2.0766
  163SOPE   H2S18256   3.580   1.059  10.361  0.5344 -0.4293  1.0106
  163SOPE    C318257   3.968   0.912  10.367 -0.0866 -0.7077 -0.1877
  163SOPE    HX18258   3.885   0.840  10.351 -0.2939 -0.2003 -1.4086
  163SOPE    HY18259   4.064   0.856  10.378  0.1584  0.2682  3.0918
  163SOPE   O3118260   3.977   0.994  10.253  0.2430 -0.6046  0.3749
  163SOPE   C3118261   4.008   0.932  10.141 -0.4331 -0.2980  0.2619
  163SOPE   O3218262   4.056   0.824  10.126  0.1656  0.1569  0.4975
  163SOPE   C3218263   3.987   1.033  10.029 -0.1868  0.2279 -0.0890
  163SOPE   H2X18264   4.091   1.065  10.008  0.6523 -2.4811 -0.1731
  163SOPE   H2Y18265   3.938   1.132  10.042 -1.4875 -0.2786 -1.0105
  163SOPE   C2318266   3.591   1.246  10.246 -0.4645  0.0703 -0.1151
  163SOPE   H3R18267   3.642   1.211  10.153 -0.1935 -1.0714  0.4577
  163SOPE   H3S18268   3.628   1.350  10.262  1.4077 -0.6019 -0.0590
  163SOPE   C2418269   3.442   1.249  10.214  0.0020  0.6587 -0.1791
  163SOPE   H4R18270   3.407   1.152  10.171 -0.3400 -0.0437  1.6577
  163SOPE   H4S18271   3.391   1.262  10.311 -2.3747 -0.0077 -1.3005
  163SOPE   C2518272   3.409   1.355  10.108 -0.3536  0.1357 -0.1826
  163SOPE   H5R18273   3.416   1.455  10.156  0.1141  0.7228 -1.4521
  163SOPE   H5S18274   3.486   1.346  10.028  1.3549 -2.7857  1.7214
  163SOPE   C2618275   3.269   1.340  10.052  0.3366  0.2351  0.5534
  163SOPE   H6R18276   3.257   1.231  10.034  1.2251  0.1317  0.5949
  163SOPE   H6S18277   3.197   1.361  10.135 -0.7372 -1.1110 -0.0003
  163SOPE   C2718278   3.238   1.426   9.926  0.0651  0.2207 -0.4588
  163SOPE   H7R18279   3.257   1.534   9.943 -0.2129  0.4138 -1.3429
  163SOPE   H7S18280   3.299   1.389   9.841 -0.2521 -0.0408 -0.5756
  163SOPE   C2818281   3.091   1.406   9.884 -0.1950  0.0561 -0.5414
  163SOPE   H8R18282   3.079   1.307   9.835 -0.2028 -1.6858  2.8481
  163SOPE   H8S18283   3.025   1.410   9.973 -1.1800  0.8230 -1.2947
  163SOPE   C2918284   3.042   1.509   9.787 -0.0847  0.3208 -0.3987
  163SOPE   H9118285   2.952   1.562   9.820  0.6920  1.7578 -0.5400
  163SOPE  C21018286   3.086   1.538   9.658 -0.4670 -0.1941 -1.1029
  163SOPE  H10118287   3.054   1.625   9.599 -2.1526  0.6091  0.9412
  163SOPE  C21118288   3.195   1.466   9.580  0.6233  0.5985 -0.4845
  163SOPE  H11R18289   3.237   1.384   9.642 -1.6617 -0.4399 -0.2380
  163SOPE  H11S18290   3.274   1.541   9.559  1.0000  0.4969  0.5447
  163SOPE  C21218291   3.156   1.387   9.450  0.1343 -0.2358  0.3805
  163SOPE  H12R18292   3.087   1.305   9.479 -2.5141  1.6365 -0.3292
  163SOPE  H12S18293   3.245   1.338   9.406  1.5388  1.3888  1.3653
  163SOPE  C21318294   3.088   1.470   9.343  0.3625 -0.1937 -0.0394
  163SOPE  H13R18295   3.174   1.536   9.318  0.0355 -0.4596 -1.9321
  163SOPE  H13S18296   3.003   1.529   9.385  0.5497  1.1377 -1.4680
  163SOPE  C21418297   3.046   1.387   9.220 -0.1751 -0.5007  0.5003
  163SOPE  H14R18298   2.973   1.308   9.248  0.7215 -1.5382 -0.0129
  163SOPE  H14S18299   3.131   1.321   9.190 -1.3381 -1.4073 -0.8380
  163SOPE  C21518300   3.010   1.496   9.110 -0.2122  0.5357 -0.0228
  163SOPE  H15R18301   3.092   1.567   9.090 -1.2546  0.9964 -2.8039
  163SOPE  H15S18302   2.918   1.539   9.156 -0.2683  1.2998 -0.8433
  163SOPE  C21618303   2.954   1.434   8.978  0.5844  0.8402 -0.7148
  163SOPE  H16R18304   2.917   1.520   8.919  2.4090  2.1411 -0.0199
  163SOPE  H16S18305   2.875   1.362   9.008  0.0883  2.5841  2.5139
  163SOPE  C21718306   3.053   1.340   8.903 -0.1391  0.7142  0.7421
  163SOPE  H17R18307   3.067   1.251   8.968  0.9390  0.5323  0.2658
  163SOPE  H17S18308   3.156   1.380   8.892  0.5702 -1.2471  0.0207
  163SOPE  C21818309   3.004   1.299   8.768  0.2167 -0.4545 -0.4680
  163SOPE  H18R18310   2.898   1.268   8.779 -0.0694  0.8509  0.6168
  163SOPE  H18S18311   3.061   1.211   8.729  3.0897  1.9883 -1.9624
  163SOPE  H18T18312   3.009   1.388   8.702 -1.2271  0.1963  0.3001
  163SOPE   C3318313   3.930   0.963   9.907  0.2299  0.8329  0.5054
  163SOPE   H3X18314   3.822   0.950   9.928 -0.1422  1.1424 -1.1070
  163SOPE   H3Y18315   3.982   0.866   9.892  1.5044  1.5220  0.3359
  163SOPE   C3418316   3.948   1.038   9.781  0.0734  0.2745 -0.7731
  163SOPE   H4X18317   4.056   1.063   9.774  0.1747  0.3370  0.7593
  163SOPE   H4Y18318   3.881   1.126   9.788  1.7047  1.7882 -3.2675
  163SOPE   C3518319   3.899   0.947   9.661  0.0402  0.2346  0.1183
  163SOPE   H5X18320   3.789   0.935   9.651  0.3486 -1.9616 -0.8556
  163SOPE   H5Y18321   3.929   0.842   9.676 -1.9013 -0.1686  1.4346
  163SOPE   C3618322   3.962   1.000   9.532 -0.2275 -0.3205  0.4038
  163SOPE   H6X18323   4.072   1.012   9.542 -0.2725  1.7984 -1.4204
  163SOPE   H6Y18324   3.931   1.106   9.528  0.5353  0.0564  3.4894
  163SOPE   C3718325   3.927   0.912   9.409  0.0315 -0.7876 -0.5481
  163SOPE   H7X18326   3.821   0.931   9.384  0.3423  0.2645 -1.1001
  163SOPE   H7Y18327   3.934   0.807   9.443  0.1183 -0.8340 -0.7085
  163SOPE   C3818328   4.019   0.932   9.287  0.1457  0.0764 -0.5236
  163SOPE   H8X18329   4.011   1.034   9.245  0.2909  0.6751  0.8777
  163SOPE   H8Y18330   3.985   0.867   9.204  1.1510  2.6146 -2.9882
  163SOPE   C3918331   4.168   0.917   9.310 -0.6762  0.2785 -0.4235
  163SOPE   H9X18332   4.187   0.837   9.384  2.5104 -0.3104 -1.8241
  163SOPE   H9Y18333   4.211   1.006   9.359  0.9541  0.7260 -2.5772
  163SOPE  C31018334   4.245   0.888   9.182  0.0602  0.2105  0.5305
  163SOPE  H10X18335   4.205   0.793   9.141 -2.7791  2.1603 -1.4307
  163SOPE  H10Y18336   4.354   0.876   9.201  0.4282  0.1433 -1.5090
  163SOPE  C31118337   4.225   0.993   9.071 -0.1015 -0.6979  0.9745
  163SOPE  H11X18338   4.263   1.094   9.099  2.2762 -1.1379 -0.5194
  163SOPE  H11Y18339   4.121   1.011   9.037  0.1678  0.2059  0.5945
  163SOPE  C31218340   4.292   0.941   8.942  0.1675 -0.6280  0.7520
  163SOPE  H12X18341   4.252   0.844   8.904  1.1109 -1.0092  0.6934
  163SOPE  H12Y18342   4.399   0.916   8.963  0.7169  0.3639 -0.7520
  163SOPE  C31318343   4.313   1.047   8.833  0.4080  0.6571  0.1226
  163SOPE  H13X18344   4.375   1.128   8.877 -0.2106  2.2247 -1.7893
  163SOPE  H13Y18345   4.213   1.091   8.812 -0.0601 -0.3845  0.1370
  163SOPE  C31418346   4.370   1.002   8.695  0.2899  0.7004 -0.5211
  163SOPE  H14X18347   4.458   0.939   8.719 -0.9171 -0.8153 -0.0093
  163SOPE  H14Y18348   4.401   1.096   8.644 -1.5107  1.9245  0.5933
  163SOPE  C31518349   4.270   0.940   8.596 -0.6385  0.7582  0.1748
  163SOPE  H15X18350   4.314   0.958   8.495  2.1118  0.8638  1.3684
  163SOPE  H15Y18351   4.182   1.008   8.607 -0.5132  0.7003  1.6234
  163SOPE  C31618352   4.222   0.796   8.627  0.3265 -0.1248 -0.4049
  163SOPE  H16X18353   4.140   0.799   8.702  0.4144  0.6679 -0.3311
  163SOPE  H16Y18354   4.309   0.741   8.666  0.5280 -0.1395 -0.8687
  163SOPE  C31718355   4.175   0.716   8.498  0.7190 -0.8382  0.5555
  163SOPE  H17X18356   4.250   0.727   8.417 -1.1898  0.2480 -1.1184
  163SOPE  H17Y18357   4.083   0.771   8.467  0.9566 -0.4975  0.4575
  163SOPE  C31818358   4.148   0.566   8.519 -0.1274  0.2500  0.5541
  163SOPE  H18X18359   4.108   0.518   8.428  1.0022  0.3458 -0.0004
  163SOPE  H18Y18360   4.085   0.553   8.610 -3.3652 -1.9730 -1.9245
  163SOPE  H18Z18361   4.246   0.516   8.533  0.4855  0.5749 -2.4147
  164SOPE     N18362   6.521   6.250  10.895  0.1533  0.1620 -0.8858
  164SOPE   HN118363   6.454   6.314  10.943 -0.0837  0.0715 -1.0908
  164SOPE   HN218364   6.497   6.152  10.917  2.4407 -0.4315 -0.9312
  164SOPE   HN318365   6.616   6.262  10.934 -0.3846 -3.7653  1.8793
  164SOPE   C1218366   6.512   6.291  10.752  1.0008 -0.1955 -0.4291
  164SOPE  H12A18367   6.406   6.276  10.723  0.1907  1.1395  1.7178
  164SOPE  H12B18368   6.578   6.217  10.701 -1.0473 -2.5755  0.2801
  164SOPE   C1118369   6.563   6.435  10.740  0.4117 -0.7204  0.2663
  164SOPE  H11A18370   6.518   6.503  10.815 -0.8119 -0.9601 -0.2320
  164SOPE  H11B18371   6.545   6.484  10.642  2.0996 -0.0998  0.2656
  164SOPE     P18372   6.794   6.562  10.745  0.2724  0.2127  0.0886
  164SOPE   O1318373   6.925   6.539  10.816 -0.0893 -0.1814  0.5664
  164SOPE   O1418374   6.705   6.666  10.795  0.5480  0.4878  0.2928
  164SOPE   O1218375   6.708   6.431  10.755  0.6503  0.0998  0.0620
  164SOPE   O1118376   6.818   6.600  10.597 -0.1678  0.0090  0.3280
  164SOPE    C118377   6.882   6.499  10.526 -0.0587 -0.1552 -0.1098
  164SOPE    HA18378   6.803   6.425  10.499 -1.6309  0.6659  2.1139
  164SOPE    HB18379   6.970   6.446  10.567 -0.8095 -0.1651  1.5077
  164SOPE    C218380   6.925   6.541  10.377  0.2025  0.5414  0.0837
  164SOPE    HS18381   6.922   6.446  10.320  0.9196  0.4549  0.1858
  164SOPE   O2118382   7.050   6.600  10.384  0.2993 -0.0112  0.7169
  164SOPE   C2118383   7.110   6.597  10.269  0.0943 -0.0398  0.2373
  164SOPE   O2218384   7.086   6.521  10.177 -0.4090  0.6854 -0.2916
  164SOPE   C2218385   7.225   6.703  10.272 -0.0535  0.9255  0.1420
  164SOPE   H2R18386   7.312   6.634  10.263 -1.5651 -1.1471  1.0085
  164SOPE   H2S18387   7.240   6.740  10.376 -1.1937 -1.6589  1.2834
  164SOPE    C318388   6.820   6.640  10.318 -0.3260 -0.3613 -1.1289
  164SOPE    HX18389   6.831   6.734  10.378 -4.5037  0.8229 -2.0101
  164SOPE    HY18390   6.715   6.609  10.341 -0.2736  0.3654  0.1720
  164SOPE   O3118391   6.830   6.672  10.183  0.0820 -0.1524  0.2091
  164SOPE   C3118392   6.792   6.578  10.094  0.1517 -0.2937  0.8266
  164SOPE   O3218393   6.735   6.476  10.121  0.5382  0.0695  0.2726
  164SOPE   C3218394   6.826   6.629   9.948 -0.2408  0.4706  0.2156
  164SOPE   H2X18395   6.838   6.537   9.888  1.2555  1.0383 -0.3950
  164SOPE   H2Y18396   6.933   6.661   9.947 -0.1045 -0.0312 -1.7697
  164SOPE   C2318397   7.233   6.806  10.158  0.3155 -0.1595  0.1706
  164SOPE   H3R18398   7.326   6.864  10.175 -1.0542  1.7514  1.3432
  164SOPE   H3S18399   7.158   6.883  10.185  0.5521  0.3727 -0.6522
  164SOPE   C2418400   7.236   6.751  10.018  0.6278  0.4541  0.0271
  164SOPE   H4R18401   7.324   6.683  10.010 -1.5449 -2.5692  0.6421
  164SOPE   H4S18402   7.149   6.683  10.005  0.8690  0.2317 -0.4498
  164SOPE   C2518403   7.242   6.860   9.904 -0.2226 -0.1870  0.3250
  164SOPE   H5R18404   7.301   6.946   9.943  0.8250 -1.0295  0.6379
  164SOPE   H5S18405   7.286   6.814   9.813  0.7156  2.8639 -0.8123
  164SOPE   C2618406   7.110   6.924   9.857  0.1787 -0.2588  0.5705
  164SOPE   H6R18407   7.053   6.844   9.805  1.3857 -1.3460  0.9039
  164SOPE   H6S18408   7.062   6.933   9.956 -0.9858 -0.4648  0.0325
  164SOPE   C2718409   7.123   7.055   9.774 -0.0759  0.2364  0.3187
  164SOPE   H7R18410   7.034   7.121   9.783  0.8714  1.4297  1.1598
  164SOPE   H7S18411   7.203   7.123   9.810  0.9731 -0.2040 -1.1342
  164SOPE   C2818412   7.148   7.023   9.631  0.6520 -0.0405  0.2292
  164SOPE   H8R18413   7.179   7.118   9.582  0.5808 -0.7159 -1.1396
  164SOPE   H8S18414   7.231   6.949   9.626  0.4695 -0.2963  0.9284
  164SOPE   C2918415   7.028   6.963   9.558  0.0558 -0.1831  0.1274
  164SOPE   H9118416   6.947   6.945   9.631  1.2406  1.0164  1.7518
  164SOPE  C21018417   7.011   6.936   9.425  0.2325  0.4514 -0.5766
  164SOPE  H10118418   6.924   6.878   9.389  0.7560 -1.2428  0.8503
  164SOPE  C21118419   7.108   6.957   9.313 -0.4680 -0.4073 -0.1769
  164SOPE  H11R18420   7.200   6.902   9.343 -0.1612 -0.4737 -1.2473
  164SOPE  H11S18421   7.129   7.066   9.309 -0.6324 -0.3020  1.3171
  164SOPE  C21218422   7.072   6.917   9.172 -0.4317 -0.2528  0.4660
  164SOPE  H12R18423   6.989   6.977   9.129 -2.0591 -2.2832  0.6979
  164SOPE  H12S18424   7.047   6.809   9.177 -1.1361 -0.0508  1.6099
  164SOPE  C21318425   7.191   6.944   9.068 -0.3121  0.3347 -0.3110
  164SOPE  H13R18426   7.159   6.886   8.979  3.3307 -0.4135 -1.2461
  164SOPE  H13S18427   7.281   6.892   9.109 -2.2980 -1.5778  1.7896
  164SOPE  C21418428   7.234   7.089   9.042 -0.1966 -0.1753 -0.4532
  164SOPE  H14R18429   7.270   7.134   9.137  0.8722 -0.3052 -0.7856
  164SOPE  H14S18430   7.141   7.134   9.001  0.1229  1.1068  0.1886
  164SOPE  C21518431   7.359   7.087   8.956  0.0934  0.8675 -0.1730
  164SOPE  H15R18432   7.413   6.992   8.978  0.3433  0.3107 -2.9811
  164SOPE  H15S18433   7.421   7.173   8.988 -0.4072  0.6476  1.4049
  164SOPE  C21618434   7.329   7.110   8.808  1.7400  0.4072 -0.4793
  164SOPE  H16R18435   7.271   7.200   8.777  1.2583 -0.6457 -2.7405
  164SOPE  H16S18436   7.277   7.019   8.771  0.8649  0.6296  0.1884
  164SOPE  C21718437   7.461   7.118   8.730 -0.1736  0.1467 -0.0975
  164SOPE  H17R18438   7.524   7.029   8.751 -0.3267 -0.7879 -3.3518
  164SOPE  H17S18439   7.516   7.211   8.757 -2.2301  1.0119  1.2618
  164SOPE  C21818440   7.448   7.122   8.578 -0.3178 -0.6032 -0.2493
  164SOPE  H18R18441   7.390   7.214   8.553  0.0875  0.0442  1.0839
  164SOPE  H18S18442   7.393   7.032   8.543 -0.6179 -0.0254 -1.2781
  164SOPE  H18T18443   7.547   7.117   8.527  1.2605  3.1063  2.1983
  164SOPE   C3318444   6.726   6.718   9.874 -0.1104 -0.6359  0.7104
  164SOPE   H3X18445   6.736   6.827   9.893  0.5754 -0.4698 -0.5540
  164SOPE   H3Y18446   6.627   6.682   9.910  0.5305 -2.5073  0.6263
  164SOPE   C3418447   6.719   6.696   9.717  0.0829 -0.0070 -0.5628
  164SOPE   H4X18448   6.717   6.586   9.701 -2.3552  0.2070 -2.0558
  164SOPE   H4Y18449   6.815   6.737   9.678  1.1652 -1.2179  0.8168
  164SOPE   C3518450   6.615   6.773   9.649 -0.0006 -0.3905 -0.1038
  164SOPE   H5X18451   6.595   6.872   9.696  0.0543 -0.1528 -0.5738
  164SOPE   H5Y18452   6.520   6.717   9.659 -0.8063  1.1834  1.2896
  164SOPE   C3618453   6.649   6.786   9.500  0.3337  0.2584 -1.0109
  164SOPE   H6X18454   6.748   6.836   9.488 -0.3581  1.6697 -0.9540
  164SOPE   H6Y18455   6.568   6.846   9.454 -1.6098 -2.0904 -0.7409
  164SOPE   C3718456   6.637   6.651   9.425 -0.4704  0.1739 -0.3371
  164SOPE   H7X18457   6.540   6.607   9.456 -0.6919 -0.1132 -1.4516
  164SOPE   H7Y18458   6.725   6.588   9.453  0.9781  1.1692 -2.5073
  164SOPE   C3818459   6.632   6.679   9.274  0.4383 -0.7929  0.0788
  164SOPE   H8X18460   6.537   6.728   9.241  1.0510 -0.3793 -1.0833
  164SOPE   H8Y18461   6.629   6.587   9.212 -0.3209 -1.2609  0.8007
  164SOPE   C3918462   6.749   6.763   9.207  0.2760  0.8689 -0.6417
  164SOPE   H9X18463   6.848   6.726   9.241 -1.8444 -3.8436  0.8381
  164SOPE   H9Y18464   6.741   6.862   9.258  1.4090  0.1217  1.0166
  164SOPE  C31018465   6.732   6.772   9.060  0.7294 -0.0303 -0.2805
  164SOPE  H10X18466   6.802   6.855   9.036  0.5327 -0.3821 -2.1118
  164SOPE  H10Y18467   6.628   6.800   9.034  0.9187 -0.1293 -1.1596
  164SOPE  C31118468   6.758   6.646   8.981 -0.1778  0.2810 -0.2508
  164SOPE  H11X18469   6.665   6.584   8.981  0.8348 -1.2967  0.8836
  164SOPE  H11Y18470   6.842   6.582   9.015 -0.3373 -0.5282 -1.3322
  164SOPE  C31218471   6.782   6.683   8.836  0.4670 -0.1773 -0.3731
  164SOPE  H12X18472   6.694   6.745   8.807  1.2480  0.8196 -0.6420
  164SOPE  H12Y18473   6.785   6.587   8.779  2.0335  0.4458 -1.3805
  164SOPE  C31318474   6.914   6.752   8.802  0.2555  0.2993 -0.2435
  164SOPE  H13X18475   6.986   6.693   8.741 -0.1477  1.5288 -1.9515
  164SOPE  H13Y18476   6.971   6.774   8.895  1.8541  0.9585 -1.3564
  164SOPE  C31418477   6.879   6.885   8.731 -0.0284 -0.4248 -0.2411
  164SOPE  H14X18478   6.822   6.956   8.794 -2.2809 -1.7832 -0.6678
  164SOPE  H14Y18479   6.815   6.859   8.644  0.4679  0.2892 -0.8254
  164SOPE  C31518480   7.004   6.962   8.676  0.6215 -0.3359  1.4427
  164SOPE  H15X18481   7.066   6.900   8.608  0.8891  1.1673  0.2768
  164SOPE  H15Y18482   7.074   6.981   8.760  0.5228  0.5802  1.3191
  164SOPE  C31618483   6.960   7.096   8.601 -0.7923 -0.1958  0.7603
  164SOPE  H16X18484   6.927   7.172   8.674 -2.8314  0.4165 -0.7540
  164SOPE  H16Y18485   6.879   7.055   8.536  1.0167 -1.0942 -1.0197
  164SOPE  C31718486   7.069   7.152   8.513  0.7286  0.0129 -0.3620
  164SOPE  H17X18487   7.098   7.074   8.440  0.6385  0.4417 -0.8572
  164SOPE  H17Y18488   7.158   7.168   8.577  0.7626 -2.5192  0.2915
  164SOPE  C31818489   7.031   7.273   8.434  0.1054 -0.0210 -0.1050
  164SOPE  H18X18490   7.126   7.299   8.382  0.8875 -0.5666  1.0048
  164SOPE  H18Y18491   6.992   7.352   8.502 -0.6172 -0.5283  0.0737
  164SOPE  H18Z18492   6.954   7.251   8.358 -0.3717  2.0548 -0.2490
  165SOPE     N18493   4.615   1.035  11.234  0.4684  0.2780  0.0276
  165SOPE   HN118494   4.594   1.093  11.318  0.1606  0.4891 -0.1938
  165SOPE   HN218495   4.623   1.110  11.162 -2.4997  0.2112 -0.4448
  165SOPE   HN318496   4.535   0.969  11.224 -0.3808  1.7912 -4.1916
  165SOPE   C1218497   4.727   0.947  11.252  0.0085 -0.0453 -1.0308
  165SOPE  H12A18498   4.702   0.865  11.322  0.3723  0.5323 -0.2142
  165SOPE  H12B18499   4.817   0.998  11.295  0.1588  0.4069 -1.8739
  165SOPE   C1118500   4.777   0.874  11.123 -0.4689  0.9059 -0.3513
  165SOPE  H11A18501   4.853   0.803  11.161 -1.6726  0.6977  1.6988
  165SOPE  H11B18502   4.822   0.955  11.061  2.4286  0.3569  0.9501
  165SOPE     P18503   4.668   0.777  10.908  0.3652 -0.3762 -0.0875
  165SOPE   O1318504   4.572   0.864  10.834  0.0713 -0.1377 -0.6100
  165SOPE   O1418505   4.660   0.629  10.886 -0.3524  0.3666 -0.0654
  165SOPE   O1218506   4.667   0.809  11.063 -0.3292 -0.1611 -0.3335
  165SOPE   O1118507   4.809   0.827  10.872 -0.6837  0.9783 -0.1440
  165SOPE    C118508   4.921   0.745  10.898  0.3016  0.2553 -0.0618
  165SOPE    HA18509   4.902   0.639  10.926 -0.8650  0.1444 -1.2161
  165SOPE    HB18510   4.988   0.789  10.975 -1.5377  0.8964  1.2024
  165SOPE    C218511   5.008   0.740  10.764 -0.0959 -0.2476 -0.4549
  165SOPE    HS18512   5.056   0.841  10.760  0.5170 -0.5898 -1.9986
  165SOPE   O2118513   4.923   0.721  10.648 -0.1898 -0.1989 -0.2083
  165SOPE   C2118514   4.967   0.770  10.533  0.6050 -0.0891  0.2850
  165SOPE   O2218515   5.066   0.834  10.519 -0.3197 -0.0746 -0.6901
  165SOPE   C2218516   4.878   0.710  10.423  0.1188  0.8096  0.1896
  165SOPE   H2R18517   4.779   0.761  10.425 -0.7676 -0.8321 -0.1786
  165SOPE   H2S18518   4.870   0.604  10.456  0.2106 -0.1883 -2.8098
  165SOPE    C318519   5.124   0.643  10.775 -0.4032 -0.3611 -0.0307
  165SOPE    HX18520   5.085   0.545  10.743  0.7251 -0.4344 -1.2144
  165SOPE    HY18521   5.144   0.650  10.884  2.0101  1.9751 -0.5672
  165SOPE   O3118522   5.239   0.689  10.704 -1.0556 -0.3385  0.0564
  165SOPE   C3118523   5.262   0.624  10.595 -0.0315 -0.5181 -0.1927
  165SOPE   O3218524   5.199   0.529  10.549  0.3019  0.8616  0.0562
  165SOPE   C3218525   5.378   0.697  10.525  0.5664  0.0758  0.0844
  165SOPE   H2X18526   5.464   0.681  10.592  0.6443 -1.0186 -0.2587
  165SOPE   H2Y18527   5.350   0.803  10.512 -2.6718 -0.5248  1.6203
  165SOPE   C2318528   4.942   0.713  10.284 -0.1006  0.0254 -0.2633
  165SOPE   H3R18529   5.009   0.625  10.272  1.0232  1.0123 -1.3415
  165SOPE   H3S18530   5.010   0.799  10.265  1.1063 -0.9701 -0.5584
  165SOPE   C2418531   4.852   0.701  10.168  0.3537  1.2365  0.5171
  165SOPE   H4R18532   4.769   0.630  10.189  0.9144  0.7373  1.1056
  165SOPE   H4S18533   4.799   0.798  10.161  0.4939  1.3548  1.0436
  165SOPE   C2518534   4.917   0.663  10.034 -0.1199 -0.1651  0.2070
  165SOPE   H5R18535   5.003   0.733  10.028  0.1980 -0.4417  1.2952
  165SOPE   H5S18536   4.961   0.561  10.045 -2.2239 -1.3313 -1.6216
  165SOPE   C2618537   4.818   0.687   9.910 -0.3520  0.7847 -0.1069
  165SOPE   H6R18538   4.729   0.620   9.912 -1.0777  1.6949 -1.3915
  165SOPE   H6S18539   4.762   0.782   9.922 -1.0498  0.0920  2.5299
  165SOPE   C2718540   4.881   0.674   9.773 -0.3658  0.1337  0.4061
  165SOPE   H7R18541   4.962   0.749   9.779 -2.1543  2.4337 -2.7044
  165SOPE   H7S18542   4.936   0.579   9.755 -0.6418  0.4425 -2.1194
  165SOPE   C2818543   4.782   0.708   9.662 -0.2707  0.2010  0.2922
  165SOPE   H8R18544   4.736   0.803   9.697 -0.6226  0.5780 -1.1641
  165SOPE   H8S18545   4.841   0.732   9.571 -0.9094 -0.6922 -0.3601
  165SOPE   C2918546   4.689   0.598   9.619 -0.3361 -0.4972  0.0508
  165SOPE   H9118547   4.687   0.515   9.691  2.2050 -1.3760 -0.8169
  165SOPE  C21018548   4.615   0.599   9.511  0.1654  0.1269 -0.6456
  165SOPE  H10118549   4.542   0.519   9.491  0.5879 -0.4276 -0.0028
  165SOPE  C21118550   4.600   0.710   9.415  0.0118 -0.0030  0.6300
  165SOPE  H11R18551   4.646   0.798   9.463  2.6747 -0.3265 -1.1746
  165SOPE  H11S18552   4.492   0.735   9.411 -0.0660 -0.4576 -0.2050
  165SOPE  C21218553   4.660   0.682   9.271 -0.0123  0.4165  0.3986
  165SOPE  H12R18554   4.758   0.634   9.292 -0.9456 -0.5701  2.5895
  165SOPE  H12S18555   4.676   0.778   9.216 -0.1179 -0.2575 -0.8366
  165SOPE  C21318556   4.583   0.581   9.184 -0.3447 -0.4688 -0.1176
  165SOPE  H13R18557   4.481   0.625   9.178 -0.1798 -0.2451 -1.4121
  165SOPE  H13S18558   4.589   0.483   9.236  1.7017 -0.6286 -0.5976
  165SOPE  C21418559   4.631   0.572   9.043  0.0914 -0.0633  1.0535
  165SOPE  H14R18560   4.733   0.528   9.047 -0.7055 -2.1837 -0.9923
  165SOPE  H14S18561   4.623   0.668   8.988 -0.1482 -0.5071  0.3105
  165SOPE  C21518562   4.552   0.478   8.957 -0.0186  0.9784 -0.4436
  165SOPE  H15R18563   4.451   0.517   8.934  0.1491  3.1386  2.2793
  165SOPE  H15S18564   4.543   0.386   9.018  1.0402  1.7072  0.8360
  165SOPE  C21618565   4.623   0.455   8.823 -0.0939  1.0713  0.6728
  165SOPE  H16R18566   4.723   0.410   8.839 -0.0118  1.3313  0.9058
  165SOPE  H16S18567   4.650   0.553   8.778  0.1645  0.0162 -1.5010
  165SOPE  C21718568   4.545   0.374   8.719 -0.1716 -0.0391 -0.0479
  165SOPE  H17R18569   4.488   0.445   8.657  0.2903  0.9190  0.6116
  165SOPE  H17S18570   4.471   0.308   8.769 -0.3731 -1.0100 -1.6019
  165SOPE  C21818571   4.628   0.275   8.638  0.3352  0.9021  0.3567
  165SOPE  H18R18572   4.718   0.321   8.592 -0.7662  1.1318 -1.6137
  165SOPE  H18S18573   4.560   0.243   8.556  0.9228  0.0103  0.2155
  165SOPE  H18T18574   4.660   0.185   8.695 -2.0193 -0.9548 -1.1486
  165SOPE   C3318575   5.433   0.652  10.390  0.3160  0.0393  0.3164
  165SOPE   H3X18576   5.456   0.543  10.394  2.4939  0.4193 -1.1136
  165SOPE   H3Y18577   5.536   0.689  10.373 -0.2770  1.4650 -0.2232
  165SOPE   C3418578   5.336   0.698  10.281 -0.0568  0.4948  0.0109
  165SOPE   H4X18579   5.328   0.809  10.279 -0.0580  0.5200  1.0957
  165SOPE   H4Y18580   5.239   0.651  10.306  0.1003 -0.8331 -1.7888
  165SOPE   C3518581   5.390   0.656  10.143 -0.0806 -0.2529  0.0687
  165SOPE   H5X18582   5.403   0.546  10.144 -1.7477 -0.4660  2.9010
  165SOPE   H5Y18583   5.493   0.693  10.127 -0.1922 -1.0600 -2.7949
  165SOPE   C3618584   5.295   0.705  10.035  0.5665 -0.0199 -0.7279
  165SOPE   H6X18585   5.295   0.815  10.024  2.9174  0.1322  0.4467
  165SOPE   H6Y18586   5.189   0.687  10.063  0.2956  1.8480 -0.5215
  165SOPE   C3718587   5.326   0.639   9.902  0.2278 -0.4712  0.2491
  165SOPE   H7X18588   5.333   0.529   9.912 -1.3709 -0.6795 -0.7502
  165SOPE   H7Y18589   5.425   0.678   9.869 -0.0735  0.8224  0.8308
  165SOPE   C3818590   5.232   0.687   9.794 -0.4017  0.0733 -0.6083
  165SOPE   H8X18591   5.228   0.797   9.812 -0.3523 -0.2938  1.7264
  165SOPE   H8Y18592   5.131   0.642   9.803  0.3398 -1.5821 -0.4793
  165SOPE   C3918593   5.279   0.652   9.651  0.3427 -0.5890  0.1245
  165SOPE   H9X18594   5.316   0.548   9.665 -0.5909 -0.9910 -0.3244
  165SOPE   H9Y18595   5.355   0.725   9.615  0.5499 -0.3957  0.9542
  165SOPE  C31018596   5.163   0.644   9.552  0.0080 -0.1581  0.1108
  165SOPE  H10X18597   5.100   0.735   9.548 -1.0848 -0.9483 -0.8535
  165SOPE  H10Y18598   5.095   0.561   9.582 -0.6364 -0.6883 -2.7549
  165SOPE  C31118599   5.210   0.624   9.412  0.3654 -0.4678  0.4686
  165SOPE  H11X18600   5.262   0.527   9.401 -0.6004 -0.9123 -0.3106
  165SOPE  H11Y18601   5.285   0.702   9.388  3.2805 -3.1101  0.6396
  165SOPE  C31218602   5.099   0.611   9.301 -0.1049  0.5505  0.4066
  165SOPE  H12X18603   5.019   0.683   9.327 -1.4752 -1.4103  1.7657
  165SOPE  H12Y18604   5.055   0.512   9.323 -0.1189  0.7931  1.4827
  165SOPE  C31318605   5.145   0.619   9.156  0.0469 -0.4591  0.2518
  165SOPE  H13X18606   5.221   0.541   9.133  0.0980 -0.3236 -0.0387
  165SOPE  H13Y18607   5.188   0.721   9.146 -1.7775  0.1926 -1.1309
  165SOPE  C31418608   5.025   0.618   9.064 -0.0938 -0.2733  0.3413
  165SOPE  H14X18609   4.946   0.691   9.093 -1.1225 -0.7498 -1.2118
  165SOPE  H14Y18610   4.969   0.522   9.065 -2.1960  0.8889 -0.6401
  165SOPE  C31518611   5.068   0.663   8.923 -0.4776 -0.1973 -0.5336
  165SOPE  H15X18612   5.141   0.594   8.876 -1.2662 -1.1903 -0.2972
  165SOPE  H15Y18613   5.108   0.767   8.931 -1.3134 -0.0702  2.3888
  165SOPE  C31618614   4.950   0.654   8.834  0.5737  0.2551  0.2165
  165SOPE  H16X18615   4.854   0.698   8.870 -0.5813 -0.2906 -2.0490
  165SOPE  H16Y18616   4.941   0.549   8.798  2.3158 -1.2234  3.8221
  165SOPE  C31718617   4.983   0.741   8.708 -0.2763 -0.4752 -0.0471
  165SOPE  H17X18618   5.070   0.699   8.654 -0.1213  0.1753 -0.3067
  165SOPE  H17Y18619   4.995   0.845   8.745 -1.5690 -0.2536 -0.2175
  165SOPE  C31818620   4.859   0.750   8.621 -0.0194  0.7448  0.6716
  165SOPE  H18X18621   4.773   0.780   8.684 -1.2184  0.7949 -0.9795
  165SOPE  H18Y18622   4.842   0.657   8.564  1.0919  2.8079 -3.1797
  165SOPE  H18Z18623   4.867   0.832   8.546 -1.4673  0.3821  0.1043
  166SOPE     N18624   1.733   6.360  10.821  0.4470  0.3126  0.9127
  166SOPE   HN118625   1.799   6.282  10.808 -2.7134 -2.1216 -1.3555
  166SOPE   HN218626   1.640   6.314  10.833 -0.0738  0.9393 -0.6744
  166SOPE   HN318627   1.734   6.406  10.728  0.2789  2.7528  2.0777
  166SOPE   C1218628   1.756   6.453  10.934 -0.3322  0.0617  0.0598
  166SOPE  H12A18629   1.764   6.388  11.024  1.2312  1.6186  1.0750
  166SOPE  H12B18630   1.667   6.518  10.951 -0.3797  0.8068 -2.7574
  166SOPE   C1118631   1.885   6.537  10.919 -0.1795  0.1221  0.0414
  166SOPE  H11A18632   1.962   6.468  10.880  0.2279  0.5545  0.0743
  166SOPE  H11B18633   1.897   6.576  11.022  0.7308 -1.4877  0.5744
  166SOPE     P18634   1.975   6.740  10.784  0.5362 -0.2591 -0.2437
  166SOPE   O1318635   2.101   6.671  10.751  0.2485 -0.0405  0.2452
  166SOPE   O1418636   1.969   6.845  10.890  0.0090  0.0940 -0.2042
  166SOPE   O1218637   1.857   6.644  10.818 -0.5672  0.2071  0.3991
  166SOPE   O1118638   1.916   6.812  10.657  0.3449  0.6204  0.5290
  166SOPE    C118639   1.785   6.843  10.617 -0.0680  0.1017  0.3549
  166SOPE    HA18640   1.705   6.785  10.668  2.6096 -3.4361  0.7681
  166SOPE    HB18641   1.770   6.813  10.511  1.1083  0.0748  0.1817
  166SOPE    C218642   1.757   6.993  10.622  0.3209 -0.4718 -0.0418
  166SOPE    HS18643   1.776   7.028  10.726  0.5728  2.2545 -0.9574
  166SOPE   O2118644   1.617   7.017  10.588 -0.5723  0.4965 -0.3451
  166SOPE   C2118645   1.585   7.141  10.635 -0.3905  1.1703  0.1759
  166SOPE   O2218646   1.651   7.212  10.702  0.2774 -0.3096  0.3078
  166SOPE   C2218647   1.444   7.173  10.589  0.6040 -0.3830 -0.1841
  166SOPE   H2R18648   1.374   7.107  10.646 -1.1378  1.9703  0.4825
  166SOPE   H2S18649   1.438   7.151  10.480  1.8144  1.7558 -0.6931
  166SOPE    C318650   1.858   7.072  10.537 -0.0406 -0.5148 -0.5492
  166SOPE    HX18651   1.955   7.045  10.584 -0.6977 -2.8923 -0.4684
  166SOPE    HY18652   1.842   7.181  10.547  0.0911 -0.4291 -1.2127
  166SOPE   O3118653   1.849   7.023  10.399 -0.6402 -0.3044  0.1662
  166SOPE   C3118654   1.762   7.087  10.324  0.4979  0.5028  0.2842
  166SOPE   O3218655   1.704   7.191  10.361 -0.6452 -0.4296 -0.0687
  166SOPE   C3218656   1.753   7.026  10.192 -0.4364  0.2068  0.2346
  166SOPE   H2X18657   1.697   6.930  10.200  0.4779 -0.3484 -0.0509
  166SOPE   H2Y18658   1.857   7.019  10.154 -0.5279  2.2220 -0.4389
  166SOPE   C2318659   1.404   7.325  10.616 -0.0456 -0.3067 -0.7841
  166SOPE   H3R18660   1.451   7.382  10.533  0.1820 -0.5822 -0.8439
  166SOPE   H3S18661   1.438   7.378  10.707 -2.4564  1.3727 -0.8035
  166SOPE   C2418662   1.254   7.363  10.617  0.0219  0.7332  0.8306
  166SOPE   H4R18663   1.206   7.299  10.695 -2.8670  0.1520 -1.3099
  166SOPE   H4S18664   1.246   7.471  10.643 -0.9326  0.7995  0.2797
  166SOPE   C2518665   1.178   7.342  10.480 -0.6706 -0.4312 -1.0612
  166SOPE   H5R18666   1.173   7.232  10.464 -0.0118 -0.6047 -0.1192
  166SOPE   H5S18667   1.072   7.376  10.484 -0.8370 -0.9676 -0.8906
  166SOPE   C2618668   1.242   7.396  10.352  0.1157  0.4921 -0.0888
  166SOPE   H6R18669   1.217   7.501  10.326  1.1380  0.8889  0.4998
  166SOPE   H6S18670   1.352   7.384  10.362  0.1776  1.4428  0.3409
  166SOPE   C2718671   1.223   7.322  10.220 -0.2207 -0.0831 -0.2289
  166SOPE   H7R18672   1.245   7.214  10.236  0.6056  0.1889  0.5203
  166SOPE   H7S18673   1.120   7.326  10.178  1.1469  2.1780 -3.5441
  166SOPE   C2818674   1.322   7.366  10.113  0.7424 -0.4405 -0.3478
  166SOPE   H8R18675   1.428   7.349  10.143  0.0832 -0.4109  2.0778
  166SOPE   H8S18676   1.308   7.283  10.040  0.7828 -1.4853  0.8042
  166SOPE   C2918677   1.320   7.502  10.051  0.4370 -0.2043  0.2509
  166SOPE   H9118678   1.383   7.576  10.102 -0.3168 -1.1887  2.6724
  166SOPE  C21018679   1.256   7.535   9.939 -0.2763  0.4074 -0.2716
  166SOPE  H10118680   1.260   7.643   9.920  2.2287  0.3487 -0.2408
  166SOPE  C21118681   1.166   7.443   9.859  0.2296 -0.1735 -0.5290
  166SOPE  H11R18682   1.065   7.488   9.870  0.7981  0.9531  0.0866
  166SOPE  H11S18683   1.153   7.341   9.903 -0.4870  1.5797  3.5244
  166SOPE  C21218684   1.208   7.432   9.710 -0.0432 -0.3642  0.0731
  166SOPE  H12R18685   1.131   7.373   9.655 -0.2585  1.8752 -2.1022
  166SOPE  H12S18686   1.302   7.372   9.709 -0.5739 -1.2165  0.3453
  166SOPE  C21318687   1.242   7.563   9.644  0.5187  0.2555  0.3122
  166SOPE  H13R18688   1.324   7.622   9.690 -0.4185 -0.3106  2.8121
  166SOPE  H13S18689   1.154   7.629   9.633  1.1024  1.1786  1.1194
  166SOPE  C21418690   1.289   7.532   9.502  0.3322  0.1745  0.3647
  166SOPE  H14R18691   1.203   7.505   9.438  0.9487  0.1108 -0.4509
  166SOPE  H14S18692   1.361   7.449   9.488 -1.0848 -1.0110  0.0351
  166SOPE  C21518693   1.354   7.644   9.432  1.0462  0.5451 -0.3294
  166SOPE  H15R18694   1.452   7.652   9.484  1.0219  0.7129 -0.3093
  166SOPE  H15S18695   1.314   7.741   9.467 -1.8211 -0.8567  0.4833
  166SOPE  C21618696   1.366   7.634   9.278  0.3596 -0.2521 -0.6080
  166SOPE  H16R18697   1.430   7.716   9.239  0.6875  0.5562  1.5343
  166SOPE  H16S18698   1.266   7.633   9.229  1.4289  2.9288 -3.0532
  166SOPE  C21718699   1.440   7.509   9.233  0.1738 -0.5206 -0.9057
  166SOPE  H17R18700   1.387   7.421   9.274 -0.0814  0.2889  0.5216
  166SOPE  H17S18701   1.540   7.502   9.282 -0.2315  1.3226  0.2327
  166SOPE  C21818702   1.461   7.491   9.080  0.4511  0.0749  0.2725
  166SOPE  H18R18703   1.525   7.568   9.034  0.4838 -0.6343 -0.8859
  166SOPE  H18S18704   1.358   7.486   9.038  0.8728 -0.7084 -0.6943
  166SOPE  H18T18705   1.512   7.393   9.069 -0.6009 -0.4590  0.0840
  166SOPE   C3318706   1.665   7.103  10.095 -0.6346  0.3679 -0.4450
  166SOPE   H3X18707   1.672   7.212  10.114  1.9850 -0.0625  1.2949
  166SOPE   H3Y18708   1.557   7.087  10.117 -0.6297 -0.9737 -1.3020
  166SOPE   C3418709   1.682   7.062   9.949  0.6995  0.3800  0.2027
  166SOPE   H4X18710   1.661   6.953   9.943  1.2781  0.2516  0.4533
  166SOPE   H4Y18711   1.785   7.076   9.910  0.4088  0.2766 -0.6115
  166SOPE   C3518712   1.588   7.135   9.849  0.2202 -0.1871 -0.3735
  166SOPE   H5X18713   1.484   7.132   9.889 -0.1140  0.6039 -1.1608
  166SOPE   H5Y18714   1.589   7.068   9.760  2.1510  0.0107 -0.5168
  166SOPE   C3618715   1.629   7.272   9.815  0.4001 -0.5129 -0.3850
  166SOPE   H6X18716   1.721   7.304   9.869  0.6070  1.3196 -1.7758
  166SOPE   H6Y18717   1.554   7.346   9.849  1.5819  0.8887 -0.7759
  166SOPE   C3718718   1.654   7.295   9.665 -0.2791  0.4345  0.2685
  166SOPE   H7X18719   1.686   7.398   9.638  2.1108 -0.3424  0.0072
  166SOPE   H7Y18720   1.563   7.280   9.604  0.8036  0.5019 -1.3859
  166SOPE   C3818721   1.773   7.206   9.623 -0.1102  0.3911 -0.0360
  166SOPE   H8X18722   1.758   7.101   9.656  0.0891  0.0666 -0.9758
  166SOPE   H8Y18723   1.863   7.243   9.679 -0.3248 -0.0755  0.6260
  166SOPE   C3918724   1.816   7.217   9.472  0.0543 -0.5116 -0.2348
  166SOPE   H9X18725   1.736   7.165   9.414 -1.0003 -0.9168  1.5464
  166SOPE   H9Y18726   1.910   7.158   9.463  0.3096 -0.4046  1.6150
  166SOPE  C31018727   1.841   7.363   9.431  0.0729 -0.8821  0.1778
  166SOPE  H10X18728   1.907   7.409   9.507 -0.5806  0.4970 -0.0646
  166SOPE  H10Y18729   1.749   7.423   9.448 -0.6962 -2.6391  2.4382
  166SOPE  C31118730   1.889   7.377   9.286 -0.3569  0.2759 -0.1045
  166SOPE  H11X18731   1.796   7.371   9.225  0.3532  2.4703 -1.4641
  166SOPE  H11Y18732   1.960   7.299   9.249 -0.6668  0.6383 -1.4903
  166SOPE  C31218733   1.943   7.519   9.271 -0.9492  0.0508 -0.1299
  166SOPE  H12X18734   2.026   7.533   9.344 -1.2612 -0.5954  0.3636
  166SOPE  H12Y18735   1.860   7.587   9.300  0.0125  0.7490  1.0420
  166SOPE  C31318736   1.996   7.549   9.129 -0.0591 -0.2761  0.6047
  166SOPE  H13X18737   2.084   7.484   9.105  0.0069  0.5281 -1.4635
  166SOPE  H13Y18738   2.035   7.653   9.122 -2.3914  0.6570  0.9772
  166SOPE  C31418739   1.892   7.516   9.023 -0.1449 -0.4644  0.0654
  166SOPE  H14X18740   1.798   7.557   9.064 -0.1549 -1.2728  0.8586
  166SOPE  H14Y18741   1.859   7.410   9.020  1.8084 -1.0830 -0.3963
  166SOPE  C31518742   1.909   7.571   8.879 -0.2491  0.5912  0.4964
  166SOPE  H15X18743   1.997   7.521   8.834 -0.1917  0.3220  0.8967
  166SOPE  H15Y18744   1.934   7.678   8.896 -1.0617  0.9219 -0.3698
  166SOPE  C31618745   1.791   7.554   8.782 -0.0409  0.8621  0.3220
  166SOPE  H16X18746   1.694   7.594   8.821 -0.5984 -1.0842  0.9732
  166SOPE  H16Y18747   1.768   7.445   8.789 -1.4542  1.1580  0.6302
  166SOPE  C31718748   1.824   7.595   8.643  0.0742  0.1784 -0.0236
  166SOPE  H17X18749   1.741   7.571   8.573 -1.6228 -0.0969  2.0226
  166SOPE  H17Y18750   1.922   7.551   8.615  0.6440 -0.1106  2.2784
  166SOPE  C31818751   1.844   7.745   8.643  0.6529 -0.0102  0.2958
  166SOPE  H18X18752   1.818   7.784   8.542 -1.5245 -1.1385  0.3877
  166SOPE  H18Y18753   1.944   7.787   8.667  0.9684 -0.3984 -0.3374
  166SOPE  H18Z18754   1.773   7.803   8.707 -0.6491 -1.7073  0.4163
  167SOPE     N18755   3.910   5.989   6.179 -0.4224  0.5383  0.7105
  167SOPE   HN118756   3.883   5.994   6.280  2.1083 -2.2888  1.6092
  167SOPE   HN218757   3.999   5.936   6.181 -1.4337 -1.2225  3.8106
  167SOPE   HN318758   3.930   6.088   6.158  2.9790 -0.6457 -1.9673
  167SOPE   C1218759   3.812   5.920   6.098 -0.2695 -0.2650 -0.4746
  167SOPE  H12A18760   3.780   5.830   6.155 -1.1989  0.7979  0.6999
  167SOPE  H12B18761   3.858   5.883   6.004 -0.3304 -0.4478 -0.4339
  167SOPE   C1118762   3.689   6.013   6.077 -0.8508  0.4710  0.3234
  167SOPE  H11A18763   3.625   5.945   6.016 -0.1359 -1.9853  2.2171
  167SOPE  H11B18764   3.721   6.105   6.024  1.4932 -0.2247  0.4811
  167SOPE     P18765   3.495   6.130   6.187  0.1900 -0.2205 -0.1864
  167SOPE   O1318766   3.386   6.040   6.135 -0.3889  0.2152  0.2931
  167SOPE   O1418767   3.532   6.249   6.112  0.1031  0.3558 -0.0231
  167SOPE   O1218768   3.627   6.040   6.206 -0.0849  0.6470  0.7714
  167SOPE   O1118769   3.449   6.162   6.337  0.3463 -0.4758  0.3250
  167SOPE    C118770   3.514   6.262   6.417 -0.0485  0.3739  1.0708
  167SOPE    HA18771   3.432   6.305   6.477 -1.7370 -1.4288  0.1028
  167SOPE    HB18772   3.550   6.344   6.352  0.6205  0.2598  1.2891
  167SOPE    C218773   3.615   6.201   6.514  0.0342 -0.5547  0.3973
  167SOPE    HS18774   3.597   6.092   6.513  0.2703 -0.5908 -2.0563
  167SOPE   O2118775   3.594   6.261   6.645 -0.0981  0.3768  0.2235
  167SOPE   C2118776   3.515   6.195   6.722  0.4211  0.1099 -0.4105
  167SOPE   O2218777   3.444   6.100   6.700 -1.0236  0.5948  0.4234
  167SOPE   C2218778   3.530   6.265   6.856  0.3505 -0.7046  0.5399
  167SOPE   H2R18779   3.477   6.363   6.855  0.2742 -0.7559 -0.7693
  167SOPE   H2S18780   3.635   6.280   6.889  0.1587 -1.1061  1.3517
  167SOPE    C318781   3.763   6.229   6.483 -0.7185  0.1142 -0.0400
  167SOPE    HX18782   3.784   6.337   6.472 -0.9486 -0.0191 -1.9398
  167SOPE    HY18783   3.777   6.189   6.380 -0.9862  0.1229 -0.0792
  167SOPE   O3118784   3.854   6.168   6.582  0.7111  0.4037  0.1457
  167SOPE   C3118785   3.891   6.044   6.549 -0.0442 -0.7997 -0.2203
  167SOPE   O3218786   3.855   5.980   6.449  0.5461 -0.5070 -0.5715
  167SOPE   C3218787   3.975   5.973   6.661  0.5284  0.0529 -0.0623
  167SOPE   H2X18788   4.072   6.006   6.618  0.9627 -1.4432 -0.2342
  167SOPE   H2Y18789   3.963   5.863   6.658  1.5891 -0.0526 -0.7632
  167SOPE   C2318790   3.467   6.191   6.981 -0.1957 -0.2873 -0.9696
  167SOPE   H3R18791   3.502   6.086   6.985  0.9056  0.0324 -1.8816
  167SOPE   H3S18792   3.358   6.176   6.968 -0.1537  0.2415 -2.0136
  167SOPE   C2418793   3.504   6.247   7.118 -0.4014 -0.3273  0.4025
  167SOPE   H4R18794   3.615   6.247   7.114 -0.2589  4.7228  1.5436
  167SOPE   H4S18795   3.464   6.350   7.120  0.1855 -0.1033  0.7470
  167SOPE   C2518796   3.449   6.161   7.233  0.1448  0.2139 -0.4761
  167SOPE   H5R18797   3.349   6.120   7.206  1.0915 -2.1028 -0.5720
  167SOPE   H5S18798   3.515   6.072   7.227  0.6845  0.5828 -0.0793
  167SOPE   C2618799   3.452   6.237   7.361  0.4309  0.1416  0.1388
  167SOPE   H6R18800   3.555   6.251   7.401 -0.5314  1.0681  2.3557
  167SOPE   H6S18801   3.415   6.342   7.356 -0.0621 -0.0448 -0.1467
  167SOPE   C2718802   3.374   6.168   7.472  0.0045  0.1461 -0.5370
  167SOPE   H7R18803   3.267   6.172   7.443 -0.4678  0.9299  1.3012
  167SOPE   H7S18804   3.416   6.065   7.479  1.0007  0.4768 -1.3760
  167SOPE   C2818805   3.374   6.249   7.598  0.0899  0.2974 -0.1485
  167SOPE   H8R18806   3.472   6.270   7.645  0.2169  1.1002 -0.7596
  167SOPE   H8S18807   3.330   6.350   7.586 -1.0489 -0.0046  1.4027
  167SOPE   C2918808   3.293   6.162   7.698 -0.7347 -0.4786 -0.3696
  167SOPE   H9118809   3.333   6.062   7.724 -3.0541 -0.6938  2.7000
  167SOPE  C21018810   3.171   6.192   7.741  0.4463  0.1022  0.0481
  167SOPE  H10118811   3.129   6.123   7.816 -0.2552 -0.6194 -1.0037
  167SOPE  C21118812   3.093   6.314   7.708  0.1180 -0.3367  0.6597
  167SOPE  H11R18813   2.997   6.282   7.661 -0.9718  0.7597  2.1108
  167SOPE  H11S18814   3.136   6.391   7.640  1.1216 -1.8089 -0.4116
  167SOPE  C21218815   3.045   6.374   7.836 -0.4242  0.7355  0.0393
  167SOPE  H12R18816   3.128   6.405   7.903  0.0440 -0.1646 -0.1300
  167SOPE  H12S18817   2.991   6.301   7.901  0.7348  0.2831  0.4925
  167SOPE  C21318818   2.961   6.504   7.815 -0.5850  0.1889 -0.0142
  167SOPE  H13R18819   2.903   6.482   7.723 -0.0266  0.2641 -0.3860
  167SOPE  H13S18820   3.026   6.583   7.772  2.2778 -2.0364  0.0676
  167SOPE  C21418821   2.875   6.547   7.933  0.9406  0.4382 -0.9028
  167SOPE  H14R18822   2.949   6.572   8.013  1.6749 -1.5770 -0.9202
  167SOPE  H14S18823   2.813   6.464   7.973  0.2077  0.8822 -1.1115
  167SOPE  C21518824   2.783   6.663   7.900 -0.9362  0.4285 -0.3640
  167SOPE  H15R18825   2.722   6.632   7.812 -1.6790  0.2972  0.1969
  167SOPE  H15S18826   2.852   6.745   7.871  0.7691 -0.8797 -0.0820
  167SOPE  C21618827   2.682   6.714   8.009 -0.2911  0.6035  0.5474
  167SOPE  H16R18828   2.649   6.817   7.982  0.3727  0.5135 -0.6543
  167SOPE  H16S18829   2.727   6.710   8.110  0.0590  1.4720  0.4312
  167SOPE  C21718830   2.551   6.623   8.024  0.3675 -0.8798  0.1303
  167SOPE  H17R18831   2.505   6.608   7.924  0.5655 -0.3760 -0.0383
  167SOPE  H17S18832   2.489   6.685   8.091  1.2970  0.1491  0.0616
  167SOPE  C21818833   2.569   6.481   8.080 -0.1904  0.1536  0.1501
  167SOPE  H18R18834   2.604   6.404   8.008  1.0302  0.4014  0.4765
  167SOPE  H18S18835   2.475   6.451   8.131  0.5083  1.2236  2.1260
  167SOPE  H18T18836   2.647   6.499   8.157  0.9066  1.5131 -1.2381
  167SOPE   C3318837   3.962   6.028   6.802  0.1531 -0.4634 -0.3183
  167SOPE   H3X18838   3.955   6.139   6.805  2.3667 -0.2731 -1.0857
  167SOPE   H3Y18839   4.062   6.006   6.847  0.0293  0.8534  0.6256
  167SOPE   C3418840   3.848   5.966   6.884  0.4092 -0.4568  0.0043
  167SOPE   H4X18841   3.864   5.856   6.897  2.3250 -0.2550 -0.4157
  167SOPE   H4Y18842   3.763   5.976   6.814  0.7227 -1.9266 -0.6053
  167SOPE   C3518843   3.830   6.028   7.018 -0.3510  0.3402  0.8169
  167SOPE   H5X18844   3.734   5.985   7.054  0.3368 -1.7719  0.2123
  167SOPE   H5Y18845   3.836   6.139   7.017  1.3415  0.2638 -1.0965
  167SOPE   C3618846   3.932   5.981   7.117 -0.5066 -0.1382 -0.5076
  167SOPE   H6X18847   4.034   6.023   7.108  0.7550 -2.5088  2.0642
  167SOPE   H6Y18848   3.947   5.877   7.082  1.4267 -0.0606  0.0555
  167SOPE   C3718849   3.890   5.965   7.261 -0.2042 -0.5487  0.0054
  167SOPE   H7X18850   3.977   5.936   7.324 -0.0463  1.4799  0.7779
  167SOPE   H7Y18851   3.809   5.889   7.266 -0.6895 -0.0123  0.3123
  167SOPE   C3818852   3.833   6.085   7.327 -0.4683 -0.1083 -0.3675
  167SOPE   H8X18853   3.749   6.125   7.264 -2.4012 -0.0171  2.1974
  167SOPE   H8Y18854   3.902   6.171   7.341 -0.6488  0.1431 -1.0005
  167SOPE   C3918855   3.775   6.048   7.462 -0.3379  0.0125  0.3580
  167SOPE   H9X18856   3.810   5.947   7.492  0.9016  0.4680  0.4967
  167SOPE   H9Y18857   3.665   6.038   7.450 -0.5407  1.4563  0.9583
  167SOPE  C31018858   3.804   6.145   7.573 -0.8939 -0.0986 -0.7020
  167SOPE  H10X18859   3.743   6.238   7.570  1.3566  1.4130 -0.6282
  167SOPE  H10Y18860   3.905   6.188   7.561  0.0879 -1.7567  1.2733
  167SOPE  C31118861   3.788   6.062   7.699 -0.0897 -0.4508 -0.1837
  167SOPE  H11X18862   3.856   5.975   7.687 -1.0124 -1.3301  0.8494
  167SOPE  H11Y18863   3.682   6.031   7.707 -0.1392  0.1356  1.3518
  167SOPE  C31218864   3.838   6.141   7.825 -0.3535 -0.0398 -0.1181
  167SOPE  H12X18865   3.810   6.248   7.815  0.6153  0.2577  0.3306
  167SOPE  H12Y18866   3.949   6.147   7.820 -0.5983  4.7460 -2.1803
  167SOPE  C31318867   3.810   6.069   7.957 -0.6849  0.2561 -0.1825
  167SOPE  H13X18868   3.879   6.116   8.030 -0.7322 -1.1407  0.7781
  167SOPE  H13Y18869   3.837   5.964   7.935 -0.0975  0.4096 -0.2000
  167SOPE  C31418870   3.660   6.070   7.985 -0.0466 -0.3428 -0.3486
  167SOPE  H14X18871   3.606   6.021   7.902 -0.7357  0.6377 -0.4957
  167SOPE  H14Y18872   3.634   6.178   7.992 -1.4537 -0.6090 -1.2371
  167SOPE  C31518873   3.628   6.002   8.114  0.2609 -0.4268 -0.2718
  167SOPE  H15X18874   3.656   5.895   8.116  1.5331 -0.0849  1.9662
  167SOPE  H15Y18875   3.517   6.011   8.120  0.2209 -1.1252  0.1263
  167SOPE  C31618876   3.687   6.072   8.237  0.0819  0.5735 -0.3481
  167SOPE  H16X18877   3.633   6.169   8.246  0.9882  1.2239 -1.8805
  167SOPE  H16Y18878   3.795   6.090   8.223  0.9279 -3.1503  0.6841
  167SOPE  C31718879   3.672   5.990   8.364 -0.1511 -0.2634  0.0989
  167SOPE  H17X18880   3.715   6.046   8.449  0.8018 -1.4508  0.4055
  167SOPE  H17Y18881   3.727   5.895   8.354  0.4563  0.1937 -1.0032
  167SOPE  C31818882   3.520   5.963   8.395 -0.4372  0.1241  0.3211
  167SOPE  H18X18883   3.515   5.899   8.485 -0.9364 -0.8873 -0.4237
  167SOPE  H18Y18884   3.460   5.913   8.316  0.9543  0.0600 -0.7074
  167SOPE  H18Z18885   3.468   6.053   8.436 -1.1211  0.2795 -0.8354
  168SOPE     N18886   3.600   3.758   6.279 -0.2677  0.5749  0.1397
  168SOPE   HN118887   3.696   3.745   6.240 -1.1792  1.1013 -2.3837
  168SOPE   HN218888   3.540   3.779   6.196  0.7877  0.1226 -0.7479
  168SOPE   HN318889   3.606   3.840   6.342  1.6033 -1.1153  2.2326
  168SOPE   C1218890   3.562   3.633   6.358 -0.8376  0.3573 -0.0056
  168SOPE  H12A18891   3.466   3.654   6.411 -0.6935  2.0620 -0.3875
  168SOPE  H12B18892   3.645   3.614   6.430 -0.5197 -2.8074 -1.1096
  168SOPE   C1118893   3.550   3.509   6.265  0.2411 -0.2524 -0.6971
  168SOPE  H11A18894   3.540   3.429   6.342 -2.4350  1.6525  1.0370
  168SOPE  H11B18895   3.643   3.514   6.205 -0.8299  0.4529 -2.3386
  168SOPE     P18896   3.290   3.449   6.233 -0.0653  0.0450 -0.6681
  168SOPE   O1318897   3.267   3.311   6.193  0.0373  0.8735  0.9687
  168SOPE   O1418898   3.181   3.548   6.210 -0.1088 -0.2097 -0.4432
  168SOPE   O1218899   3.432   3.504   6.181  0.2670  0.0171 -0.5529
  168SOPE   O1118900   3.312   3.451   6.391 -0.0178  0.5801 -0.1245
  168SOPE    C118901   3.286   3.328   6.463  0.8283  0.0761 -0.8169
  168SOPE    HA18902   3.383   3.300   6.509  0.7734  1.1225 -0.0588
  168SOPE    HB18903   3.244   3.242   6.406 -1.2190  0.4110  0.1392
  168SOPE    C218904   3.182   3.364   6.575 -0.5020 -0.8292  0.0269
  168SOPE    HS18905   3.088   3.400   6.526 -0.0932 -0.5765 -0.5786
  168SOPE   O2118906   3.244   3.459   6.663 -0.0535  0.4227 -0.2713
  168SOPE   C2118907   3.164   3.549   6.717  0.1062 -0.2512  0.0234
  168SOPE   O2218908   3.049   3.574   6.677 -0.0311 -0.4102  0.0825
  168SOPE   C2218909   3.230   3.621   6.829  0.0274 -0.3268  0.3699
  168SOPE   H2R18910   3.260   3.725   6.804 -1.6796  0.8032  2.7934
  168SOPE   H2S18911   3.327   3.575   6.859  0.0719 -0.3344  0.2155
  168SOPE    C318912   3.145   3.232   6.654 -0.3876 -0.4675  0.7927
  168SOPE    HX18913   3.247   3.212   6.694  0.3284  1.9547  0.2891
  168SOPE    HY18914   3.117   3.155   6.580  1.2801  1.1922 -1.6452
  168SOPE   O3118915   3.054   3.255   6.762  0.2401  0.5418 -0.4391
  168SOPE   C3118916   2.929   3.275   6.734  0.5914  0.3491  0.7886
  168SOPE   O3218917   2.883   3.290   6.620  0.3724  0.4245 -0.4167
  168SOPE   C3218918   2.852   3.281   6.862 -0.1431 -0.4228  0.2613
  168SOPE   H2X18919   2.916   3.274   6.952  0.9235  0.7035 -0.3845
  168SOPE   H2Y18920   2.780   3.197   6.850 -1.2476  0.5592 -0.0381
  168SOPE   C2318921   3.121   3.625   6.941  0.3838 -0.1483  0.5318
  168SOPE   H3R18922   3.086   3.523   6.968 -1.1772  0.0583 -0.6570
  168SOPE   H3S18923   3.030   3.686   6.922  2.5755  3.1513  0.1470
  168SOPE   C2418924   3.169   3.678   7.080 -0.5330  0.4649  0.5473
  168SOPE   H4R18925   3.215   3.779   7.076 -1.3589  0.8234  0.0743
  168SOPE   H4S18926   3.080   3.693   7.144 -1.4091  0.0259 -0.5679
  168SOPE   C2518927   3.254   3.569   7.145 -0.0266 -0.3876 -0.4598
  168SOPE   H5R18928   3.202   3.471   7.149 -1.9342  0.6966  2.6603
  168SOPE   H5S18929   3.345   3.552   7.083  1.3880 -0.9555  1.7172
  168SOPE   C2618930   3.313   3.612   7.278  0.1056 -0.1235  0.3143
  168SOPE   H6R18931   3.405   3.553   7.300  0.1819  0.0826  0.5418
  168SOPE   H6S18932   3.341   3.718   7.263  1.0932 -0.2688  1.0700
  168SOPE   C2718933   3.217   3.589   7.394 -0.4121 -0.0953  0.3380
  168SOPE   H7R18934   3.268   3.625   7.487 -0.3681 -0.0020  0.2776
  168SOPE   H7S18935   3.132   3.659   7.380  0.5900  0.3976 -4.0188
  168SOPE   C2818936   3.156   3.447   7.407 -0.8975 -0.1202  0.4065
  168SOPE   H8R18937   3.104   3.420   7.312 -1.6141  0.1583  0.7091
  168SOPE   H8S18938   3.240   3.375   7.404  0.5733  1.5887 -1.6293
  168SOPE   C2918939   3.065   3.433   7.530 -0.3585 -0.0403  0.2479
  168SOPE   H9118940   2.958   3.422   7.506 -0.8895  3.7227  0.5997
  168SOPE  C21018941   3.099   3.423   7.656  0.3056  0.8315  0.4158
  168SOPE  H10118942   3.015   3.407   7.726  0.4316 -2.7307 -0.1468
  168SOPE  C21118943   3.238   3.424   7.711 -0.2938  0.4100 -0.0019
  168SOPE  H11R18944   3.311   3.431   7.628 -1.1754  0.0805 -0.8095
  168SOPE  H11S18945   3.259   3.335   7.774 -0.1502  0.2200 -0.3228
  168SOPE  C21218946   3.262   3.543   7.803  0.3891  1.0435 -0.1131
  168SOPE  H12R18947   3.179   3.561   7.874  0.1178  1.8416 -0.6215
  168SOPE  H12S18948   3.265   3.630   7.734  2.4847 -2.3181 -4.5216
  168SOPE  C21318949   3.386   3.532   7.897 -0.4801 -0.0125 -0.3661
  168SOPE  H13R18950   3.382   3.620   7.964 -1.1865  0.3699 -0.9082
  168SOPE  H13S18951   3.481   3.537   7.841 -0.4171 -0.6851 -0.3249
  168SOPE  C21418952   3.388   3.401   7.987 -0.2598  0.1416 -0.3870
  168SOPE  H14R18953   3.411   3.323   7.911 -0.2553 -1.1604  0.9177
  168SOPE  H14S18954   3.286   3.402   8.030  0.2103  2.2916  0.7317
  168SOPE  C21518955   3.499   3.412   8.091 -0.3993 -0.4618  0.6184
  168SOPE  H15R18956   3.470   3.498   8.155 -1.4541 -1.8323  2.0253
  168SOPE  H15S18957   3.598   3.431   8.043 -1.0184 -1.2035 -0.9865
  168SOPE  C21618958   3.503   3.288   8.176  0.2482 -0.4677  0.4388
  168SOPE  H16R18959   3.527   3.193   8.125  1.0290 -1.5568  2.8145
  168SOPE  H16S18960   3.400   3.278   8.217 -0.4021  1.6863 -0.5691
  168SOPE  C21718961   3.608   3.305   8.288  0.1843 -0.3976  0.7672
  168SOPE  H17R18962   3.705   3.324   8.238  0.0543  1.5379  1.2297
  168SOPE  H17S18963   3.608   3.210   8.347 -0.7885 -0.8229  0.0961
  168SOPE  C21818964   3.587   3.415   8.386 -0.0143 -0.4512 -0.2307
  168SOPE  H18R18965   3.676   3.430   8.451 -0.7819  2.6235  0.1600
  168SOPE  H18S18966   3.509   3.384   8.459  0.8583 -0.8594  0.5444
  168SOPE  H18T18967   3.544   3.509   8.347 -0.3220 -0.1164  0.9076
  168SOPE   C3318968   2.771   3.417   6.868  0.2260  0.0912  0.1539
  168SOPE   H3X18969   2.741   3.461   6.771  1.0597 -0.7918 -0.5205
  168SOPE   H3Y18970   2.835   3.489   6.924 -1.6483  0.6175  1.6933
  168SOPE   C3418971   2.641   3.405   6.955  0.0188  0.0038 -0.0460
  168SOPE   H4X18972   2.575   3.324   6.919 -0.2403 -0.2230  0.9452
  168SOPE   H4Y18973   2.590   3.503   6.940 -0.1509 -0.1903 -0.7386
  168SOPE   C3518974   2.668   3.383   7.104 -0.4790  0.2848 -0.2231
  168SOPE   H5X18975   2.733   3.456   7.157 -0.6178  0.3485 -0.1401
  168SOPE   H5Y18976   2.730   3.292   7.087 -1.3865 -0.4979  0.5566
  168SOPE   C3618977   2.556   3.340   7.188 -0.2928 -0.6471 -0.0755
  168SOPE   H6X18978   2.485   3.267   7.145 -2.1397  0.7684  0.5389
  168SOPE   H6Y18979   2.494   3.428   7.211 -0.1757 -1.1451  2.3574
  168SOPE   C3718980   2.606   3.289   7.329  0.0395 -0.3644 -0.3433
  168SOPE   H7X18981   2.666   3.374   7.369 -1.2766  0.1283  0.6181
  168SOPE   H7Y18982   2.664   3.195   7.317 -0.7497 -0.8028 -0.7618
  168SOPE   C3818983   2.494   3.263   7.431 -0.1018 -0.5802 -0.2464
  168SOPE   H8X18984   2.549   3.269   7.528  1.5418 -1.1549 -1.1224
  168SOPE   H8Y18985   2.449   3.162   7.420 -2.5437  0.6817 -2.0735
  168SOPE   C3918986   2.390   3.379   7.434  0.2109 -0.5244 -0.3301
  168SOPE   H9X18987   2.310   3.378   7.358  0.0845 -1.5168 -0.1885
  168SOPE   H9Y18988   2.443   3.474   7.414  1.2929 -1.6313 -3.0124
  168SOPE  C31018989   2.330   3.382   7.572  0.4491 -0.1175 -0.3006
  168SOPE  H10X18990   2.406   3.416   7.647 -0.5819  0.0834  0.6746
  168SOPE  H10Y18991   2.295   3.280   7.600 -0.7191  0.3979  0.1662
  168SOPE  C31118992   2.210   3.476   7.593  0.7851  0.4087 -0.3225
  168SOPE  H11X18993   2.148   3.466   7.502  0.7074  1.4064 -0.3859
  168SOPE  H11Y18994   2.241   3.581   7.612  0.7363  0.3534  0.0800
  168SOPE  C31218995   2.122   3.431   7.714 -0.3191 -0.2614 -0.0680
  168SOPE  H12X18996   2.103   3.322   7.705 -0.2004 -0.2717 -0.1965
  168SOPE  H12Y18997   2.023   3.481   7.714 -0.6162 -0.8259  0.7676
  168SOPE  C31318998   2.185   3.458   7.851  0.0997 -0.3039  0.4426
  168SOPE  H13X18999   2.229   3.556   7.824 -1.0790  0.0758 -0.1620
  168SOPE  H13Y19000   2.268   3.389   7.878 -0.0505 -0.1881  1.1957
  168SOPE  C31419001   2.084   3.467   7.960  0.1296  0.3783  0.4576
  168SOPE  H14X19002   2.039   3.367   7.977 -2.7438  1.5818  0.1108
  168SOPE  H14Y19003   1.997   3.532   7.941 -0.9441 -1.4862 -1.1859
  168SOPE  C31519004   2.148   3.492   8.093  0.2918 -0.3156  0.1455
  168SOPE  H15X19005   2.184   3.596   8.086  0.5671 -0.5354 -1.8541
  168SOPE  H15Y19006   2.243   3.435   8.108  2.7690  3.9594  1.4855
  168SOPE  C31619007   2.060   3.481   8.221 -0.3136  0.2112  0.8672
  168SOPE  H16X19008   2.000   3.389   8.209 -0.5968  0.7029 -2.0196
  168SOPE  H16Y19009   1.986   3.564   8.222  0.0961  0.5884  0.4414
  168SOPE  C31719010   2.133   3.480   8.357  0.0610  0.0875  0.7089
  168SOPE  H17X19011   2.195   3.572   8.364  0.0347  0.2415 -0.9065
  168SOPE  H17Y19012   2.204   3.394   8.353 -2.4068 -2.0578  1.9804
  168SOPE  C31819013   2.031   3.480   8.472 -0.3490 -0.2796 -0.1193
  168SOPE  H18X19014   2.090   3.496   8.565  0.2393 -1.4671 -0.2804
  168SOPE  H18Y19015   1.976   3.383   8.479 -4.2434  1.8187 -0.0565
  168SOPE  H18Z19016   1.965   3.569   8.470  1.1399  0.7960 -2.3120
  169SOPE     N19017   5.031   5.371   6.199  0.8687  0.3965 -0.6267
  169SOPE   HN119018   5.038   5.278   6.153  4.0921  0.7283 -0.9379
  169SOPE   HN219019   4.944   5.423   6.179 -1.3984 -2.9637  0.1193
  169SOPE   HN319020   5.103   5.435   6.159 -0.0692  1.4830 -0.6067
  169SOPE   C1219021   5.040   5.341   6.347 -0.4206  0.2505  0.3317
  169SOPE  H12A19022   5.132   5.284   6.373 -0.5473 -0.2635 -0.3236
  169SOPE  H12B19023   4.952   5.277   6.369  0.1903 -1.5918 -2.3066
  169SOPE   C1119024   5.043   5.466   6.427 -0.1395 -0.5686 -0.2383
  169SOPE  H11A19025   5.048   5.451   6.537 -2.1532  1.0671  0.1046
  169SOPE  H11B19026   4.949   5.523   6.407 -0.4305 -1.8121 -2.6935
  169SOPE     P19027   5.292   5.579   6.443  0.0746  0.0812  0.3367
  169SOPE   O1319028   5.342   5.711   6.383  0.2762  0.1813  0.3711
  169SOPE   O1419029   5.373   5.460   6.419  0.2479 -0.4235  0.7124
  169SOPE   O1219030   5.157   5.548   6.382  0.5550 -0.1707 -0.0358
  169SOPE   O1119031   5.269   5.596   6.600 -0.6641  0.3735  0.2230
  169SOPE    C119032   5.384   5.626   6.682  0.3405 -0.8294  0.3269
  169SOPE    HA19033   5.370   5.727   6.726  3.1735 -0.0431 -0.4769
  169SOPE    HB19034   5.484   5.614   6.636  0.0616 -0.6689 -0.3330
  169SOPE    C219035   5.378   5.527   6.797 -0.0184 -0.1917 -0.9563
  169SOPE    HS19036   5.454   5.569   6.866 -0.0747 -0.5882 -0.6467
  169SOPE   O2119037   5.404   5.386   6.760 -0.2537 -0.2204  0.6136
  169SOPE   C2119038   5.532   5.352   6.776 -0.2346  0.2565 -0.3785
  169SOPE   O2219039   5.622   5.425   6.808 -0.3245 -0.6325  0.0596
  169SOPE   C2219040   5.551   5.202   6.763 -0.0046 -0.5768  0.0901
  169SOPE   H2R19041   5.652   5.171   6.796 -0.3754 -1.2885  0.5722
  169SOPE   H2S19042   5.539   5.174   6.656 -3.3208  1.7078 -0.2280
  169SOPE    C319043   5.246   5.523   6.878  0.0245  0.3493  0.7675
  169SOPE    HX19044   5.163   5.494   6.811 -0.0413  1.3056  0.4220
  169SOPE    HY19045   5.215   5.626   6.906 -0.6362  0.9602 -2.0465
  169SOPE   O3119046   5.261   5.440   6.996  0.2755 -0.4465  0.4439
  169SOPE   C3119047   5.200   5.327   6.994 -0.1693  0.2804 -0.0748
  169SOPE   O3219048   5.141   5.278   6.902 -0.0478  0.2768 -0.1613
  169SOPE   C3219049   5.212   5.274   7.138  0.4584 -0.3113 -0.0978
  169SOPE   H2X19050   5.219   5.361   7.206 -2.6980 -0.3566  0.3735
  169SOPE   H2Y19051   5.303   5.212   7.150 -1.4933 -3.9930 -3.0084
  169SOPE   C2319052   5.448   5.120   6.834  0.0610  0.0793 -0.5334
  169SOPE   H3R19053   5.346   5.126   6.790  0.3519  0.2032 -1.1958
  169SOPE   H3S19054   5.435   5.150   6.940 -0.6597  2.9654 -1.4063
  169SOPE   C2419055   5.491   4.977   6.856 -0.8785 -0.0794  0.4013
  169SOPE   H4R19056   5.495   4.936   6.753  1.3219  1.1794 -0.0564
  169SOPE   H4S19057   5.580   4.965   6.921  0.2761  0.9293 -0.9613
  169SOPE   C2519058   5.386   4.888   6.921 -0.2759  0.4752  0.0594
  169SOPE   H5R19059   5.287   4.919   6.880  0.0785  3.1304  1.0858
  169SOPE   H5S19060   5.405   4.782   6.895 -0.6011  0.1470  1.1401
  169SOPE   C2619061   5.396   4.899   7.072 -0.7393  0.0095  0.6431
  169SOPE   H6R19062   5.498   4.869   7.105  0.3740  2.9156 -0.0333
  169SOPE   H6S19063   5.385   5.007   7.097 -0.8313  0.5171 -1.5388
  169SOPE   C2719064   5.289   4.811   7.145  0.0069  0.2942 -0.0171
  169SOPE   H7R19065   5.190   4.851   7.114  0.0400  1.5035  1.3740
  169SOPE   H7S19066   5.297   4.709   7.102  0.9308 -0.3085  1.5753
  169SOPE   C2819067   5.307   4.797   7.301  0.1445  0.3168  0.3413
  169SOPE   H8R19068   5.392   4.732   7.329 -0.7906 -0.6876  0.8870
  169SOPE   H8S19069   5.315   4.900   7.344 -1.9323  0.6830 -0.0872
  169SOPE   C2919070   5.183   4.728   7.350  0.7969 -0.1947  0.1969
  169SOPE   H9119071   5.142   4.647   7.287  0.5903 -1.0435  1.3999
  169SOPE  C21019072   5.119   4.753   7.463  0.6131 -0.3983 -0.2167
  169SOPE  H10119073   5.031   4.692   7.489 -1.0207  2.7096  1.8957
  169SOPE  C21119074   5.150   4.848   7.572  0.1015  0.0641 -0.1989
  169SOPE  H11R19075   5.063   4.910   7.603  1.3661  1.7877 -0.0185
  169SOPE  H11S19076   5.220   4.929   7.544 -0.0950 -0.7560 -3.2323
  169SOPE  C21219077   5.202   4.777   7.693  0.1809 -0.2433 -0.8747
  169SOPE  H12R19078   5.282   4.705   7.664 -0.9174 -0.6522 -2.9607
  169SOPE  H12S19079   5.125   4.715   7.745 -1.7629  2.2410 -0.7070
  169SOPE  C21319080   5.243   4.872   7.806 -0.2649  0.2147 -0.6514
  169SOPE  H13R19081   5.154   4.933   7.831  0.0276 -0.4145  2.0826
  169SOPE  H13S19082   5.313   4.948   7.764 -0.0567 -0.6618 -1.9363
  169SOPE  C21419083   5.308   4.821   7.941  0.2973  0.1204 -0.5129
  169SOPE  H14R19084   5.387   4.749   7.910  0.9770  1.6366 -2.4564
  169SOPE  H14S19085   5.228   4.780   8.006  0.1790 -0.1489 -0.8235
  169SOPE  C21519086   5.361   4.945   8.019 -0.6366 -0.2429 -0.5331
  169SOPE  H15R19087   5.270   4.999   8.053 -1.3543 -1.4382 -0.5176
  169SOPE  H15S19088   5.412   5.006   7.942 -2.6751 -0.0213 -1.7496
  169SOPE  C21619089   5.458   4.915   8.131  0.1577  0.1811  0.4138
  169SOPE  H16R19090   5.554   4.876   8.090  1.2017  1.8546  1.2017
  169SOPE  H16S19091   5.427   4.831   8.196  0.4967  0.5345  1.0361
  169SOPE  C21719092   5.476   5.036   8.223  0.0826 -0.9111 -0.2954
  169SOPE  H17R19093   5.373   5.060   8.257 -0.5074 -0.7969 -2.1037
  169SOPE  H17S19094   5.518   5.128   8.176 -0.3599  0.1319  1.2996
  169SOPE  C21819095   5.550   5.008   8.357 -0.5674  0.0946  0.2115
  169SOPE  H18R19096   5.505   5.057   8.446  1.3052 -0.8985  1.7696
  169SOPE  H18S19097   5.659   5.026   8.342 -0.8123 -0.4663 -2.3783
  169SOPE  H18T19098   5.544   4.902   8.392  0.3137  0.1160  0.4377
  169SOPE   C3319099   5.093   5.188   7.178 -0.3147 -0.1445  0.4377
  169SOPE   H3X19100   5.104   5.085   7.137 -0.0867 -1.0244  2.6158
  169SOPE   H3Y19101   5.002   5.240   7.141  0.3604 -0.2580 -1.4169
  169SOPE   C3419102   5.085   5.173   7.331  0.5099  0.3038 -0.1046
  169SOPE   H4X19103   5.187   5.192   7.373  1.4163 -0.6914 -1.8052
  169SOPE   H4Y19104   5.048   5.074   7.363  1.5182 -0.3703 -0.9964
  169SOPE   C3519105   4.995   5.292   7.382  0.3881  0.1338 -0.5707
  169SOPE   H5X19106   4.888   5.270   7.363  0.3561 -0.5956  0.3942
  169SOPE   H5Y19107   5.007   5.372   7.307  0.9600  0.5855 -0.0073
  169SOPE   C3619108   5.016   5.328   7.527  0.1995  0.4867 -0.8194
  169SOPE   H6X19109   4.951   5.411   7.561  1.2548  0.7998  0.4919
  169SOPE   H6Y19110   5.121   5.364   7.538  0.7908 -0.9731 -1.5001
  169SOPE   C3719111   4.993   5.215   7.630 -0.3426  0.2200 -0.3845
  169SOPE   H7X19112   5.061   5.128   7.619  0.2596  0.4174  1.5558
  169SOPE   H7Y19113   4.891   5.184   7.600  0.3008 -1.2669 -1.0613
  169SOPE   C3819114   5.017   5.271   7.769 -0.1864 -0.4977 -0.7997
  169SOPE   H8X19115   4.972   5.372   7.779  1.4344  0.1299  0.6492
  169SOPE   H8Y19116   4.959   5.221   7.849  0.2024 -0.5175 -0.5249
  169SOPE   C3919117   5.169   5.264   7.805 -0.6858  0.0168 -0.7424
  169SOPE   H9X19118   5.205   5.360   7.762 -2.1835  0.7327 -0.4103
  169SOPE   H9Y19119   5.213   5.178   7.750  1.1463 -0.4922  1.4347
  169SOPE  C31019120   5.189   5.260   7.960 -0.4365 -0.5812  0.7200
  169SOPE  H10X19121   5.298   5.244   7.973 -0.5823 -0.3013  2.3220
  169SOPE  H10Y19122   5.137   5.174   8.008  1.6022 -3.1709 -1.5756
  169SOPE  C31119123   5.133   5.385   8.026 -0.0086 -0.0569  0.3342
  169SOPE  H11X19124   5.023   5.376   8.013  0.1644 -0.4070 -0.9410
  169SOPE  H11Y19125   5.162   5.477   7.969 -0.5788 -0.9508 -1.4426
  169SOPE  C31219126   5.162   5.403   8.169  0.4259 -0.6314 -0.1102
  169SOPE  H12X19127   5.139   5.509   8.191 -1.4527 -1.4491  2.0709
  169SOPE  H12Y19128   5.271   5.384   8.180  0.0692 -1.5950  1.9721
  169SOPE  C31319129   5.071   5.326   8.270 -0.3577 -0.3927 -0.2439
  169SOPE  H13X19130   5.090   5.221   8.240 -0.4110 -0.6083  0.4683
  169SOPE  H13Y19131   4.966   5.364   8.270  0.6229  2.4719  0.9491
  169SOPE  C31419132   5.114   5.338   8.419  0.3976 -0.3234  0.0534
  169SOPE  H14X19133   5.224   5.332   8.422  0.5505  2.1068 -0.1706
  169SOPE  H14Y19134   5.069   5.257   8.482  0.8130 -0.4366  0.2034
  169SOPE  C31519135   5.079   5.468   8.484  0.0875 -0.0270 -1.0465
  169SOPE  H15X19136   4.977   5.496   8.449 -1.4306  0.4872  3.5040
  169SOPE  H15Y19137   5.151   5.544   8.447  0.4767  0.5779  0.9196
  169SOPE  C31619138   5.090   5.456   8.639  0.3577  0.0151  0.5946
  169SOPE  H16X19139   5.181   5.507   8.677 -0.1238  0.9822  0.4481
  169SOPE  H16Y19140   5.097   5.349   8.669 -1.0281  0.1218  1.3065
  169SOPE  C31719141   4.986   5.526   8.716  0.1815  0.4257 -1.1525
  169SOPE  H17X19142   4.887   5.480   8.694  0.3377 -0.0597 -0.8393
  169SOPE  H17Y19143   4.983   5.635   8.692  1.0728  0.9089  0.8319
  169SOPE  C31819144   5.006   5.509   8.870 -0.4095  0.0162  0.3116
  169SOPE  H18X19145   5.099   5.560   8.904 -1.0348  1.7237 -0.4308
  169SOPE  H18Y19146   5.025   5.402   8.891  0.0509  0.4573  2.2006
  169SOPE  H18Z19147   4.919   5.540   8.932  0.6828 -0.1637  1.9716
  170SOPE     N19148   6.118   4.169   6.172  0.5830 -0.1342  0.0072
  170SOPE   HN119149   6.062   4.248   6.135  1.9812  0.9802  0.2481
  170SOPE   HN219150   6.218   4.195   6.171  0.7406 -0.7277 -1.2879
  170SOPE   HN319151   6.113   4.086   6.108  2.3048 -0.3410  0.1323
  170SOPE   C1219152   6.068   4.129   6.306 -0.0034 -0.1074 -0.2274
  170SOPE  H12A19153   6.058   4.218   6.372 -0.6619  1.2396 -2.1231
  170SOPE  H12B19154   6.141   4.059   6.353  0.1490  0.3510  0.2199
  170SOPE   C1119155   5.942   4.044   6.298  0.3048 -0.4860  0.0897
  170SOPE  H11A19156   5.862   4.118   6.274  0.1811 -0.8859 -0.7497
  170SOPE  H11B19157   5.920   4.000   6.397  1.8562  0.7614  0.9958
  170SOPE     P19158   5.957   3.796   6.210  0.0992  0.0699  0.4988
  170SOPE   O1319159   6.099   3.750   6.194 -0.1801 -0.7198  0.7886
  170SOPE   O1419160   5.854   3.727   6.125  0.1434 -0.1453 -0.5761
  170SOPE   O1219161   5.954   3.955   6.190 -0.7802  0.3414 -0.7974
  170SOPE   O1119162   5.919   3.772   6.360 -0.0754 -0.5808  0.4693
  170SOPE    C119163   5.786   3.769   6.404 -0.6624 -0.2281 -0.6820
  170SOPE    HA19164   5.737   3.680   6.359 -2.1776  0.9535 -1.4070
  170SOPE    HB19165   5.723   3.850   6.362  1.8799  0.1038 -4.0597
  170SOPE    C219166   5.759   3.758   6.556 -0.0016  0.1419  1.5893
  170SOPE    HS19167   5.784   3.860   6.593  0.7261  0.8799 -0.8452
  170SOPE   O2119168   5.835   3.648   6.611  0.0114 -0.1468 -0.8812
  170SOPE   C2119169   5.952   3.681   6.679  0.3971  0.5292  0.3155
  170SOPE   O2219170   5.968   3.787   6.730 -0.0694 -0.4919  0.2015
  170SOPE   C2219171   6.057   3.565   6.666 -0.6491 -0.5139 -0.1360
  170SOPE   H2R19172   6.128   3.606   6.591  1.4973 -1.5763  1.2600
  170SOPE   H2S19173   6.001   3.474   6.635 -0.3601 -0.5344 -0.6017
  170SOPE    C319174   5.609   3.745   6.604 -0.2300 -0.6944 -0.3946
  170SOPE    HX19175   5.570   3.650   6.561  1.8365 -0.2219 -3.5113
  170SOPE    HY19176   5.547   3.828   6.564 -1.9099 -1.4821  0.5471
  170SOPE   O3119177   5.586   3.752   6.747 -0.3816  0.2404  0.3343
  170SOPE   C3119178   5.606   3.866   6.806  0.1107  0.6324  0.0743
  170SOPE   O3219179   5.630   3.973   6.744  0.2953 -0.4715 -0.1148
  170SOPE   C3219180   5.612   3.842   6.961  0.7056  0.3829  0.1441
  170SOPE   H2X19181   5.516   3.791   6.984  1.1818 -0.3466  0.5133
  170SOPE   H2Y19182   5.609   3.939   7.016  0.8072  0.5221 -0.0966
  170SOPE   C2319183   6.137   3.538   6.790  0.1675 -0.0185 -0.3596
  170SOPE   H3R19184   6.166   3.629   6.847  0.0221 -0.7047  0.8254
  170SOPE   H3S19185   6.221   3.470   6.766 -0.5153 -0.7984 -0.5933
  170SOPE   C2419186   6.069   3.457   6.906 -0.1654  0.7136  0.6591
  170SOPE   H4R19187   5.965   3.495   6.920 -0.9198 -0.0822 -2.4782
  170SOPE   H4S19188   6.062   3.356   6.860 -1.6298 -0.0762  2.5079
  170SOPE   C2519189   6.166   3.441   7.023 -0.5105  0.4915 -0.3157
  170SOPE   H5R19190   6.231   3.531   7.025 -0.0097  0.1231  1.5847
  170SOPE   H5S19191   6.100   3.433   7.112  0.7243 -2.6820  0.4134
  170SOPE   C2619192   6.260   3.322   7.020 -0.8552 -0.0785 -0.6294
  170SOPE   H6R19193   6.208   3.224   7.019 -1.8284  0.3672  2.4712
  170SOPE   H6S19194   6.327   3.332   6.931  1.1866 -0.2456  0.8448
  170SOPE   C2719195   6.338   3.334   7.146 -0.0728 -0.6866 -0.1385
  170SOPE   H7R19196   6.422   3.406   7.136 -1.6722  1.2600  0.1405
  170SOPE   H7S19197   6.274   3.362   7.232  0.7565  1.8389 -0.2946
  170SOPE   C2819198   6.412   3.205   7.180  0.2599 -0.6679 -0.8216
  170SOPE   H8R19199   6.471   3.177   7.090  0.1778  0.0178 -1.0932
  170SOPE   H8S19200   6.494   3.220   7.252  0.5269 -0.9720 -1.0617
  170SOPE   C2919201   6.321   3.099   7.238 -0.0576  0.1709  0.5795
  170SOPE   H9119202   6.255   3.040   7.173  1.7637 -3.1854  1.6211
  170SOPE  C21019203   6.307   3.075   7.368  0.9612 -0.1464  0.4153
  170SOPE  H10119204   6.226   3.006   7.398 -0.6538  1.3767 -0.3054
  170SOPE  C21119205   6.385   3.146   7.479  0.7856  0.1561  0.0338
  170SOPE  H11R19206   6.325   3.226   7.528 -1.3541 -0.8542 -0.8492
  170SOPE  H11S19207   6.484   3.187   7.451  0.5618  2.1681  2.0249
  170SOPE  C21219208   6.427   3.057   7.602 -0.4006  0.6237  0.1213
  170SOPE  H12R19209   6.508   3.109   7.657  1.1346 -1.4648 -0.1042
  170SOPE  H12S19210   6.472   2.964   7.560  2.1387  1.6769  0.4364
  170SOPE  C21319211   6.308   3.015   7.691  0.4796 -0.1945 -0.0592
  170SOPE  H13R19212   6.330   2.924   7.750 -0.0689 -0.3811 -0.1375
  170SOPE  H13S19213   6.219   2.985   7.631 -0.2062  0.4136  0.6550
  170SOPE  C21419214   6.250   3.124   7.790 -0.3065  0.7185 -0.0731
  170SOPE  H14R19215   6.239   3.206   7.716  1.5433  0.5156 -0.6085
  170SOPE  H14S19216   6.327   3.165   7.859 -0.4562  0.2273  0.3825
  170SOPE  C21519217   6.125   3.079   7.859 -0.4735  0.2490  0.4961
  170SOPE  H15R19218   6.171   3.018   7.940  0.4430  0.7646  0.3733
  170SOPE  H15S19219   6.065   3.017   7.789 -2.0967  0.1703  1.9141
  170SOPE  C21619220   6.032   3.191   7.910 -0.2273  0.5775 -0.4079
  170SOPE  H16R19221   6.010   3.270   7.835  0.8322  0.5889 -0.7190
  170SOPE  H16S19222   6.095   3.246   7.984  3.8910 -3.1923 -0.8771
  170SOPE  C21719223   5.895   3.144   7.963 -0.7255 -0.2853  0.5860
  170SOPE  H17R19224   5.842   3.083   7.887  0.3530 -1.1982  0.5623
  170SOPE  H17S19225   5.828   3.231   7.978 -1.1027 -0.1062 -1.9184
  170SOPE  C21819226   5.903   3.063   8.091 -0.1980  0.2159 -0.4770
  170SOPE  H18R19227   5.929   3.136   8.171  1.2711 -1.2580  0.4157
  170SOPE  H18S19228   5.982   2.986   8.091 -1.4276 -1.0848  0.9690
  170SOPE  H18T19229   5.812   3.002   8.109  0.3764 -0.2702  0.7865
  170SOPE   C3319230   5.721   3.748   6.997  0.1722 -0.5493  0.3046
  170SOPE   H3X19231   5.825   3.787   6.999 -0.6468  1.6580 -0.0458
  170SOPE   H3Y19232   5.711   3.661   6.929 -1.4184 -2.2854  2.6555
  170SOPE   C3419233   5.696   3.685   7.137  0.9631 -0.3203 -0.5210
  170SOPE   H4X19234   5.586   3.674   7.145  1.2324 -1.6452  1.7097
  170SOPE   H4Y19235   5.718   3.755   7.220  1.3156 -1.1021  0.0507
  170SOPE   C3519236   5.769   3.553   7.150  0.1628 -0.7633  1.0708
  170SOPE   H5X19237   5.878   3.574   7.149  0.0252 -0.1092 -0.6220
  170SOPE   H5Y19238   5.738   3.496   7.059  0.1721  1.3297 -0.2595
  170SOPE   C3619239   5.719   3.467   7.269  0.3191 -0.7602 -0.9932
  170SOPE   H6X19240   5.808   3.405   7.295  0.0621 -0.0164  1.7677
  170SOPE   H6Y19241   5.632   3.402   7.246 -0.0743 -0.3969 -0.5547
  170SOPE   C3719242   5.688   3.548   7.398 -0.5105  0.6781  0.0417
  170SOPE   H7X19243   5.591   3.599   7.382  0.0556  1.4552 -0.9945
  170SOPE   H7Y19244   5.768   3.621   7.422 -0.1945  0.7399 -1.1585
  170SOPE   C3819245   5.678   3.456   7.522  0.3983  0.2768  0.3027
  170SOPE   H8X19246   5.764   3.386   7.529  1.6493  1.5802 -1.4771
  170SOPE   H8Y19247   5.588   3.396   7.498  2.1693 -1.0451 -3.4916
  170SOPE   C3919248   5.643   3.530   7.660  0.0038  0.6472  0.0865
  170SOPE   H9X19249   5.556   3.598   7.648 -1.3505 -1.1053 -0.3615
  170SOPE   H9Y19250   5.728   3.599   7.680 -0.0316  0.7457 -0.1100
  170SOPE  C31019251   5.609   3.436   7.778  0.5856  0.1219  0.9748
  170SOPE  H10X19252   5.695   3.367   7.791 -0.7117 -1.6282  0.5426
  170SOPE  H10Y19253   5.524   3.371   7.748 -1.3065  2.2887  1.4952
  170SOPE  C31119254   5.577   3.503   7.914 -0.4841  0.3834 -0.1564
  170SOPE  H11X19255   5.473   3.544   7.919 -0.4058  0.4775  1.1134
  170SOPE  H11Y19256   5.641   3.593   7.923  3.6221 -2.3956 -0.4811
  170SOPE  C31219257   5.587   3.407   8.025  0.4085 -0.0373 -0.1172
  170SOPE  H12X19258   5.687   3.360   8.029 -0.5116 -2.1479 -0.9814
  170SOPE  H12Y19259   5.516   3.321   8.027 -0.8260  0.9658 -0.3067
  170SOPE  C31319260   5.564   3.468   8.157 -0.0331 -0.1055  0.4058
  170SOPE  H13X19261   5.461   3.508   8.158 -0.0996 -0.2309 -0.6702
  170SOPE  H13Y19262   5.640   3.547   8.174  0.3559 -0.2200 -0.7127
  170SOPE  C31419263   5.576   3.363   8.274 -1.1213  0.3308  0.2057
  170SOPE  H14X19264   5.675   3.314   8.270 -1.2671  0.2325 -3.6767
  170SOPE  H14Y19265   5.496   3.289   8.251 -1.6141  0.7971  0.4145
  170SOPE  C31519266   5.551   3.422   8.412 -0.3551 -0.2535  0.3232
  170SOPE  H15X19267   5.577   3.341   8.484  0.5259 -1.5109 -1.3816
  170SOPE  H15Y19268   5.447   3.458   8.427 -1.4921 -2.3730 -2.0834
  170SOPE  C31619269   5.642   3.547   8.443 -0.4389 -0.5485  0.5699
  170SOPE  H16X19270   5.570   3.626   8.413 -0.1776 -0.7336 -0.5890
  170SOPE  H16Y19271   5.731   3.548   8.377 -1.2936 -1.0377 -0.6072
  170SOPE  C31719272   5.681   3.562   8.590  0.2118 -0.2635 -0.0766
  170SOPE  H17X19273   5.741   3.473   8.614  0.6267 -1.2347 -4.2501
  170SOPE  H17Y19274   5.583   3.566   8.643  0.9233  2.0386  1.1166
  170SOPE  C31819275   5.760   3.691   8.616  0.0566 -0.0562  0.2756
  170SOPE  H18X19276   5.809   3.706   8.715 -0.7333  1.1272  0.5071
  170SOPE  H18Y19277   5.682   3.769   8.603 -1.5937 -1.8269 -0.6381
  170SOPE  H18Z19278   5.838   3.697   8.537  0.7690 -1.8499  0.8104
  171SOPE     N19279   5.930   6.603   6.586  0.2994 -0.7949 -0.1308
  171SOPE   HN119280   5.876   6.620   6.499 -0.6341  1.2646  0.8040
  171SOPE   HN219281   5.867   6.551   6.651 -0.5093 -0.1711 -0.4050
  171SOPE   HN319282   5.941   6.695   6.634  1.3551 -0.7004 -0.5449
  171SOPE   C1219283   6.062   6.547   6.553  0.1249  0.0842 -0.0864
  171SOPE  H12A19284   6.046   6.444   6.515 -0.8547  0.6710 -1.3133
  171SOPE  H12B19285   6.117   6.539   6.649  0.6887 -0.0481 -0.4110
  171SOPE   C1119286   6.139   6.637   6.456 -0.2344 -0.4843  0.4567
  171SOPE  H11A19287   6.093   6.638   6.355  0.5331 -2.4259  0.0723
  171SOPE  H11B19288   6.238   6.598   6.427 -0.7438 -2.2985  1.0907
  171SOPE     P19289   6.156   6.893   6.417 -0.1115 -0.4474 -0.4831
  171SOPE   O1319290   6.032   6.973   6.435  0.1953  0.2800 -0.0688
  171SOPE   O1419291   6.174   6.860   6.276 -0.1361  0.2522  0.4995
  171SOPE   O1219292   6.154   6.762   6.506  0.3350 -0.0681  0.1015
  171SOPE   O1119293   6.283   6.976   6.464 -0.5610  0.5257  0.0966
  171SOPE    C119294   6.396   6.915   6.527 -0.0215 -0.2102  0.0512
  171SOPE    HA19295   6.485   6.979   6.512  0.0903 -0.7259 -1.5555
  171SOPE    HB19296   6.435   6.823   6.479  2.8010  1.0058 -0.0344
  171SOPE    C219297   6.373   6.893   6.677  0.1040  0.5779  0.5237
  171SOPE    HS19298   6.293   6.817   6.688  0.8606 -0.2234  0.6315
  171SOPE   O2119299   6.337   7.020   6.722  0.3889  0.1875 -0.1290
  171SOPE   C2119300   6.256   7.023   6.822  0.1002 -0.4711 -0.8367
  171SOPE   O2219301   6.212   6.926   6.879  0.3933  0.3495  0.4149
  171SOPE   C2219302   6.214   7.170   6.845  0.0210  0.2440 -0.0738
  171SOPE   H2R19303   6.155   7.196   6.755 -1.4267 -1.0582  0.4830
  171SOPE   H2S19304   6.303   7.236   6.857  1.3390 -1.5830  0.4865
  171SOPE    C319305   6.507   6.854   6.753  0.9043  0.1348  0.0589
  171SOPE    HX19306   6.588   6.922   6.717  0.9268  1.4697  2.5339
  171SOPE    HY19307   6.524   6.751   6.716 -2.7274 -0.3647 -0.4091
  171SOPE   O3119308   6.505   6.867   6.898 -0.1009 -0.4642  0.4083
  171SOPE   C3119309   6.457   6.763   6.959  0.2086  0.2868 -0.1757
  171SOPE   O3219310   6.434   6.653   6.902  0.3945 -0.1624  0.7879
  171SOPE   C3219311   6.445   6.783   7.111 -0.1787  0.4951 -0.0486
  171SOPE   H2X19312   6.375   6.867   7.131 -0.0471  0.3331  1.1056
  171SOPE   H2Y19313   6.539   6.832   7.145 -0.7716  0.4999  1.6097
  171SOPE   C2319314   6.105   7.181   6.962  0.1808 -0.2139  0.5895
  171SOPE   H3R19315   6.018   7.124   6.922 -0.4645  1.3201 -0.2192
  171SOPE   H3S19316   6.077   7.288   6.962  0.0318 -0.2513  0.6108
  171SOPE   C2419317   6.165   7.148   7.098 -0.3635 -0.5348 -0.0945
  171SOPE   H4R19318   6.213   7.048   7.098  3.4335  1.1998  0.0718
  171SOPE   H4S19319   6.247   7.221   7.115 -0.2411 -0.3629 -1.3657
  171SOPE   C2519320   6.066   7.161   7.213  0.6773  0.1050 -0.3881
  171SOPE   H5R19321   6.000   7.250   7.200  0.2386 -0.4109 -1.8064
  171SOPE   H5S19322   5.991   7.080   7.206 -1.4442  1.9957 -0.4271
  171SOPE   C2619323   6.144   7.156   7.342  0.1952  0.3073 -0.2618
  171SOPE   H6R19324   6.202   7.062   7.328  1.3765  0.6649  1.9774
  171SOPE   H6S19325   6.213   7.243   7.355  0.1187  0.2537  0.5356
  171SOPE   C2719326   6.051   7.143   7.470 -0.5473 -0.7862 -0.0565
  171SOPE   H7R19327   5.985   7.233   7.465  1.1470  0.4510 -0.7188
  171SOPE   H7S19328   5.975   7.063   7.468  2.0227 -3.2791 -0.5417
  171SOPE   C2819329   6.138   7.144   7.593  0.1433  0.3160  0.2232
  171SOPE   H8R19330   6.208   7.230   7.593 -2.6067  2.6532 -1.7912
  171SOPE   H8S19331   6.064   7.175   7.670 -0.7147 -0.0719 -0.4216
  171SOPE   C2919332   6.187   7.004   7.628  0.1869  0.0886  0.2039
  171SOPE   H9119333   6.189   6.940   7.539  2.9814  1.4694 -0.7918
  171SOPE  C21019334   6.181   6.950   7.748  0.7495 -0.4581 -0.1549
  171SOPE  H10119335   6.234   6.853   7.749  3.3052  0.9041  1.0731
  171SOPE  C21119336   6.152   7.017   7.886  0.4697 -0.7990  0.9380
  171SOPE  H11R19337   6.122   7.124   7.879  0.0120 -1.0620 -2.1808
  171SOPE  H11S19338   6.237   7.014   7.958  1.4710 -1.6079 -0.2429
  171SOPE  C21219339   6.041   6.941   7.951  0.0137  0.3523  0.0949
  171SOPE  H12R19340   6.074   6.837   7.974  1.0544  0.6870  0.1345
  171SOPE  H12S19341   5.950   6.932   7.886  1.0556 -0.4982 -1.2785
  171SOPE  C21319342   5.981   7.002   8.076  0.1752  0.2921  0.5232
  171SOPE  H13R19343   5.941   7.103   8.053 -0.5522  0.6901  3.3263
  171SOPE  H13S19344   6.065   7.019   8.148 -0.5562  2.9936  0.8042
  171SOPE  C21419345   5.878   6.915   8.141 -0.5372  0.5253  0.0558
  171SOPE  H14R19346   5.918   6.829   8.198 -1.0388  0.0074 -0.3682
  171SOPE  H14S19347   5.817   6.884   8.053  3.1463 -0.4000 -2.2613
  171SOPE  C21519348   5.788   6.985   8.250  0.2775  0.1205  0.0643
  171SOPE  H15R19349   5.725   7.053   8.189 -0.7461  0.9587  2.0274
  171SOPE  H15S19350   5.839   7.035   8.335  0.6202  2.8865 -1.6914
  171SOPE  C21619351   5.679   6.890   8.292 -0.5882 -0.2591  0.2000
  171SOPE  H16R19352   5.722   6.814   8.359  2.3588  1.1935  0.0369
  171SOPE  H16S19353   5.628   6.832   8.212 -0.3035 -0.4315  0.1435
  171SOPE  C21719354   5.579   6.958   8.389 -0.1417  0.3990 -0.3636
  171SOPE  H17R19355   5.492   6.892   8.412  0.8951 -0.7814  0.2037
  171SOPE  H17S19356   5.531   7.046   8.340  0.3423  1.3703  0.8798
  171SOPE  C21819357   5.637   7.004   8.520  0.3053  0.0435 -1.1043
  171SOPE  H18R19358   5.563   7.064   8.576  0.4277 -2.1830  1.5805
  171SOPE  H18S19359   5.733   7.060   8.511  0.6327 -0.3953 -0.4165
  171SOPE  H18T19360   5.673   6.917   8.580  0.6432  0.2289 -1.0339
  171SOPE   C3319361   6.403   6.660   7.199  0.3743 -0.4671 -0.1906
  171SOPE   H3X19362   6.467   6.572   7.179 -1.9939 -2.6035  1.3341
  171SOPE   H3Y19363   6.301   6.620   7.179  0.4832  0.3092 -2.5372
  171SOPE   C3419364   6.419   6.699   7.351  1.0434  0.1492  0.8237
  171SOPE   H4X19365   6.347   6.781   7.370 -1.2164 -1.2486 -1.3228
  171SOPE   H4Y19366   6.523   6.737   7.359  0.5210  2.3479 -1.9428
  171SOPE   C3519367   6.382   6.586   7.448  0.9577  0.1791  0.4645
  171SOPE   H5X19368   6.447   6.497   7.431 -0.5242 -0.4906 -1.9420
  171SOPE   H5Y19369   6.277   6.556   7.431  1.3575 -0.8355 -0.2458
  171SOPE   C3619370   6.381   6.641   7.591  0.8117 -0.7592  0.3183
  171SOPE   H6X19371   6.313   6.728   7.594  0.8519 -0.7133 -0.1708
  171SOPE   H6Y19372   6.486   6.677   7.600  1.2748 -2.2223  1.0318
  171SOPE   C3719373   6.348   6.538   7.698  0.9634  0.3074  0.1199
  171SOPE   H7X19374   6.414   6.453   7.669 -2.7288 -2.7089  0.1422
  171SOPE   H7Y19375   6.248   6.493   7.679  1.4046 -0.9494  0.6780
  171SOPE   C3819376   6.374   6.601   7.839  0.4256 -0.0671 -0.1276
  171SOPE   H8X19377   6.322   6.699   7.851 -2.0253 -1.3546  0.1209
  171SOPE   H8Y19378   6.485   6.604   7.846  0.4641  0.1939 -0.7853
  171SOPE   C3919379   6.326   6.517   7.955 -0.1914 -0.4901  0.2044
  171SOPE   H9X19380   6.397   6.432   7.959 -0.4100 -0.6675  0.4004
  171SOPE   H9Y19381   6.228   6.474   7.921  0.0554  0.3293 -1.6197
  171SOPE  C31019382   6.311   6.591   8.085  0.0084 -0.2113  0.4357
  171SOPE  H10X19383   6.312   6.510   8.161 -1.0023  0.0614  0.7477
  171SOPE  H10Y19384   6.218   6.651   8.067 -0.1588  0.2698  2.7031
  171SOPE  C31119385   6.432   6.684   8.122 -0.2915  0.1860 -0.3041
  171SOPE  H11X19386   6.433   6.784   8.073 -2.9799 -0.5531 -2.0075
  171SOPE  H11Y19387   6.525   6.627   8.102  0.2270  0.7091  0.5884
  171SOPE  C31219388   6.427   6.719   8.274 -0.0209  0.3577  0.5585
  171SOPE  H12X19389   6.520   6.772   8.307  0.7113  0.6118 -1.8430
  171SOPE  H12Y19390   6.424   6.632   8.343 -3.5609 -0.7210 -0.8869
  171SOPE  C31319391   6.301   6.803   8.296 -0.0465  0.5821  0.3304
  171SOPE  H13X19392   6.215   6.735   8.318  0.0251  0.6077  0.6831
  171SOPE  H13Y19393   6.268   6.866   8.211 -0.9803 -0.9131 -0.4451
  171SOPE  C31419394   6.301   6.896   8.425 -0.6246  0.4026  0.1787
  171SOPE  H14X19395   6.348   6.989   8.386 -0.0217 -1.5464 -3.9931
  171SOPE  H14Y19396   6.359   6.846   8.505  0.2127  1.1174  0.0266
  171SOPE  C31519397   6.157   6.917   8.461 -0.3189 -0.1727  0.1886
  171SOPE  H15X19398   6.098   6.835   8.508  1.5258 -1.8158 -0.2806
  171SOPE  H15Y19399   6.108   6.956   8.370  4.4425  4.5358 -0.6135
  171SOPE  C31619400   6.147   7.025   8.577 -0.5049  0.5236  0.6829
  171SOPE  H16X19401   6.221   7.108   8.572 -1.4980  1.4987  1.6790
  171SOPE  H16Y19402   6.181   6.982   8.673  1.5366  1.6872  0.4972
  171SOPE  C31719403   6.004   7.072   8.598 -0.1990 -0.2405 -0.5057
  171SOPE  H17X19404   5.930   6.990   8.602 -2.2377  1.5963  1.1232
  171SOPE  H17Y19405   5.984   7.151   8.522 -1.4405 -0.3826 -0.3293
  171SOPE  C31819406   5.987   7.150   8.727 -0.2827 -0.2961 -0.0787
  171SOPE  H18X19407   5.974   7.078   8.811 -0.7910  0.5070  0.5361
  171SOPE  H18Y19408   5.900   7.218   8.733 -0.9131 -1.0717 -0.3288
  171SOPE  H18Z19409   6.073   7.218   8.747 -2.1798  1.6635  1.7344
  172SOPE     N19410   0.683   1.786   6.388 -0.8670  0.1498  0.3671
  172SOPE   HN119411   0.743   1.871   6.388  2.1310 -1.8679 -1.2346
  172SOPE   HN219412   0.753   1.710   6.392 -2.5026 -1.3916  0.1201
  172SOPE   HN319413   0.651   1.777   6.289  2.9259 -1.8602 -0.7849
  172SOPE   C1219414   0.576   1.797   6.491  0.3674  1.0801 -0.4067
  172SOPE  H12A19415   0.509   1.882   6.464 -0.8506  0.4938  0.7347
  172SOPE  H12B19416   0.624   1.824   6.588  1.6774  0.7957 -0.9627
  172SOPE   C1119417   0.514   1.658   6.506  0.5917  0.1921 -0.2091
  172SOPE  H11A19418   0.466   1.652   6.607  1.3367 -1.9053  0.0457
  172SOPE  H11B19419   0.583   1.572   6.520  0.4170  0.2650  1.2151
  172SOPE     P19420   0.329   1.503   6.385 -0.0188  0.3429 -0.0225
  172SOPE   O1319421   0.410   1.437   6.279  0.1080  0.0390 -0.4252
  172SOPE   O1419422   0.187   1.525   6.359  0.4382  0.0597 -0.0073
  172SOPE   O1219423   0.406   1.643   6.413  0.1784 -0.0631 -0.3509
  172SOPE   O1119424   0.358   1.421   6.515 -0.3346  0.0104 -0.2320
  172SOPE    C119425   0.294   1.441   6.638  0.1547  0.1509  0.6442
  172SOPE    HA19426   0.202   1.381   6.655  0.7668 -1.2089 -0.6994
  172SOPE    HB19427   0.262   1.547   6.650  2.2593  0.7769  1.0275
  172SOPE    C219428   0.388   1.419   6.760  0.8559 -0.3365 -0.5055
  172SOPE    HS19429   0.451   1.510   6.770  2.1705 -1.3642  0.7807
  172SOPE   O2119430   0.471   1.302   6.747 -0.6754 -0.2667  0.0241
  172SOPE   C2119431   0.414   1.186   6.748 -0.2650  1.2302 -0.3046
  172SOPE   O2219432   0.296   1.164   6.725 -0.8038 -0.1594  0.0871
  172SOPE   C2219433   0.532   1.089   6.781 -0.7452 -0.0761  0.6225
  172SOPE   H2R19434   0.621   1.155   6.778 -0.0800 -0.8577  2.3798
  172SOPE   H2S19435   0.546   1.009   6.705  1.5711 -0.7340  1.7109
  172SOPE    C319436   0.315   1.422   6.897  0.7000  0.2009 -0.2136
  172SOPE    HX19437   0.252   1.332   6.911  3.3079 -1.8302 -1.1059
  172SOPE    HY19438   0.235   1.498   6.893  1.7313  1.3609  0.7744
  172SOPE   O3119439   0.410   1.438   7.007 -0.2946 -0.3481 -0.0076
  172SOPE   C3119440   0.426   1.568   7.040  0.1981  0.3750 -0.3082
  172SOPE   O3219441   0.386   1.655   6.971 -0.2447 -0.4701 -0.4886
  172SOPE   C3219442   0.485   1.569   7.176  0.6975 -0.3615  0.7640
  172SOPE   H2X19443   0.552   1.656   7.194  0.5503 -0.0169 -0.3231
  172SOPE   H2Y19444   0.532   1.472   7.207  2.6978  0.9055  1.8056
  172SOPE   C2319445   0.507   1.024   6.921  0.3741  0.0173  0.4468
  172SOPE   H3R19446   0.579   0.940   6.927  1.2451  0.5057 -2.1376
  172SOPE   H3S19447   0.403   0.997   6.947 -0.2093  0.3943 -1.3882
  172SOPE   C2419448   0.554   1.119   7.034  0.0066 -0.2224 -0.0356
  172SOPE   H4R19449   0.656   1.159   7.012  0.6938 -1.7563  0.2763
  172SOPE   H4S19450   0.489   1.208   7.046 -1.0420 -1.1709  1.5223
  172SOPE   C2519451   0.549   1.047   7.170  0.2206  0.1742  0.1261
  172SOPE   H5R19452   0.444   1.014   7.190 -0.3087  0.6743 -1.7288
  172SOPE   H5S19453   0.616   0.959   7.160  0.4760  0.7128 -3.5465
  172SOPE   C2619454   0.606   1.128   7.286  0.0086 -0.0474  0.7780
  172SOPE   H6R19455   0.706   1.168   7.260 -0.4752 -0.2236 -1.4908
  172SOPE   H6S19456   0.547   1.223   7.286 -0.7220 -0.4969  0.6891
  172SOPE   C2719457   0.607   1.066   7.423  0.5744 -0.1049  0.2541
  172SOPE   H7R19458   0.514   1.005   7.432 -0.1963  1.0692  0.2700
  172SOPE   H7S19459   0.681   0.983   7.424  0.7621  0.0669  0.6035
  172SOPE   C2819460   0.626   1.163   7.539 -0.3478  0.2594  0.3967
  172SOPE   H8R19461   0.707   1.235   7.514  1.7121 -2.1535 -0.0331
  172SOPE   H8S19462   0.540   1.227   7.570 -0.1055  0.5427  0.4840
  172SOPE   C2919463   0.682   1.092   7.665  0.0565 -0.3776  0.0496
  172SOPE   H9119464   0.729   0.996   7.640  5.0031  1.4092  1.9910
  172SOPE  C21019465   0.688   1.137   7.790  0.5025  0.0731  0.3043
  172SOPE  H10119466   0.728   1.069   7.867  3.2452 -1.3091 -2.2392
  172SOPE  C21119467   0.625   1.265   7.842  0.2031 -1.8053 -0.1987
  172SOPE  H11R19468   0.559   1.306   7.762 -1.0813 -0.8143  1.3417
  172SOPE  H11S19469   0.709   1.336   7.855 -0.0528 -0.9674 -2.7927
  172SOPE  C21219470   0.563   1.246   7.985  0.0647  0.0925  0.1334
  172SOPE  H12R19471   0.496   1.158   7.994 -0.1648  0.1640 -0.8632
  172SOPE  H12S19472   0.512   1.338   8.019 -0.6366 -0.5210  0.7701
  172SOPE  C21319473   0.674   1.226   8.095  0.0435  0.0702  0.8586
  172SOPE  H13R19474   0.742   1.314   8.091  0.1980 -0.1060 -0.6769
  172SOPE  H13S19475   0.726   1.130   8.075  1.6277  1.3648 -1.4486
  172SOPE  C21419476   0.617   1.213   8.238  0.1271  0.5544 -0.5617
  172SOPE  H14R19477   0.540   1.133   8.239  0.0843  0.5962 -0.5100
  172SOPE  H14S19478   0.563   1.309   8.257  4.3437  2.5282  2.2631
  172SOPE  C21519479   0.726   1.201   8.350 -0.3870 -0.4749  0.2941
  172SOPE  H15R19480   0.684   1.234   8.448  1.1553 -1.7851  1.4137
  172SOPE  H15S19481   0.808   1.270   8.322 -0.3436 -0.0184  1.5238
  172SOPE  C21619482   0.784   1.057   8.371  0.0300  0.2355  0.8663
  172SOPE  H16R19483   0.816   1.017   8.273  1.2344  0.1244  1.2959
  172SOPE  H16S19484   0.701   0.990   8.401 -1.3235  0.7107 -1.6760
  172SOPE  C21719485   0.900   1.067   8.470 -0.4761 -0.6632 -0.1212
  172SOPE  H17R19486   0.914   0.973   8.527  1.3848 -0.9618 -1.0624
  172SOPE  H17S19487   0.867   1.139   8.549  0.9233 -0.2798  0.1275
  172SOPE  C21819488   1.026   1.109   8.394 -0.2622  1.1727 -0.3643
  172SOPE  H18R19489   1.058   1.052   8.305 -0.3292  0.0696  0.3072
  172SOPE  H18S19490   1.122   1.108   8.450 -0.6591  1.9829  0.3558
  172SOPE  H18T19491   1.009   1.215   8.365 -2.2546  1.1229  0.5494
  172SOPE   C3319492   0.372   1.574   7.286  1.1733 -0.0488  0.0659
  172SOPE   H3X19493   0.315   1.479   7.292 -1.8811  1.6955 -0.5169
  172SOPE   H3Y19494   0.293   1.651   7.272  0.7093 -0.9119 -2.3924
  172SOPE   C3419495   0.434   1.583   7.424  0.0455 -0.5461 -0.0572
  172SOPE   H4X19496   0.484   1.679   7.446  1.2406 -1.0943 -0.3321
  172SOPE   H4Y19497   0.511   1.504   7.435  3.4506  2.7269  0.6172
  172SOPE   C3519498   0.322   1.553   7.528  0.1680  0.2047  0.4205
  172SOPE   H5X19499   0.265   1.463   7.497 -1.3129  0.6718  1.7010
  172SOPE   H5Y19500   0.244   1.633   7.532  0.1654  0.2491 -0.3007
  172SOPE   C3619501   0.388   1.534   7.668 -0.2765  0.0111  0.7739
  172SOPE   H6X19502   0.477   1.600   7.680 -1.3658  1.2885  1.9279
  172SOPE   H6Y19503   0.429   1.433   7.685  1.2227  0.6725  1.1694
  172SOPE   C3719504   0.288   1.561   7.776 -0.5689  0.8562  0.2836
  172SOPE   H7X19505   0.190   1.520   7.742 -0.5492  0.0374  1.2002
  172SOPE   H7Y19506   0.286   1.672   7.780 -1.7953  0.9235 -1.5257
  172SOPE   C3819507   0.312   1.504   7.918 -0.5135  0.0076  0.7340
  172SOPE   H8X19508   0.405   1.548   7.958 -0.5952  1.6818 -0.8790
  172SOPE   H8Y19509   0.313   1.393   7.903  1.8087  0.1971 -0.6678
  172SOPE   C3919510   0.194   1.537   8.013 -0.5862  0.4212  0.0221
  172SOPE   H9X19511   0.115   1.476   7.964  1.6069 -1.2118 -1.5515
  172SOPE   H9Y19512   0.165   1.644   8.003  0.3720  0.6841  0.0053
  172SOPE  C31019513   0.207   1.476   8.156  0.4679 -0.7144  0.2761
  172SOPE  H10X19514   0.244   1.373   8.138 -0.4630 -0.5845 -2.5893
  172SOPE  H10Y19515   0.105   1.472   8.200 -1.6967  3.2574 -3.9147
  172SOPE  C31119516   0.309   1.544   8.254 -0.4053  0.4596 -0.4179
  172SOPE  H11X19517   0.286   1.652   8.254 -2.9801 -0.0474  0.5869
  172SOPE  H11Y19518   0.409   1.525   8.211 -0.0222 -1.5107  1.2473
  172SOPE  C31219519   0.304   1.482   8.396  0.2726 -0.4563 -0.0326
  172SOPE  H12X19520   0.323   1.373   8.391  1.3969 -0.2876  0.4469
  172SOPE  H12Y19521   0.203   1.503   8.436  1.1349  2.0311  0.9178
  172SOPE  C31319522   0.413   1.543   8.486  0.2380  0.0015  0.4494
  172SOPE  H13X19523   0.515   1.539   8.441  0.5313  0.1927  1.0983
  172SOPE  H13Y19524   0.416   1.492   8.584  0.0581 -2.6684 -0.8793
  172SOPE  C31419525   0.387   1.691   8.505  0.0825  0.2292 -0.2039
  172SOPE  H14X19526   0.285   1.710   8.545  1.4227 -1.4369  4.4164
  172SOPE  H14Y19527   0.394   1.735   8.404  0.6316 -0.9369 -0.6845
  172SOPE  C31519528   0.505   1.775   8.577 -0.2937  0.3520 -0.0513
  172SOPE  H15X19529   0.594   1.784   8.511 -0.7883  0.5328 -0.6960
  172SOPE  H15Y19530   0.541   1.715   8.664  0.0162  2.1881  1.1173
  172SOPE  C31619531   0.461   1.910   8.631  0.9598  0.4713  0.2273
  172SOPE  H16X19532   0.390   1.901   8.716  1.1289 -0.3490  0.2857
  172SOPE  H16Y19533   0.411   1.969   8.552 -1.4579 -0.7088  0.8172
  172SOPE  C31719534   0.583   1.996   8.675  0.7107 -0.4784  0.6567
  172SOPE  H17X19535   0.540   2.090   8.715 -1.1742 -1.6607  1.4717
  172SOPE  H17Y19536   0.639   2.026   8.584 -1.7605  1.1928 -0.3595
  172SOPE  C31819537   0.678   1.945   8.775  0.0179  0.1289 -0.4642
  172SOPE  H18X19538   0.724   1.851   8.737 -0.0452 -0.8197  1.7537
  172SOPE  H18Y19539   0.638   1.925   8.876  0.5519  0.3703 -0.2040
  172SOPE  H18Z19540   0.756   2.024   8.779 -0.3771  0.5406 -0.9054
  173SAPI   C1219541   2.199   6.063  11.145  0.9313 -0.4052 -0.0157
  173SAPI    H219542   2.103   6.007  11.147  0.9901 -0.4904  1.7838
  173SAPI    O219543   2.190   6.188  11.211  0.2897 -0.1201 -0.4440
  173SAPI   HO219544   2.100   6.221  11.207 -0.2380 -1.2586  1.1859
  173SAPI   C1319545   2.290   5.968  11.228  0.0532  0.0651 -0.3225
  173SAPI    H319546   2.293   5.873  11.172 -0.9031 -1.4832  2.1500
  173SAPI    O319547   2.234   5.950  11.358 -0.6165  0.4066 -0.3811
  173SAPI   HO319548   2.239   6.036  11.401  0.0029 -0.1637  0.7302
  173SAPI   C1419549   2.438   6.010  11.242 -0.1145 -0.6493 -0.2106
  173SAPI    H419550   2.445   6.102  11.304  2.3155  0.0897 -1.5110
  173SAPI    O419551   2.517   5.913  11.309  0.4974  0.1717 -0.1825
  173SAPI   HO419552   2.532   5.943  11.400  2.9869  0.9880 -0.8263
  173SAPI   C1519553   2.491   6.031  11.102 -0.2237 -0.1537 -0.5926
  173SAPI    H519554   2.482   5.934  11.048 -1.6235 -0.7857  0.7550
  173SAPI    O519555   2.626   6.075  11.110  0.2942 -0.2881 -0.1212
  173SAPI   HO519556   2.685   6.006  11.142 -0.0647 -1.8570 -2.6652
  173SAPI   C1619557   2.408   6.124  11.015  0.0887  0.5927  0.0540
  173SAPI    H619558   2.397   6.221  11.068 -2.1448 -0.1119  0.9472
  173SAPI    O619559   2.466   6.133  10.881  0.4779 -0.2897  0.3191
  173SAPI   HO619560   2.510   6.218  10.872  1.2075 -0.6382  0.5628
  173SAPI   C1119561   2.264   6.075  11.004  0.2843  0.4771 -0.1129
  173SAPI    H119562   2.266   5.976  10.954  0.0645  0.6558 -0.4736
  173SAPI     P19563   2.047   6.103  10.856  0.5956  0.0378  0.4192
  173SAPI   O1319564   1.942   6.203  10.866  0.3020  0.2059  0.4570
  173SAPI   O1419565   2.023   5.968  10.905 -0.0943 -0.3931 -0.0771
  173SAPI   O1219566   2.184   6.164  10.920  0.3928  0.4336  0.1176
  173SAPI   O1119567   2.083   6.083  10.700  0.4704  0.2945 -0.8776
  173SAPI    C119568   2.148   5.964  10.649  0.3100  0.4476 -0.2052
  173SAPI    HA19569   2.258   5.979  10.656  1.0243 -3.3161 -2.1801
  173SAPI    HB19570   2.117   5.876  10.710  0.1927  1.3618  1.0998
  173SAPI    C219571   2.121   5.938  10.503  0.8758 -0.2045 -0.8963
  173SAPI    HS19572   2.195   5.861  10.469 -0.0374 -2.2145  1.5258
  173SAPI   O2119573   2.124   6.067  10.430 -0.3961  0.5845 -0.4283
  173SAPI   C2119574   2.150   6.057  10.303  0.0293 -0.3799  0.3642
  173SAPI   O2219575   2.173   5.951  10.252  0.0975  0.4544 -0.0871
  173SAPI   C2219576   2.177   6.197  10.247 -0.9140  0.2961  0.0274
  173SAPI   H2R19577   2.081   6.230  10.203 -0.7373 -0.4015 -0.9069
  173SAPI   H2S19578   2.185   6.269  10.331 -0.0551 -0.4785  0.6311
  173SAPI    C319579   1.983   5.864  10.491 -0.1723  0.7172 -0.1366
  173SAPI    HX19580   1.904   5.913  10.552 -0.5595  1.9412 -1.5641
  173SAPI    HY19581   2.019   5.773  10.542  0.9014  0.0403 -2.0649
  173SAPI   O3119582   1.943   5.849  10.356 -0.2134  0.1581  0.3255
  173SAPI   C3119583   1.971   5.730  10.304  0.5550  1.0378  0.5172
  173SAPI   O3219584   2.020   5.635  10.368  0.2153 -0.4686  0.5653
  173SAPI   C3219585   1.929   5.732  10.160 -0.3417  0.3149  0.5049
  173SAPI   H2X19586   2.007   5.790  10.107  0.4232 -1.4040 -0.2893
  173SAPI   H2Y19587   1.839   5.796  10.151  0.8506  1.6372 -2.8504
  173SAPI   C2319588   2.285   6.211  10.138  0.0760 -0.0155 -0.3887
  173SAPI   H3R19589   2.257   6.164  10.041  2.2451  1.1900 -1.6456
  173SAPI   H3S19590   2.378   6.168  10.179 -1.3789 -1.6809  1.2479
  173SAPI   C2419591   2.319   6.354  10.096 -0.0617  0.6826 -0.2304
  173SAPI   H4R19592   2.232   6.420  10.077  0.4904  1.7573  0.9246
  173SAPI   H4S19593   2.370   6.350   9.997  1.2310 -0.6910  0.4691
  173SAPI   C2519594   2.408   6.421  10.196 -0.1808  0.1621  0.6135
  173SAPI   H5R19595   2.465   6.354  10.262 -0.1593 -0.3065  0.1183
  173SAPI   C2619596   2.431   6.552  10.219 -0.6431 -0.5321 -0.5951
  173SAPI   H6R19597   2.496   6.574  10.304 -1.3974 -0.5133 -0.0172
  173SAPI   C2719598   2.354   6.660  10.145 -0.2088  0.3843 -0.5649
  173SAPI   H7R19599   2.270   6.696  10.208  1.1972 -1.1708  2.2946
  173SAPI   H7S19600   2.315   6.622  10.048 -0.2683 -0.2423 -0.2978
  173SAPI   C2819601   2.455   6.770  10.123  0.5240 -0.0384 -0.0158
  173SAPI   H8R19602   2.475   6.806  10.225 -2.0309  2.6558 -0.4101
  173SAPI   C2919603   2.509   6.814  10.006  0.1926 -0.2196  0.4205
  173SAPI   H9R19604   2.579   6.899  10.004 -2.1916  1.8217  1.2250
  173SAPI  C21019605   2.477   6.754   9.876  0.3623 -0.8352  0.1097
  173SAPI  H10R19606   2.407   6.668   9.881 -1.4681  0.7649  3.1711
  173SAPI  H10S19607   2.575   6.708   9.850  0.5276 -0.0630 -0.7001
  173SAPI  C21119608   2.439   6.852   9.769  1.1465 -0.0090 -0.3145
  173SAPI  H11R19609   2.455   6.957   9.797 -1.9543  0.3033  0.4355
  173SAPI  C21219610   2.383   6.818   9.652 -0.3231  0.2501 -0.0391
  173SAPI  H12R19611   2.358   6.900   9.582 -0.5796  0.0248 -0.2125
  173SAPI  C21319612   2.344   6.674   9.609  0.1841 -0.3837  0.7851
  173SAPI  H13R19613   2.235   6.675   9.590  0.3315 -0.3047 -0.0609
  173SAPI  H13S19614   2.359   6.599   9.691  1.7810  0.5401  1.3627
  173SAPI  C21419615   2.425   6.632   9.482 -0.0077 -0.0180  0.8026
  173SAPI  H14R19616   2.531   6.661   9.476 -0.2607  0.6421 -0.6924
  173SAPI  C21519617   2.382   6.590   9.361 -0.5128 -0.2692 -0.3549
  173SAPI  H15R19618   2.460   6.575   9.285  0.9014  3.2203  0.2975
  173SAPI  C21619619   2.234   6.567   9.317 -0.2315  0.0892 -0.1477
  173SAPI  H16R19620   2.193   6.657   9.267 -1.6127 -0.1951  0.4448
  173SAPI  H16S19621   2.171   6.553   9.408  2.0267  2.0029  1.8062
  173SAPI  C21719622   2.214   6.450   9.219  0.0909 -0.0420 -0.5428
  173SAPI  H17R19623   2.117   6.400   9.236 -0.6539  2.4623  3.0933
  173SAPI  H17S19624   2.298   6.381   9.246  1.0379  0.5345 -1.9369
  173SAPI  C21819625   2.222   6.484   9.074 -0.6581 -0.2658  0.2363
  173SAPI  H18R19626   2.247   6.391   9.018  0.6000 -0.0302  0.3903
  173SAPI  H18S19627   2.311   6.549   9.064 -1.7671  0.9950 -1.9656
  173SAPI  C21919628   2.096   6.557   9.025 -0.9328  0.6787  0.6949
  173SAPI  H19R19629   2.096   6.661   9.062 -0.1822  1.0211 -0.2655
  173SAPI  H19S19630   2.004   6.504   9.058 -1.2622  0.4991 -0.4668
  173SAPI  C22019631   2.084   6.570   8.871 -0.1292 -1.0513 -0.7311
  173SAPI  H20R19632   2.165   6.623   8.818  1.0834 -1.3326  0.8011
  173SAPI  H20S19633   1.992   6.627   8.845 -0.0454 -0.4245  0.3181
  173SAPI  H20T19634   2.080   6.469   8.825 -1.9338 -1.1615 -0.3882
  173SAPI   C3319635   1.912   5.587  10.114  0.4242 -0.3484 -0.5511
  173SAPI   H3X19636   1.852   5.530  10.189 -0.7430 -1.0957 -2.0239
  173SAPI   H3Y19637   2.017   5.551  10.121 -0.1338 -2.0406 -0.5737
  173SAPI   C3419638   1.867   5.576   9.970 -0.3785 -0.0935  0.5207
  173SAPI   H4X19639   1.767   5.623   9.955  0.3932  1.6446  0.6618
  173SAPI   H4Y19640   1.856   5.466   9.962 -0.3933  0.0152 -1.0427
  173SAPI   C3519641   1.971   5.622   9.864 -0.0463  0.0385 -0.3312
  173SAPI   H5X19642   2.079   5.600   9.875  0.6022  3.0670 -0.1051
  173SAPI   H5Y19643   1.979   5.733   9.867  0.3801 -0.0143  1.4967
  173SAPI   C3619644   1.912   5.585   9.724  0.6203  0.4165 -0.1419
  173SAPI   H6X19645   1.811   5.624   9.700 -0.0143 -1.6779 -0.9422
  173SAPI   H6Y19646   1.891   5.476   9.722 -3.8255  1.1514  0.5594
  173SAPI   C3719647   2.002   5.630   9.614  0.4408 -0.2155  1.2513
  173SAPI   H7X19648   2.109   5.603   9.621  0.5457 -0.6898 -1.4308
  173SAPI   H7Y19649   2.000   5.741   9.603  0.4868 -0.3020  0.2949
  173SAPI   C3819650   1.974   5.557   9.487 -0.1505  0.3081 -0.3016
  173SAPI   H8X19651   1.870   5.578   9.453  0.1928  1.8742 -0.4207
  173SAPI   H8Y19652   1.977   5.446   9.492 -1.6675  0.2069 -1.2590
  173SAPI   C3919653   2.057   5.603   9.365  0.0346  0.2529 -0.5828
  173SAPI   H9X19654   2.164   5.609   9.393  0.2579 -0.2643 -1.3246
  173SAPI   H9Y19655   2.037   5.709   9.336 -0.3764 -0.0093 -1.2681
  173SAPI  C31019656   2.043   5.518   9.242 -0.7933 -0.0292  0.7586
  173SAPI  H10X19657   2.104   5.426   9.254 -1.3130 -0.3060  1.3017
  173SAPI  H10Y19658   2.083   5.574   9.155  0.3291 -0.1456  1.2014
  173SAPI  C31119659   1.897   5.480   9.197 -0.0081 -0.0510  0.2407
  173SAPI  H11X19660   1.850   5.573   9.159 -0.8507  0.0567  1.5219
  173SAPI  H11Y19661   1.840   5.432   9.279  0.2388  0.3094  0.6283
  173SAPI  C31219662   1.895   5.374   9.080  0.1704 -0.5952 -0.8534
  173SAPI  H12X19663   1.792   5.333   9.072  0.7250 -1.8913 -1.5696
  173SAPI  H12Y19664   1.977   5.299   9.084 -0.0481 -0.8296 -0.7795
  173SAPI  C31319665   1.929   5.436   8.944 -0.3498  0.4651 -0.7560
  173SAPI  H13X19666   2.037   5.432   8.919 -0.3024  0.0676 -0.4973
  173SAPI  H13Y19667   1.887   5.538   8.946 -0.9364  0.2052  1.0120
  173SAPI  C31419668   1.850   5.359   8.838  0.4972 -0.4350 -0.1712
  173SAPI  H14X19669   1.746   5.383   8.871 -0.5185 -1.9531 -2.1438
  173SAPI  H14Y19670   1.868   5.251   8.858  0.3477 -0.5347 -0.5643
  173SAPI  C31519671   1.868   5.405   8.695  1.2204 -1.0445 -0.3504
  173SAPI  H15X19672   1.856   5.320   8.625 -2.2472 -1.6366  0.8897
  173SAPI  H15Y19673   1.966   5.444   8.660  0.3969 -0.1654 -1.7468
  173SAPI  C31619674   1.760   5.505   8.646  0.1560 -0.7267 -0.2176
  173SAPI  H16X19675   1.766   5.610   8.681  0.0639 -0.7710 -0.0702
  173SAPI  H16Y19676   1.665   5.460   8.680  1.0081 -1.0075  1.8210
  173SAPI  C31719677   1.728   5.506   8.496 -0.8051  0.1204  0.1485
  173SAPI  H17X19678   1.713   5.399   8.472 -2.8117  0.4323 -0.0678
  173SAPI  H17Y19679   1.808   5.540   8.427 -1.1117 -0.8836 -0.7080
  173SAPI  C31819680   1.614   5.593   8.452 -0.1520 -0.5133  0.8479
  173SAPI  H18X19681   1.525   5.548   8.502 -0.5587  0.8347  1.3787
  173SAPI  H18Y19682   1.594   5.598   8.343  0.2402  0.1784  0.8041
  173SAPI  H18Z19683   1.626   5.698   8.488  0.7616  0.7710 -3.0144
  174SAPI   C1219684   5.516   0.309  11.229 -0.1003  0.2882 -0.2202
  174SAPI    H219685   5.621   0.277  11.240 -0.3545 -0.1174  1.0195
  174SAPI    O219686   5.428   0.225  11.304 -0.5224  0.7914 -0.5483
  174SAPI   HO219687   5.455   0.136  11.280 -2.2973  0.1715 -0.3100
  174SAPI   C1319688   5.512   0.452  11.275 -0.2961 -0.0299  0.2113
  174SAPI    H319689   5.570   0.514  11.203 -1.5036  1.6705  0.6977
  174SAPI    O319690   5.561   0.468  11.410  0.0417  0.1985  0.2855
  174SAPI   HO319691   5.569   0.563  11.420 -0.9526  0.0858  2.3542
  174SAPI   C1419692   5.368   0.503  11.254  0.3486 -0.1190 -0.1789
  174SAPI    H419693   5.305   0.437  11.318 -0.1628  0.7851  0.2645
  174SAPI    O419694   5.346   0.639  11.302 -0.6982 -0.0869 -0.0208
  174SAPI   HO419695   5.414   0.696  11.263 -0.2710 -0.2080  0.5439
  174SAPI   C1519696   5.328   0.485  11.104  0.4108 -0.1388 -0.2840
  174SAPI    H519697   5.398   0.552  11.050 -0.7374  1.4218  0.0940
  174SAPI    O519698   5.192   0.534  11.087 -0.6006  0.1405  0.0959
  174SAPI   HO519699   5.130   0.471  11.123  0.1311 -0.2485  0.6777
  174SAPI   C1619700   5.343   0.349  11.056 -0.5068 -0.1659  0.1386
  174SAPI    H619701   5.264   0.284  11.099  0.3093 -0.0132  1.9139
  174SAPI    O619702   5.331   0.351  10.918 -0.1454 -0.1982  0.3206
  174SAPI   HO619703   5.367   0.432  10.881 -0.7512 -0.0404  0.0834
  174SAPI   C1119704   5.484   0.301  11.083  0.6008 -0.0998 -0.5636
  174SAPI    H119705   5.547   0.374  11.028 -0.2435  0.2066 -1.1336
  174SAPI     P19706   5.638   0.146  10.933  0.1978  0.1585  0.5529
  174SAPI   O1319707   5.691   0.004  10.949 -0.8047  0.2062  0.1623
  174SAPI   O1419708   5.730   0.258  10.950 -0.6920 -0.3252  0.0103
  174SAPI   O1219709   5.512   0.170  11.036 -0.1636  0.0121  0.2128
  174SAPI   O1119710   5.581   0.165  10.783 -0.1221 -0.4313  0.0547
  174SAPI    C119711   5.465   0.089  10.755  0.5112  0.5226  0.2135
  174SAPI    HA19712   5.481  -0.019  10.774 -0.4515  0.4484  0.6186
  174SAPI    HB19713   5.379   0.134  10.808 -0.4898 -0.7741 -0.2896
  174SAPI    C219714   5.423   0.103  10.603  0.7834  0.0839 -0.3012
  174SAPI    HS19715   5.324   0.053  10.591  0.6251  0.6168 -1.2581
  174SAPI   O2119716   5.509   0.045  10.507  0.1388  0.0509 -0.4550
  174SAPI   C2119717   5.502  -0.086  10.504  0.0903  0.4012  0.7419
  174SAPI   O2219718   5.467  -0.165  10.592  0.2935 -0.2362 -0.4014
  174SAPI   C2219719   5.523  -0.132  10.364 -0.0514 -0.0297  0.3752
  174SAPI   H2R19720   5.632  -0.141  10.342 -0.0688 -0.3227  0.4009
  174SAPI   H2S19721   5.474  -0.231  10.352 -1.6878  0.7489  0.5587
  174SAPI    C319722   5.403   0.254  10.569  0.0522  0.1726 -0.6494
  174SAPI    HX19723   5.486   0.317  10.605  0.6286 -0.8795 -0.1176
  174SAPI    HY19724   5.314   0.293  10.623 -1.0486 -1.7662 -1.0045
  174SAPI   O3119725   5.392   0.271  10.425  0.7081 -0.1360 -0.3027
  174SAPI   C3119726   5.275   0.244  10.373 -0.3069 -0.2358 -0.2213
  174SAPI   O3219727   5.181   0.188  10.420  0.2190 -0.1865 -0.7287
  174SAPI   C3219728   5.276   0.307  10.228 -0.2998  0.0979 -0.3350
  174SAPI   H2X19729   5.377   0.292  10.183 -0.5519 -2.4281 -0.1697
  174SAPI   H2Y19730   5.248   0.414  10.222  2.2589  0.7243 -1.5642
  174SAPI   C2319731   5.480  -0.036  10.252  0.0680 -0.0188 -0.7058
  174SAPI   H3R19732   5.534   0.060  10.262 -0.0218 -0.2000  1.7721
  174SAPI   H3S19733   5.373  -0.008  10.255  0.4480  1.5583 -1.3393
  174SAPI   C2419734   5.501  -0.088  10.110  0.0576 -0.0698  0.0230
  174SAPI   H4R19735   5.464  -0.193  10.106 -0.0074 -0.0270 -0.5130
  174SAPI   H4S19736   5.606  -0.112  10.087 -0.4911 -0.9597 -1.6118
  174SAPI   C2519737   5.428  -0.030   9.987  0.2282  0.0922  0.0378
  174SAPI   H5R19738   5.340   0.034   9.998  1.0636  1.1366  0.7055
  174SAPI   C2619739   5.466  -0.060   9.861  0.0799  0.5294 -0.4447
  174SAPI   H6R19740   5.415  -0.020   9.771 -0.0477 -1.6803 -1.3707
  174SAPI   C2719741   5.587  -0.152   9.822  0.1529 -0.9696 -0.2198
  174SAPI   H7R19742   5.549  -0.223   9.745 -0.6482  0.0107 -0.7362
  174SAPI   H7S19743   5.633  -0.214   9.902  0.7607 -1.7609 -1.1711
  174SAPI   C2819744   5.708  -0.077   9.772  0.0650  1.0602  0.1189
  174SAPI   H8R19745   5.735   0.020   9.815  1.5558  0.1830  1.2317
  174SAPI   C2919746   5.789  -0.131   9.684 -0.6078 -0.2017 -0.0423
  174SAPI   H9R19747   5.882  -0.078   9.658 -1.0213  0.4729 -0.1769
  174SAPI  C21019748   5.771  -0.265   9.615  0.3395  1.2095  0.5783
  174SAPI  H10R19749   5.714  -0.326   9.689  0.9579 -0.7326 -0.5301
  174SAPI  H10S19750   5.864  -0.325   9.608 -1.7214 -1.9284 -1.0673
  174SAPI  C21119751   5.681  -0.249   9.495  0.2077  0.1316  0.1771
  174SAPI  H11R19752   5.593  -0.184   9.512  1.0755  0.9375  1.7015
  174SAPI  C21219753   5.694  -0.313   9.377 -0.2514 -0.6436 -0.1964
  174SAPI  H12R19754   5.622  -0.293   9.296 -1.5732  3.0320  1.7510
  174SAPI  C21319755   5.798  -0.420   9.347 -0.0404 -0.5051  0.5167
  174SAPI  H13R19756   5.754  -0.521   9.363  0.8401 -0.9936 -0.0844
  174SAPI  H13S19757   5.882  -0.417   9.420 -0.1112  1.0264  0.5540
  174SAPI  C21419758   5.855  -0.414   9.211  0.3436  0.1174  0.8630
  174SAPI  H14R19759   5.963  -0.392   9.211 -0.1499  2.6747  0.8774
  174SAPI  C21519760   5.788  -0.435   9.097 -0.3422  0.0113  0.5181
  174SAPI  H15R19761   5.844  -0.434   9.002 -2.1295 -2.5581 -0.5892
  174SAPI  C21619762   5.641  -0.462   9.079  0.6491 -0.4651 -0.1639
  174SAPI  H16R19763   5.588  -0.379   9.028 -0.2467 -1.7200 -1.3262
  174SAPI  H16S19764   5.602  -0.483   9.181 -1.4819  1.6055 -0.5164
  174SAPI  C21719765   5.610  -0.585   8.985  0.8763  0.4127  0.3421
  174SAPI  H17R19766   5.502  -0.609   8.989  0.6589  0.9335 -1.8914
  174SAPI  H17S19767   5.656  -0.674   9.034 -0.4933 -0.1794  0.5774
  174SAPI  C21819768   5.659  -0.566   8.840  0.5116  0.8962 -0.1742
  174SAPI  H18R19769   5.770  -0.559   8.844  0.6117  0.5287 -1.8030
  174SAPI  H18S19770   5.619  -0.472   8.796 -4.6576 -1.6678 -1.3003
  174SAPI  C21919771   5.625  -0.693   8.753  0.3398 -0.3080 -0.4598
  174SAPI  H19R19772   5.516  -0.679   8.734  0.2757  1.3054  0.9287
  174SAPI  H19S19773   5.626  -0.794   8.801 -2.0291  1.2728  3.2082
  174SAPI  C22019774   5.696  -0.688   8.618  0.4964  0.2846 -0.1054
  174SAPI  H20R19775   5.806  -0.676   8.618  0.6980 -1.4432 -0.6202
  174SAPI  H20S19776   5.654  -0.605   8.558  0.0765  0.7269  0.7930
  174SAPI  H20T19777   5.669  -0.782   8.566 -1.3976  0.4457  0.5137
  174SAPI   C3319778   5.187   0.231  10.129 -0.8419  0.0344 -0.5975
  174SAPI   H3X19779   5.083   0.238  10.169 -0.5028 -2.0692  0.7442
  174SAPI   H3Y19780   5.216   0.125  10.144  1.5571  0.9740  1.9274
  174SAPI   C3419781   5.199   0.289   9.987  0.5013  0.2254 -0.4334
  174SAPI   H4X19782   5.308   0.285   9.966  0.2339 -0.0986 -1.8277
  174SAPI   H4Y19783   5.160   0.393   9.973 -0.3412 -0.1714 -1.0996
  174SAPI   C3519784   5.118   0.197   9.881 -0.6052 -0.4276 -0.3251
  174SAPI   H5X19785   5.014   0.173   9.912  0.0322 -2.8509  0.0198
  174SAPI   H5Y19786   5.168   0.098   9.875 -1.0725 -0.6906  0.0900
  174SAPI   C3619787   5.105   0.258   9.742  0.4476  0.5789  0.7756
  174SAPI   H6X19788   5.208   0.267   9.701  0.6768 -1.0263  0.9678
  174SAPI   H6Y19789   5.070   0.362   9.761  0.7876  0.5498  1.5475
  174SAPI   C3719790   5.014   0.188   9.632 -0.4092  0.3357  0.2146
  174SAPI   H7X19791   4.913   0.165   9.672 -0.4643  1.1375  0.5545
  174SAPI   H7Y19792   5.062   0.088   9.620 -0.3690  0.1470  1.8274
  174SAPI   C3819793   5.000   0.268   9.499 -0.0500 -0.3124  0.3023
  174SAPI   H8X19794   5.103   0.256   9.459 -0.6995  0.0887 -1.5617
  174SAPI   H8Y19795   4.967   0.373   9.516 -0.6053 -0.4308 -0.0269
  174SAPI   C3919796   4.899   0.208   9.400  0.0007 -0.1370  0.2867
  174SAPI   H9X19797   4.796   0.202   9.441 -0.7903 -0.7073 -1.7191
  174SAPI   H9Y19798   4.930   0.105   9.373  0.0413  0.0532 -0.4054
  174SAPI  C31019799   4.883   0.286   9.271  0.6611  0.4283  0.4502
  174SAPI  H10X19800   4.981   0.299   9.219 -0.5599 -0.2173 -2.1084
  174SAPI  H10Y19801   4.849   0.391   9.284  0.9326  0.5542  0.1537
  174SAPI  C31119802   4.779   0.215   9.183 -0.1498 -0.4521  0.4211
  174SAPI  H11X19803   4.781   0.275   9.090 -1.1904 -0.4047  0.4317
  174SAPI  H11Y19804   4.684   0.225   9.240  1.6906  1.5725  3.3096
  174SAPI  C31219805   4.800   0.066   9.141 -0.3129  0.3636 -0.1310
  174SAPI  H12X19806   4.837   0.008   9.229  0.0550  2.3879  1.0612
  174SAPI  H12Y19807   4.880   0.053   9.066 -2.7692  0.3035 -2.8189
  174SAPI  C31319808   4.670  -0.003   9.086 -0.0983 -0.0162 -0.2098
  174SAPI  H13X19809   4.635   0.048   8.994  0.9208  1.4948  0.2351
  174SAPI  H13Y19810   4.596   0.015   9.166  0.4387  0.7653  0.1095
  174SAPI  C31419811   4.690  -0.156   9.077 -0.2031 -0.2139  0.4662
  174SAPI  H14X19812   4.648  -0.201   9.170  0.1920  1.1647  1.3223
  174SAPI  H14Y19813   4.799  -0.177   9.084 -0.2635 -0.4977  0.5646
  174SAPI  C31519814   4.608  -0.222   8.964 -1.4913 -0.3477 -0.5280
  174SAPI  H15X19815   4.511  -0.168   8.959 -2.5267 -1.7758  2.6558
  174SAPI  H15Y19816   4.600  -0.329   8.994  2.2174 -0.0409  1.8736
  174SAPI  C31619817   4.671  -0.208   8.823 -0.4948 -0.5043  0.3200
  174SAPI  H16X19818   4.694  -0.100   8.807 -0.6222 -0.8563 -2.4064
  174SAPI  H16Y19819   4.612  -0.256   8.743 -2.4111  2.1407  0.0642
  174SAPI  C31719820   4.812  -0.283   8.814  0.0327 -0.5153 -0.2269
  174SAPI  H17X19821   4.791  -0.378   8.868  0.2387  0.9052  2.4315
  174SAPI  H17Y19822   4.893  -0.228   8.868 -1.8197 -0.5694  2.7305
  174SAPI  C31819823   4.856  -0.315   8.668 -0.4146 -0.2163 -0.3122
  174SAPI  H18X19824   4.927  -0.400   8.663 -0.8167 -0.6373  0.9476
  174SAPI  H18Y19825   4.905  -0.228   8.621  0.4124 -0.4200  0.1755
  174SAPI  H18Z19826   4.769  -0.349   8.608  0.4156 -1.0921 -1.0259
  175SAPI   C1219827   1.251   5.413   6.291 -0.3531 -0.1293  0.6195
  175SAPI    H219828   1.292   5.497   6.231 -1.4827  1.4169  1.9567
  175SAPI    O219829   1.168   5.466   6.390 -0.0375  0.1051 -0.4480
  175SAPI   HO219830   1.229   5.500   6.456 -1.3366  0.6281  0.5093
  175SAPI   C1319831   1.173   5.334   6.196 -0.6743 -0.1523  0.1367
  175SAPI    H319832   1.251   5.299   6.124  1.1270  0.1192  1.9219
  175SAPI    O319833   1.079   5.411   6.120 -0.5472  0.1953  0.6212
  175SAPI   HO319834   0.998   5.401   6.171 -0.5971 -2.6779  0.0726
  175SAPI   C1419835   1.116   5.213   6.257  0.5216  0.1442 -0.2255
  175SAPI    H419836   1.051   5.252   6.339  2.5021  0.4461  1.2512
  175SAPI    O419837   1.034   5.138   6.165 -0.3947  0.3635  0.1712
  175SAPI   HO419838   0.949   5.116   6.204 -0.3363  0.3756  0.3062
  175SAPI   C1519839   1.223   5.122   6.318  0.0663 -0.6914 -0.2935
  175SAPI    H519840   1.298   5.088   6.244  1.5206  0.9853  0.3871
  175SAPI    O519841   1.174   5.000   6.376  0.1920  0.3958 -0.7702
  175SAPI   HO519842   1.195   4.933   6.311 -0.7738 -0.9635  0.2878
  175SAPI   C1619843   1.299   5.203   6.424 -0.5424  0.2907  0.0834
  175SAPI    H619844   1.236   5.243   6.506 -0.2613 -0.4619  0.6730
  175SAPI    O619845   1.400   5.116   6.485 -0.1915  0.4299  0.2174
  175SAPI   HO619846   1.485   5.154   6.462  0.5156 -1.8734 -1.1427
  175SAPI   C1119847   1.360   5.328   6.354  0.4140  0.0997  0.0209
  175SAPI    H119848   1.424   5.301   6.267 -0.2046  0.4288 -0.5438
  175SAPI     P19849   1.578   5.406   6.495 -0.1720  0.0936  0.0306
  175SAPI   O1319850   1.650   5.517   6.431  0.4604 -0.0865  0.7900
  175SAPI   O1419851   1.623   5.267   6.489  0.0876  0.0319 -0.0483
  175SAPI   O1219852   1.424   5.415   6.453 -0.3885  0.1308 -0.4007
  175SAPI   O1119853   1.568   5.440   6.650 -0.2546 -0.3142  0.1945
  175SAPI    C119854   1.505   5.329   6.721  0.3803 -0.0971 -0.5233
  175SAPI    HA19855   1.409   5.301   6.672  0.0862 -1.6297  0.8586
  175SAPI    HB19856   1.568   5.237   6.720  1.1067  0.3972 -0.2499
  175SAPI    C219857   1.483   5.353   6.872  0.0872 -0.3304 -0.6232
  175SAPI    HS19858   1.443   5.261   6.918  0.4213  0.3205  0.9925
  175SAPI   O2119859   1.396   5.466   6.890  0.3221 -0.4449  0.8549
  175SAPI   C2119860   1.265   5.448   6.883 -0.2419  0.4467 -0.4286
  175SAPI   O2219861   1.209   5.344   6.893  0.0748 -0.1197 -0.2536
  175SAPI   C2219862   1.195   5.578   6.857 -0.3927 -0.2756 -0.1833
  175SAPI   H2R19863   1.097   5.565   6.908  0.3856  2.1609  2.0815
  175SAPI   H2S19864   1.253   5.654   6.914 -1.4145 -1.4114  2.4549
  175SAPI    C319865   1.624   5.363   6.937 -0.1517 -0.1015  0.2056
  175SAPI    HX19866   1.671   5.448   6.883 -0.1574 -0.3671 -0.2284
  175SAPI    HY19867   1.707   5.294   6.911  1.8636  2.3405 -0.0241
  175SAPI   O3119868   1.619   5.380   7.083  0.0822 -0.1775 -0.6042
  175SAPI   C3119869   1.623   5.263   7.153 -0.4352 -0.0528 -0.1276
  175SAPI   O3219870   1.635   5.157   7.096 -0.1504 -0.5888  0.2667
  175SAPI   C3219871   1.658   5.293   7.299 -0.6699  0.0697 -0.1737
  175SAPI   H2X19872   1.582   5.352   7.354  1.6737  1.1893  1.9460
  175SAPI   H2Y19873   1.744   5.364   7.295  0.6497 -1.3641  1.8505
  175SAPI   C2319874   1.184   5.600   6.708  0.5809 -0.1756 -0.3450
  175SAPI   H3R19875   1.136   5.511   6.663  4.1645 -2.1041 -0.5446
  175SAPI   H3S19876   1.286   5.611   6.666  1.0132  0.3887  0.8016
  175SAPI   C2419877   1.113   5.722   6.666 -1.0408 -0.1155  0.6105
  175SAPI   H4R19878   1.120   5.741   6.557 -0.1811  1.7740  0.9716
  175SAPI   H4S19879   1.163   5.812   6.708 -1.3671  0.1249  0.4881
  175SAPI   C2519880   0.968   5.708   6.694  0.2321 -0.3996 -0.3799
  175SAPI   H5R19881   0.913   5.627   6.644  0.1927  1.0256 -2.6790
  175SAPI   C2619882   0.903   5.789   6.783  0.5321  0.0455 -0.0094
  175SAPI   H6R19883   0.794   5.781   6.792  0.5044  2.6683  2.4903
  175SAPI   C2719884   0.959   5.900   6.868 -0.3844  0.7275 -0.4875
  175SAPI   H7R19885   0.894   5.990   6.877 -1.1497  0.1876 -0.5562
  175SAPI   H7S19886   1.051   5.942   6.822 -1.3378  1.8019 -1.4543
  175SAPI   C2819887   1.004   5.845   7.005  0.3780  0.0522 -0.5873
  175SAPI   H8R19888   1.108   5.810   7.002 -0.5848 -2.7677 -3.2441
  175SAPI   C2919889   0.932   5.853   7.119  0.6773  0.1688  0.2597
  175SAPI   H9R19890   0.966   5.800   7.210 -0.0166  0.2072  0.5461
  175SAPI  C21019891   0.786   5.894   7.129 -0.6799  0.2399  0.6750
  175SAPI  H10R19892   0.722   5.811   7.165  1.1888 -0.4651  2.4029
  175SAPI  H10S19893   0.742   5.924   7.031  0.6804 -0.0257 -0.0281
  175SAPI  C21119894   0.759   6.007   7.218 -0.1785 -0.5427  0.4402
  175SAPI  H11R19895   0.845   6.076   7.222  0.4231 -1.0969 -2.0035
  175SAPI  C21219896   0.638   6.043   7.267 -0.0243  0.5122  0.1558
  175SAPI  H12R19897   0.638   6.130   7.335 -2.8235 -0.7243  1.8647
  175SAPI  C21319898   0.511   5.972   7.255  0.4705  0.4032  0.3288
  175SAPI  H13R19899   0.530   5.878   7.311 -0.6342 -0.5545 -0.8753
  175SAPI  H13S19900   0.488   5.939   7.152  1.3345  3.2127 -0.8126
  175SAPI  C21419901   0.387   6.043   7.310  0.4396 -0.0170  0.6006
  175SAPI  H14R19902   0.355   6.132   7.252 -1.1238  0.6294  2.4051
  175SAPI  C21519903   0.341   6.029   7.432  0.4805 -0.9104  0.1757
  175SAPI  H15R19904   0.252   6.089   7.457  0.4355 -1.7643  2.1903
  175SAPI  C21619905   0.394   5.946   7.539 -0.0248  0.3000  0.0110
  175SAPI  H16R19906   0.478   5.990   7.597 -1.6905  2.9761  0.5232
  175SAPI  H16S19907   0.426   5.851   7.491  0.0850  0.2558  0.1731
  175SAPI  C21719908   0.289   5.916   7.642 -0.1758 -0.3427 -0.8833
  175SAPI  H17R19909   0.196   5.872   7.601  0.3830 -1.4395 -0.9734
  175SAPI  H17S19910   0.261   6.006   7.701  2.6837 -0.4095  0.6425
  175SAPI  C21819911   0.339   5.821   7.752  0.2509 -1.0250  0.0478
  175SAPI  H18R19912   0.423   5.875   7.802  0.5039 -0.2239 -1.2179
  175SAPI  H18S19913   0.385   5.728   7.713 -0.2772 -1.1674 -0.2299
  175SAPI  C21919914   0.231   5.782   7.853 -0.7222 -0.3560  0.2648
  175SAPI  H19R19915   0.272   5.691   7.902  0.2596  0.3578  0.7860
  175SAPI  H19S19916   0.143   5.746   7.795  1.0318  1.2361 -3.5099
  175SAPI  C22019917   0.192   5.879   7.969  1.0286  0.2452 -0.1983
  175SAPI  H20R19918   0.139   5.966   7.926 -0.9490 -1.1636 -0.6353
  175SAPI  H20S19919   0.281   5.915   8.026  0.1902  0.8668  0.7410
  175SAPI  H20T19920   0.120   5.827   8.036 -1.0202  1.9607 -1.0447
  175SAPI   C3319921   1.713   5.177   7.386 -0.6836 -0.3761  0.6367
  175SAPI   H3X19922   1.819   5.159   7.357 -1.0710 -2.7680  0.6396
  175SAPI   H3Y19923   1.651   5.088   7.364 -0.5608  0.3633 -2.9563
  175SAPI   C3419924   1.727   5.218   7.536 -0.6469  0.3023 -0.4236
  175SAPI   H4X19925   1.623   5.215   7.576 -1.0170 -3.0246 -1.5414
  175SAPI   H4Y19926   1.766   5.322   7.528 -0.7428  0.3858  0.1748
  175SAPI   C3519927   1.819   5.138   7.626  0.2430 -0.4614 -0.0749
  175SAPI   H5X19928   1.922   5.145   7.586  0.3483 -0.5829  0.1769
  175SAPI   H5Y19929   1.795   5.029   7.618 -0.8494 -0.2804  0.6637
  175SAPI   C3619930   1.813   5.190   7.774  0.3298  0.2182  0.0216
  175SAPI   H6X19931   1.708   5.183   7.810 -0.2191 -1.5508 -1.8216
  175SAPI   H6Y19932   1.843   5.297   7.770 -3.0302  1.2370 -0.0165
  175SAPI   C3719933   1.892   5.095   7.864 -0.0679  0.3645  0.2931
  175SAPI   H7X19934   1.990   5.082   7.813  0.5946  0.6928  1.4629
  175SAPI   H7Y19935   1.850   4.993   7.862 -0.0152  0.3365  0.5913
  175SAPI   C3819936   1.906   5.150   8.006  0.4542  0.0490  0.0236
  175SAPI   H8X19937   1.966   5.083   8.071  1.2177 -1.8345 -2.5228
  175SAPI   H8Y19938   1.803   5.139   8.046  0.5837 -2.2855 -0.1781
  175SAPI   C3919939   1.941   5.296   8.018  0.0616 -0.9573  0.1636
  175SAPI   H9X19940   1.868   5.369   7.976  0.9148 -0.3189 -0.2284
  175SAPI   H9Y19941   2.040   5.307   7.968 -0.8816 -1.8491 -1.9889
  175SAPI  C31019942   1.959   5.342   8.168  0.1611 -0.2104 -0.4611
  175SAPI  H10X19943   1.859   5.347   8.218  0.6720 -1.7777  0.7762
  175SAPI  H10Y19944   1.993   5.447   8.178 -0.7758 -0.0150  0.9468
  175SAPI  C31119945   2.066   5.267   8.254  0.3678 -0.5565 -0.0977
  175SAPI  H11X19946   2.159   5.263   8.194  0.9291  0.8070  0.6607
  175SAPI  H11Y19947   2.035   5.162   8.272  0.3810 -0.4066  0.8295
  175SAPI  C31219948   2.089   5.333   8.392  0.0642  0.0546 -0.2425
  175SAPI  H12X19949   2.003   5.310   8.458 -0.4413 -0.9954 -1.2466
  175SAPI  H12Y19950   2.104   5.442   8.373 -1.7200  0.5406  0.9747
  175SAPI  C31319951   2.209   5.282   8.469  0.3472  0.1863  0.4534
  175SAPI  H13X19952   2.297   5.341   8.437 -1.0865  1.2448 -1.6663
  175SAPI  H13Y19953   2.228   5.177   8.438 -2.2802 -0.1493 -0.1634
  175SAPI  C31419954   2.200   5.280   8.623  0.5177 -0.1531 -0.1985
  175SAPI  H14X19955   2.100   5.239   8.649  1.2583 -0.8959  1.5505
  175SAPI  H14Y19956   2.207   5.381   8.668 -0.6746 -1.2197  2.4643
  175SAPI  C31519957   2.303   5.188   8.686 -0.5419 -0.5731 -0.4203
  175SAPI  H15X19958   2.353   5.116   8.618 -0.3524 -0.2012 -0.6755
  175SAPI  H15Y19959   2.269   5.129   8.773 -1.7784 -0.0564 -0.5408
  175SAPI  C31619960   2.411   5.273   8.756 -0.0524 -0.2923  0.4825
  175SAPI  H16X19961   2.383   5.312   8.856  0.5087  0.1141  0.4818
  175SAPI  H16Y19962   2.441   5.365   8.701  0.2972  0.3193  1.6815
  175SAPI  C31719963   2.549   5.194   8.762  0.4201 -0.1624 -0.1313
  175SAPI  H17X19964   2.538   5.100   8.821  0.0242 -0.3167 -0.4523
  175SAPI  H17Y19965   2.617   5.266   8.814  0.7587  1.5948 -2.9072
  175SAPI  C31819966   2.614   5.177   8.623  0.1298  0.3567 -0.0184
  175SAPI  H18X19967   2.636   5.278   8.581 -0.8617  0.5720 -0.0264
  175SAPI  H18Y19968   2.551   5.125   8.548 -0.0163 -0.4601  0.6700
  175SAPI  H18Z19969   2.706   5.114   8.626 -0.9743 -1.8614 -5.6246
  176SAPI   C1219970   0.166   3.628   6.461 -0.5568 -0.1758 -0.4003
  176SAPI    H219971   0.168   3.662   6.567  0.9088 -1.1126 -0.1113
  176SAPI    O219972   0.238   3.504   6.443  0.0875 -0.0880  0.0353
  176SAPI   HO219973   0.251   3.466   6.530  2.6295 -0.0015 -0.2764
  176SAPI   C1319974   0.023   3.615   6.407  1.0170  0.4540 -0.2388
  176SAPI    H319975  -0.030   3.711   6.422 -0.9602 -0.5590 -0.6959
  176SAPI    O319976  -0.053   3.519   6.479  0.2431 -0.0759 -0.2949
  176SAPI   HO319977  -0.034   3.433   6.440 -0.7931  0.3254 -1.6847
  176SAPI   C1419978   0.032   3.582   6.257  0.1255  0.5700  0.0456
  176SAPI    H419979   0.080   3.482   6.251  2.3873  1.7150 -2.2564
  176SAPI    O419980  -0.096   3.562   6.193 -0.0553 -0.7653  0.8164
  176SAPI   HO419981  -0.084   3.486   6.136  1.7032 -0.2175  0.4449
  176SAPI   C1519982   0.123   3.678   6.179 -0.1943 -0.6615 -0.9431
  176SAPI    H519983   0.073   3.777   6.168 -2.2169 -1.5137  0.4702
  176SAPI    O519984   0.144   3.635   6.050  0.9725  0.0434 -0.6469
  176SAPI   HO519985   0.105   3.706   5.999  0.6537  0.0593 -0.3825
  176SAPI   C1619986   0.259   3.716   6.244 -0.2028  0.3219 -0.4045
  176SAPI    H619987   0.333   3.634   6.237 -0.2115  0.0479  2.2562
  176SAPI    O619988   0.306   3.833   6.174  0.3993 -0.3516  0.3959
  176SAPI   HO619989   0.366   3.885   6.228  0.6170 -0.9855  0.7737
  176SAPI   C1119990   0.239   3.747   6.392  0.1563 -0.6387  0.3971
  176SAPI    H119991   0.168   3.832   6.396 -2.3282 -2.6213  0.4770
  176SAPI     P19992   0.442   3.911   6.477 -0.0525  0.2997  0.0616
  176SAPI   O1319993   0.422   3.986   6.354 -0.1546 -0.2208 -0.8417
  176SAPI   O1419994   0.586   3.901   6.525  0.0388  1.0243  0.3806
  176SAPI   O1219995   0.365   3.768   6.465  0.1367  0.5568  0.3604
  176SAPI   O1119996   0.348   3.971   6.594 -0.3606  0.2394  0.5159
  176SAPI    C119997   0.356   3.908   6.728  0.6489  0.1366 -0.8648
  176SAPI    HA19998   0.258   3.864   6.756  0.8187  1.0246  1.2664
  176SAPI    HB19999   0.440   3.837   6.740 -0.8788 -1.7214 -0.9428
  176SAPI    C220000   0.373   4.007   6.848 -0.2125 -0.3373 -0.6765
  176SAPI    HS20001   0.407   3.954   6.939 -2.0875  0.8789  0.7662
  176SAPI   O2120002   0.254   4.078   6.882 -0.0658 -0.1472 -0.2244
  176SAPI   C2120003   0.203   4.059   6.998 -0.0874 -0.5082 -0.1353
  176SAPI   O2220004   0.261   4.013   7.096  0.2133 -0.2879 -0.7789
  176SAPI   C2220005   0.070   4.127   6.997 -0.3206  0.0038 -0.0192
  176SAPI   H2R20006   0.087   4.228   6.955 -1.5678  0.4766  0.5802
  176SAPI   H2S20007   0.003   4.072   6.928  1.8253 -2.8380  0.0559
  176SAPI    C320008   0.476   4.118   6.820  0.1866  0.4081 -0.5379
  176SAPI    HX20009   0.436   4.177   6.734 -2.6445 -0.2857  0.2695
  176SAPI    HY20010   0.568   4.073   6.777  2.4176 -0.4652  4.8488
  176SAPI   O3120011   0.496   4.207   6.931  0.2161 -0.0737 -0.4093
  176SAPI   C3120012   0.588   4.166   7.020  0.8940 -0.1213 -0.1022
  176SAPI   O3220013   0.651   4.060   7.004 -0.0848 -0.2339 -0.0031
  176SAPI   C3220014   0.597   4.267   7.131 -0.0052  0.9671 -0.2802
  176SAPI   H2X20015   0.498   4.307   7.162 -0.7517 -1.2728  0.3075
  176SAPI   H2Y20016   0.661   4.347   7.089  1.8318 -0.3651 -0.0667
  176SAPI   C2320017   0.017   4.132   7.145 -0.6562  0.3893 -0.1621
  176SAPI   H3R20018   0.101   4.153   7.214 -1.2860 -1.8334  1.3313
  176SAPI   H3S20019  -0.032   4.038   7.178 -0.9413  0.9028  0.8892
  176SAPI   C2420020  -0.090   4.243   7.150 -0.3996  0.0787 -0.2837
  176SAPI   H4R20021  -0.165   4.213   7.072  0.0971  1.5281 -1.3424
  176SAPI   H4S20022  -0.042   4.333   7.108 -0.9158  0.2601 -0.4923
  176SAPI   C2520023  -0.143   4.276   7.286  0.3148  0.1117 -0.4278
  176SAPI   H5R20024  -0.205   4.198   7.334  1.9033  0.0399  1.5710
  176SAPI   C2620025  -0.121   4.391   7.352  0.7922 -0.2438 -0.0115
  176SAPI   H6R20026  -0.174   4.408   7.447 -0.6227  0.1149 -0.8610
  176SAPI   C2720027  -0.031   4.507   7.304 -0.5053 -0.4260  0.5877
  176SAPI   H7R20028   0.060   4.471   7.252  1.1537  0.6498  2.6581
  176SAPI   H7S20029   0.008   4.556   7.395 -1.8242 -0.5603  1.2445
  176SAPI   C2820030  -0.109   4.591   7.207 -1.0024  0.3902 -0.3049
  176SAPI   H8R20031  -0.173   4.532   7.139 -0.1155  1.5504 -2.1541
  176SAPI   C2920032  -0.099   4.724   7.202  0.2563  0.5425 -0.3666
  176SAPI   H9R20033  -0.167   4.781   7.137 -0.1189  1.5142  0.8536
  176SAPI  C21020034  -0.015   4.808   7.298 -0.1876  0.4780  0.2906
  176SAPI  H10R20035   0.045   4.889   7.252  0.8952  0.1075  1.0186
  176SAPI  H10S20036   0.065   4.749   7.349 -0.2662  0.4226  0.3518
  176SAPI  C21120037  -0.104   4.876   7.400  0.1909  0.0933 -0.2119
  176SAPI  H11R20038  -0.201   4.913   7.366 -1.5740 -2.2378  2.0873
  176SAPI  C21220039  -0.068   4.910   7.525  0.2208  0.2397  0.0927
  176SAPI  H12R20040  -0.151   4.953   7.584  0.5608  1.7179 -0.4793
  176SAPI  C21320041   0.055   4.863   7.593  0.0177  0.1865 -0.0346
  176SAPI  H13R20042   0.141   4.919   7.550  2.3592 -1.1583  2.7023
  176SAPI  H13S20043   0.076   4.758   7.563  1.8709  1.2736 -2.6550
  176SAPI  C21420044   0.040   4.884   7.741 -0.1277  0.9319 -0.2757
  176SAPI  H14R20045  -0.014   4.975   7.774 -1.3648 -0.3038  1.1987
  176SAPI  C21520046   0.072   4.792   7.835 -0.3646 -0.0818 -0.6229
  176SAPI  H15R20047   0.045   4.823   7.936  0.9028  0.3603 -0.4161
  176SAPI  C21620048   0.131   4.653   7.828 -0.3415 -0.6731 -0.1688
  176SAPI  H16R20049   0.109   4.599   7.733 -1.7994  0.0595 -0.2543
  176SAPI  H16S20050   0.076   4.586   7.897 -1.3212 -0.3985 -0.6754
  176SAPI  C21720051   0.282   4.651   7.867 -0.4179 -0.2588  0.6925
  176SAPI  H17R20052   0.327   4.549   7.873 -1.1788 -0.7588 -1.8366
  176SAPI  H17S20053   0.293   4.691   7.970 -0.4019 -1.1623  1.0495
  176SAPI  C21820054   0.368   4.729   7.764 -0.2149 -0.5678 -0.0154
  176SAPI  H18R20055   0.357   4.838   7.781  1.1812 -0.0500 -2.2528
  176SAPI  H18S20056   0.342   4.716   7.656 -1.4933 -0.2273  0.2516
  176SAPI  C21920057   0.522   4.727   7.778 -0.1396  0.5244  0.0927
  176SAPI  H19R20058   0.563   4.807   7.714  1.1400 -1.8830 -2.1984
  176SAPI  H19S20059   0.553   4.630   7.733 -0.0093  0.0861  1.1049
  176SAPI  C22020060   0.583   4.761   7.917  0.2810 -0.0113  0.9656
  176SAPI  H20R20061   0.682   4.810   7.909 -1.0412  2.3943 -1.5057
  176SAPI  H20S20062   0.574   4.672   7.983 -2.9011 -0.3567  0.1415
  176SAPI  H20T20063   0.519   4.839   7.964 -1.0163  1.0314 -2.3553
  176SAPI   C3320064   0.651   4.195   7.261 -0.0497 -0.9504  0.0149
  176SAPI   H3X20065   0.663   4.278   7.334 -0.2073 -1.0843  0.1934
  176SAPI   H3Y20066   0.751   4.159   7.230  0.8977  1.6328 -0.0545
  176SAPI   C3420067   0.555   4.088   7.322  0.9685  0.0486  0.3247
  176SAPI   H4X20068   0.550   3.995   7.261 -1.5598  1.2316 -1.3910
  176SAPI   H4Y20069   0.454   4.135   7.326  0.1761 -1.6750  1.1637
  176SAPI   C3520070   0.596   4.032   7.460 -0.5286 -0.1652  0.1065
  176SAPI   H5X20071   0.679   3.961   7.441  0.8922  1.2760  0.7436
  176SAPI   H5Y20072   0.505   3.978   7.493 -0.7325  0.0670 -0.0716
  176SAPI   C3620073   0.648   4.135   7.562  0.0048  0.6178  0.0296
  176SAPI   H6X20074   0.567   4.205   7.594  0.4115  1.0353  0.1495
  176SAPI   H6Y20075   0.726   4.197   7.514  0.1107 -1.0032 -1.9800
  176SAPI   C3720076   0.699   4.066   7.694  0.0130  0.0270 -0.0172
  176SAPI   H7X20077   0.802   4.026   7.677 -0.3030 -0.5546 -0.6006
  176SAPI   H7Y20078   0.641   3.978   7.730  1.5515 -0.3983  1.5337
  176SAPI   C3820079   0.714   4.160   7.815  1.3600 -0.3942  0.1181
  176SAPI   H8X20080   0.758   4.259   7.791 -1.9347  1.0384 -0.1825
  176SAPI   H8Y20081   0.779   4.105   7.887 -2.2721 -2.6798  1.8031
  176SAPI   C3920082   0.593   4.196   7.908 -0.3399  0.2123 -0.5409
  176SAPI   H9X20083   0.548   4.105   7.955 -0.2249  0.0398 -0.7621
  176SAPI   H9Y20084   0.513   4.251   7.854 -0.9712 -0.1258  0.0415
  176SAPI  C31020085   0.642   4.288   8.019  0.0720 -0.0392 -0.1092
  176SAPI  H10X20086   0.699   4.371   7.972  0.1626 -0.1661 -0.2211
  176SAPI  H10Y20087   0.699   4.229   8.094  0.2196 -0.5689 -0.6436
  176SAPI  C31120088   0.543   4.377   8.094 -0.4756  0.6117  0.2278
  176SAPI  H11X20089   0.533   4.480   8.055  1.4408  0.3245 -1.0909
  176SAPI  H11Y20090   0.604   4.398   8.184  0.0781 -3.2229  0.8114
  176SAPI  C31220091   0.407   4.324   8.143 -0.4940  0.4045 -0.4400
  176SAPI  H12X20092   0.423   4.223   8.187  1.9155  0.6918 -0.6011
  176SAPI  H12Y20093   0.339   4.316   8.056 -1.3665 -1.0187  0.3414
  176SAPI  C31320094   0.331   4.413   8.241 -0.2166  0.2175  0.3066
  176SAPI  H13X20095   0.331   4.513   8.192  2.8437  0.2487  0.2582
  176SAPI  H13Y20096   0.385   4.422   8.338  2.6211  0.5694 -1.2393
  176SAPI  C31420097   0.186   4.378   8.261  0.6725  0.8262  0.6231
  176SAPI  H14X20098   0.168   4.287   8.323 -0.5916 -0.2352 -1.2520
  176SAPI  H14Y20099   0.149   4.355   8.159  2.6915 -1.4908  0.3641
  176SAPI  C31520100   0.107   4.487   8.334  0.1552 -0.0554 -0.2019
  176SAPI  H15X20101   0.177   4.562   8.376 -2.0941  1.1210  1.5871
  176SAPI  H15Y20102   0.056   4.449   8.426  1.1710  1.3360  0.9437
  176SAPI  C31620103  -0.004   4.556   8.237 -0.0874  0.0784  0.1746
  176SAPI  H16X20104   0.020   4.520   8.135 -0.7212  0.4336 -0.1040
  176SAPI  H16Y20105   0.022   4.662   8.220 -2.3830  0.8208  1.1114
  176SAPI  C31720106  -0.149   4.542   8.286  0.5041 -0.4674 -0.1690
  176SAPI  H17X20107  -0.168   4.435   8.311  4.5754 -0.6213  2.9331
  176SAPI  H17Y20108  -0.220   4.583   8.211  1.4891  0.3251 -0.6788
  176SAPI  C31820109  -0.174   4.613   8.421  0.3021  0.6999  0.4093
  176SAPI  H18X20110  -0.154   4.720   8.397 -1.1271  1.4681  2.4482
  176SAPI  H18Y20111  -0.105   4.581   8.502  1.0658 -0.6880 -0.7805
  176SAPI  H18Z20112  -0.278   4.613   8.461  0.4040 -0.5451  0.6976
  177SLPC     N20113   0.456   6.776  10.714  0.1588 -0.6630 -0.1374
  177SLPC   C1320114   0.561   6.692  10.668  0.6869  0.0704  0.4672
  177SLPC  H13A20115   0.553   6.592  10.707 -3.7090 -0.4156 -1.4635
  177SLPC  H13B20116   0.575   6.679  10.562  0.1362  3.8430 -0.1531
  177SLPC  H13C20117   0.652   6.743  10.697 -0.3648  2.7118 -0.6742
  177SLPC   C1420118   0.320   6.742  10.655 -0.2257  1.1854  0.4831
  177SLPC  H14A20119   0.309   6.778  10.553 -0.1046  1.4157  0.5503
  177SLPC  H14B20120   0.286   6.641  10.671  0.4992  1.0204  0.9946
  177SLPC  H14C20121   0.246   6.801  10.707 -0.8169  0.9416 -0.0643
  177SLPC   C1520122   0.494   6.919  10.686  0.1675  0.5071 -0.0974
  177SLPC  H15A20123   0.587   6.948  10.732 -0.4180 -0.7412  1.8832
  177SLPC  H15B20124   0.494   6.938  10.579  2.2016 -0.5927 -0.3167
  177SLPC  H15C20125   0.423   6.987  10.731  0.6118  0.9931 -0.1252
  177SLPC   C1220126   0.441   6.757  10.863  0.0016 -0.5093 -0.7490
  177SLPC  H12A20127   0.527   6.798  10.914 -0.0927  0.1930 -1.1455
  177SLPC  H12B20128   0.435   6.653  10.891  2.5202 -0.0949  1.5459
  177SLPC   C1120129   0.316   6.818  10.935 -0.3228  0.3690  0.7472
  177SLPC  H11A20130   0.325   6.798  11.044 -1.9075 -1.3963  0.5675
  177SLPC  H11B20131   0.226   6.764  10.900 -0.1577 -0.7473  1.9794
  177SLPC     P20132   0.174   7.035  10.887  0.0599  0.2067  0.3140
  177SLPC   O1320133   0.073   7.010  10.987 -0.0805 -0.1617 -0.1117
  177SLPC   O1420134   0.216   7.176  10.875 -0.3933 -0.2811 -0.0387
  177SLPC   O1220135   0.303   6.954  10.920 -0.4884 -0.4617 -0.0140
  177SLPC   O1120136   0.135   6.978  10.746  0.1560  0.5055  0.6433
  177SLPC    C120137   0.003   6.999  10.691  0.8837  0.0018 -0.8173
  177SLPC    HA20138  -0.064   6.912  10.712  0.4805  0.9406  2.0481
  177SLPC    HB20139  -0.049   7.090  10.727  2.8609  0.5569  0.7274
  177SLPC    C220140   0.017   6.992  10.536  0.0128  0.1955 -0.1401
  177SLPC    HS20141   0.067   6.894  10.522  0.2179  0.2838 -0.0138
  177SLPC   O2120142   0.093   7.111  10.484 -0.5176  0.0143 -0.1864
  177SLPC   C2120143   0.227   7.092  10.451  0.1525 -0.2026 -0.3306
  177SLPC   O2220144   0.283   6.987  10.438 -0.4249 -0.2795 -0.5536
  177SLPC   C2220145   0.283   7.232  10.432  0.0366 -0.0658 -0.3859
  177SLPC   H2R20146   0.203   7.309  10.432 -0.4226 -0.4895  3.1193
  177SLPC   H2S20147   0.339   7.254  10.526 -0.1412  0.1407 -0.3277
  177SLPC    C320148  -0.117   6.961  10.470  1.0194  0.0852  0.1757
  177SLPC    HX20149  -0.187   7.041  10.504 -0.0184  0.4383 -2.6237
  177SLPC    HY20150  -0.163   6.869  10.512  0.7681 -0.3879 -1.1249
  177SLPC   O3120151  -0.091   6.961  10.328  0.2183  0.2393 -0.1094
  177SLPC   C3120152  -0.124   7.066  10.254 -0.4271 -0.0622  0.7885
  177SLPC   O3220153  -0.187   7.167  10.284 -0.6519  0.0951 -0.7033
  177SLPC   C3220154  -0.062   7.048  10.115  0.5437 -0.6145 -0.3237
  177SLPC   H2X20155  -0.066   6.940  10.091  1.4655 -1.0929  1.6052
  177SLPC   H2Y20156   0.046   7.072  10.126  0.6475 -1.4473  0.5327
  177SLPC   C2320157   0.374   7.256  10.315  0.4367 -0.3527 -0.4570
  177SLPC   H3R20158   0.410   7.158  10.276 -1.5547 -0.4779 -2.0678
  177SLPC   H3S20159   0.464   7.312  10.349  1.0017 -1.6258  0.1896
  177SLPC   C2420160   0.300   7.335  10.206 -0.5027  0.0669  0.1752
  177SLPC   H4R20161   0.298   7.445  10.221 -1.0804  0.2461 -1.1498
  177SLPC   H4S20162   0.194   7.301  10.201 -0.8946  1.3104 -0.1782
  177SLPC   C2520163   0.363   7.314  10.072 -0.1709 -0.7600 -0.1771
  177SLPC   H5R20164   0.381   7.205  10.062 -2.7746 -1.4287  1.8368
  177SLPC   H5S20165   0.461   7.366  10.064 -0.2204 -0.7980 -1.1574
  177SLPC   C2620166   0.270   7.372   9.959  0.4399 -0.2660  0.3511
  177SLPC   H6R20167   0.170   7.324   9.950 -0.0791  0.9648 -0.5941
  177SLPC   H6S20168   0.323   7.357   9.863 -0.2559 -2.2942  0.2578
  177SLPC   C2720169   0.243   7.529   9.979 -0.2116  0.3550  0.2407
  177SLPC   H7R20170   0.337   7.582  10.005  1.6676 -3.3248  1.2911
  177SLPC   H7S20171   0.177   7.531  10.069 -0.2705 -0.6348  0.2265
  177SLPC   C2820172   0.166   7.590   9.862 -0.1318 -0.1201 -0.4070
  177SLPC   H8R20173   0.124   7.689   9.889  3.3506  1.5890 -1.0264
  177SLPC   H8S20174   0.074   7.531   9.842  0.8156 -0.5900 -3.6633
  177SLPC   C2920175   0.266   7.609   9.751 -0.9368 -0.1163  1.0215
  177SLPC   H9R20176   0.347   7.680   9.772  1.4022 -2.3980 -0.0487
  177SLPC  C21020177   0.248   7.555   9.629  0.2692 -0.1672 -0.2948
  177SLPC  H10R20178   0.342   7.559   9.573 -0.2785  0.4405 -1.1773
  177SLPC  C21120179   0.140   7.463   9.576  0.2827  0.2352  0.1140
  177SLPC  H11R20180   0.064   7.432   9.650 -0.2140 -0.5297 -0.7081
  177SLPC  H11S20181   0.083   7.531   9.510 -1.4080  1.4593  2.7709
  177SLPC  C21220182   0.194   7.351   9.500 -0.0590  0.1140 -0.3685
  177SLPC  H12R20183   0.282   7.306   9.548 -0.5469  1.3078  1.6730
  177SLPC  C21320184   0.147   7.309   9.378  1.0023  1.1448 -0.3376
  177SLPC  H13R20185   0.196   7.221   9.333 -0.7211 -0.0050 -0.0385
  177SLPC  C21420186   0.029   7.351   9.298  0.0341 -0.4831  0.5210
  177SLPC  H14R20187   0.055   7.437   9.232 -0.2873 -1.9476 -1.5536
  177SLPC  H14S20188  -0.062   7.379   9.355  0.2722  0.6977  0.3345
  177SLPC  C21520189  -0.029   7.229   9.220 -0.5250 -0.9390  0.1407
  177SLPC  H15R20190  -0.085   7.153   9.278 -1.9708 -1.2947 -1.6609
  177SLPC  H15S20191   0.055   7.176   9.169  1.1107  0.1994  1.5664
  177SLPC  C21620192  -0.129   7.257   9.107 -0.1950 -0.2685  0.2669
  177SLPC  H16R20193  -0.084   7.343   9.053  3.3142 -2.5755 -0.6369
  177SLPC  H16S20194  -0.230   7.277   9.150 -0.9175 -1.6702 -0.7382
  177SLPC  C21720195  -0.146   7.147   8.995  0.6796 -0.2581  0.4271
  177SLPC  H17R20196  -0.190   7.057   9.042 -1.2500 -0.7133 -2.1432
  177SLPC  H17S20197  -0.044   7.123   8.958  0.5429  0.7009 -0.6145
  177SLPC  C21820198  -0.232   7.187   8.875  0.1766  0.3264  0.1271
  177SLPC  H18R20199  -0.154   7.244   8.820  1.1207 -0.0257  1.0889
  177SLPC  H18S20200  -0.321   7.248   8.900 -0.4626 -0.6118  0.1569
  177SLPC  H18T20201  -0.254   7.106   8.803 -2.0744 -1.2209  2.4753
  177SLPC   C3320202  -0.124   7.146  10.007 -0.2772 -1.2014  1.1265
  177SLPC   H3X20203  -0.129   7.253  10.039  2.2553 -0.1387 -1.7630
  177SLPC   H3Y20204  -0.227   7.112   9.983 -1.3316  1.5632  1.5601
  177SLPC   C3420205  -0.038   7.150   9.875  0.0206  0.0683  0.6071
  177SLPC   H4X20206  -0.040   7.052   9.824  1.5171  0.0803  0.5045
  177SLPC   H4Y20207   0.066   7.181   9.900 -0.6385  0.8971  2.4347
  177SLPC   C3520208  -0.092   7.255   9.768  0.4479 -0.0137  0.0325
  177SLPC   H5X20209  -0.029   7.249   9.676  0.2654 -0.6119 -0.0510
  177SLPC   H5Y20210  -0.092   7.360   9.805 -1.3540 -0.2062  0.6459
  177SLPC   C3620211  -0.242   7.217   9.733 -0.0596  0.6550  0.9964
  177SLPC   H6X20212  -0.315   7.251   9.809 -1.7271 -1.4947  0.4181
  177SLPC   H6Y20213  -0.249   7.106   9.742  0.2515  0.4430 -1.1341
  177SLPC   C3720214  -0.287   7.254   9.590 -0.4359 -0.1340 -0.1058
  177SLPC   H7X20215  -0.204   7.226   9.522  1.5378 -0.9432  2.5602
  177SLPC   H7Y20216  -0.291   7.365   9.591  2.4563  0.0046  2.2893
  177SLPC   C3820217  -0.411   7.181   9.532 -0.2922  0.5341 -0.2442
  177SLPC   H8X20218  -0.492   7.229   9.589  1.6200  2.3927  0.9814
  177SLPC   H8Y20219  -0.405   7.074   9.563 -1.3571  0.7116  0.5703
  177SLPC   C3920220  -0.429   7.199   9.381  0.3900 -0.1082 -0.1691
  177SLPC   H9X20221  -0.349   7.140   9.329 -0.4670 -1.2158 -0.2592
  177SLPC   H9Y20222  -0.409   7.303   9.349  1.9835 -0.7827 -1.4963
  177SLPC  C31020223  -0.564   7.159   9.322 -0.1593  0.0000 -0.4085
  177SLPC  H10X20224  -0.639   7.228   9.367 -0.8840 -0.9358 -0.1845
  177SLPC  H10Y20225  -0.590   7.054   9.345  0.5165 -0.4390 -1.5866
  177SLPC  C31120226  -0.578   7.177   9.167 -0.6122 -0.4766  0.4816
  177SLPC  H11X20227  -0.563   7.286   9.147  0.1789 -0.7624 -0.5261
  177SLPC  H11Y20228  -0.680   7.158   9.129 -0.2816 -1.8267  0.2462
  177SLPC  C31220229  -0.483   7.090   9.081  0.2904 -0.3846  0.4679
  177SLPC  H12X20230  -0.381   7.131   9.093 -0.1200  0.6538  0.3992
  177SLPC  H12Y20231  -0.508   7.109   8.974 -0.8668 -0.2913  0.7409
  177SLPC  C31320232  -0.485   6.939   9.111 -0.2177  0.0591 -0.7655
  177SLPC  H13X20233  -0.478   6.919   9.220 -1.3335 -1.8487 -1.0170
  177SLPC  H13Y20234  -0.400   6.895   9.055 -0.8397  0.2497 -1.8682
  177SLPC  C31420235  -0.623   6.879   9.058  0.2852 -0.3042 -0.1924
  177SLPC  H14X20236  -0.629   6.892   8.948  0.7978 -1.9993 -0.4344
  177SLPC  H14Y20237  -0.707   6.934   9.105  1.6971  0.0935  1.9526
  177SLPC  C31520238  -0.647   6.726   9.085  0.7107  0.7075  0.0277
  177SLPC  H15X20239  -0.746   6.696   9.046 -0.4142  1.0770  2.5401
  177SLPC  H15Y20240  -0.633   6.706   9.193 -1.1435  1.6139  0.4616
  177SLPC  C31620241  -0.542   6.637   9.020 -0.6992  0.1857 -0.2399
  177SLPC  H16X20242  -0.454   6.647   9.087 -2.8633  3.6002  2.2429
  177SLPC  H16Y20243  -0.506   6.677   8.923 -2.3472  0.1816 -0.8601
  177SLPC  C31720244  -0.580   6.488   9.018  0.8412 -0.6182 -0.4309
  177SLPC  H17X20245  -0.622   6.448   9.113 -0.7259  2.0449  0.0656
  177SLPC  H17Y20246  -0.484   6.434   9.006 -0.5929 -3.0560 -1.4031
  177SLPC  C31820247  -0.658   6.449   8.886 -0.8502 -0.2691 -0.1318
  177SLPC  H18X20248  -0.655   6.338   8.886  3.7062 -0.2511 -1.6338
  177SLPC  H18Y20249  -0.598   6.495   8.805  1.2570 -2.0372  0.3607
  177SLPC  H18Z20250  -0.762   6.488   8.885 -1.4038 -1.5624  2.2516
  178SLPC     N20251   2.227   2.495  11.232  0.8568 -0.4975  0.1800
  178SLPC   C1320252   2.260   2.376  11.323  0.5589 -0.3468 -0.1193
  178SLPC  H13A20253   2.268   2.288  11.260 -2.8717 -2.4960  2.2363
  178SLPC  H13B20254   2.354   2.388  11.374  0.3836  1.4065 -0.1740
  178SLPC  H13C20255   2.185   2.350  11.396  1.9780 -0.3173  1.3708
  178SLPC   C1420256   2.341   2.526  11.137 -0.2850  0.0272 -0.2618
  178SLPC  H14A20257   2.420   2.572  11.194 -2.2922  3.4657 -0.1019
  178SLPC  H14B20258   2.367   2.439  11.078  0.1844  0.7327 -1.1114
  178SLPC  H14C20259   2.306   2.600  11.067 -0.4916 -0.7875 -1.0231
  178SLPC   C1520260   2.214   2.607  11.324  0.8741 -0.5052 -0.2767
  178SLPC  H15A20261   2.304   2.625  11.381  1.7516 -2.7616 -0.8645
  178SLPC  H15B20262   2.182   2.700  11.279 -1.1276 -1.5514 -1.0913
  178SLPC  H15C20263   2.132   2.580  11.388 -0.7387 -0.1967 -2.1731
  178SLPC   C1220264   2.090   2.479  11.160  0.1438  0.9190  0.3286
  178SLPC  H12A20265   2.052   2.569  11.114 -1.7394  0.4548  0.9367
  178SLPC  H12B20266   2.023   2.453  11.241 -0.0996  0.4741 -0.0103
  178SLPC   C1120267   2.087   2.371  11.044 -0.6372 -0.0711 -0.6427
  178SLPC  H11A20268   2.155   2.410  10.965  1.9917 -1.5087  0.8513
  178SLPC  H11B20269   1.987   2.375  10.996 -1.2741  1.0699  0.7491
  178SLPC     P20270   2.024   2.152  11.167 -0.1494 -0.1152  0.3218
  178SLPC   O1320271   2.093   2.032  11.208 -0.4621  0.5672  0.7678
  178SLPC   O1420272   1.942   2.223  11.268 -0.2432 -0.2184  0.2279
  178SLPC   O1220273   2.130   2.242  11.093 -0.2786 -0.9075 -0.1518
  178SLPC   O1120274   1.918   2.125  11.050  0.3065 -0.2711  0.5008
  178SLPC    C120275   1.973   2.076  10.924  0.4057 -0.8284  0.9693
  178SLPC    HA20276   2.054   2.141  10.883 -1.9142  2.3582  1.2671
  178SLPC    HB20277   2.020   1.976  10.937  0.7946 -0.8864 -0.7150
  178SLPC    C220278   1.869   2.060  10.806 -0.2248 -0.6328  0.3290
  178SLPC    HS20279   1.926   2.074  10.711 -0.1263  2.0002  0.7354
  178SLPC   O2120280   1.774   2.166  10.830 -0.8844 -0.6036  0.1600
  178SLPC   C2120281   1.819   2.287  10.805  0.3684 -0.3795 -0.4247
  178SLPC   O2220282   1.930   2.319  10.755 -0.2366 -0.1830 -0.1645
  178SLPC   C2220283   1.713   2.387  10.848 -0.4485 -0.0983  0.0888
  178SLPC   H2R20284   1.613   2.371  10.801  0.5725 -3.6232 -1.0178
  178SLPC   H2S20285   1.704   2.379  10.958  1.4796 -0.7101  0.2183
  178SLPC    C320286   1.801   1.919  10.795  0.5031 -0.2268  0.2232
  178SLPC    HX20287   1.742   1.908  10.889 -0.0987 -0.5139 -0.1861
  178SLPC    HY20288   1.876   1.838  10.803 -0.6461 -1.2262  1.0364
  178SLPC   O3120289   1.712   1.896  10.686  0.2888 -0.2372 -0.3491
  178SLPC   C3120290   1.642   1.787  10.704  1.3399  1.0025  0.0422
  178SLPC   O3220291   1.654   1.717  10.803  0.1408 -0.2031 -0.3799
  178SLPC   C3220292   1.538   1.770  10.592 -0.2397  0.7589  0.5330
  178SLPC   H2X20293   1.474   1.861  10.588  0.6017  1.2778 -1.6723
  178SLPC   H2Y20294   1.472   1.682  10.613  1.0033 -1.2161 -3.3370
  178SLPC   C2320295   1.739   2.530  10.804 -0.1777  0.4849 -1.2019
  178SLPC   H3R20296   1.848   2.538  10.825 -0.6068  1.1135  0.9384
  178SLPC   H3S20297   1.696   2.595  10.883  2.1044  1.3317 -0.6167
  178SLPC   C2420298   1.704   2.562  10.663 -0.0391  0.4422 -0.1825
  178SLPC   H4R20299   1.594   2.575  10.659  0.3358  3.5947 -2.3046
  178SLPC   H4S20300   1.735   2.477  10.599 -0.4528 -0.2719  0.5590
  178SLPC   C2520301   1.770   2.686  10.602  0.0724  0.1688 -0.0718
  178SLPC   H5R20302   1.881   2.681  10.609  0.1943 -0.3836 -2.0427
  178SLPC   H5S20303   1.740   2.773  10.664  1.0999  0.2390  0.3498
  178SLPC   C2620304   1.729   2.711  10.451  0.6280 -0.0569  0.3651
  178SLPC   H6R20305   1.618   2.721  10.447  0.3825 -1.8633  1.6689
  178SLPC   H6S20306   1.744   2.613  10.401 -2.0761 -0.5913  0.4771
  178SLPC   C2720307   1.797   2.823  10.372  0.7910 -0.2363 -0.3240
  178SLPC   H7R20308   1.906   2.821  10.392  1.0117  4.8380 -0.3844
  178SLPC   H7S20309   1.775   2.920  10.422 -1.2838  0.2874 -2.1730
  178SLPC   C2820310   1.770   2.824  10.221  0.4719 -0.5753 -0.1364
  178SLPC   H8R20311   1.806   2.727  10.181  2.9127  0.2768 -0.1056
  178SLPC   H8S20312   1.830   2.905  10.174  0.1869  0.2034  0.7985
  178SLPC   C2920313   1.623   2.857  10.186  0.2356  0.1388 -0.0888
  178SLPC   H9R20314   1.583   2.956  10.211 -0.5710 -0.1699 -0.1167
  178SLPC  C21020315   1.537   2.768  10.120 -0.1891 -0.4132 -1.0516
  178SLPC  H10R20316   1.433   2.789  10.094 -0.0676  0.5199 -0.7772
  178SLPC  C21120317   1.569   2.632  10.073  0.8673  0.0269 -0.3386
  178SLPC  H11R20318   1.638   2.577  10.141  1.4667 -0.7731 -1.5797
  178SLPC  H11S20319   1.627   2.635   9.978 -1.2430 -1.2365 -1.7101
  178SLPC  C21220320   1.447   2.545  10.048 -0.0208 -0.5941  0.6647
  178SLPC  H12R20321   1.423   2.470  10.125  1.0852  0.6787  2.2892
  178SLPC  C21320322   1.370   2.547   9.935 -0.3570  0.3127  0.1728
  178SLPC  H13R20323   1.290   2.472   9.934  1.3541 -1.6456  3.2229
  178SLPC  C21420324   1.392   2.628   9.811  0.0315  0.0414  0.0397
  178SLPC  H14R20325   1.477   2.695   9.835 -0.1584 -0.2875  1.6541
  178SLPC  H14S20326   1.301   2.691   9.803 -0.9441 -1.2349  0.9939
  178SLPC  C21520327   1.427   2.542   9.689 -0.1560 -0.0508  0.5082
  178SLPC  H15R20328   1.422   2.603   9.596  3.0528 -2.2711 -1.2213
  178SLPC  H15S20329   1.353   2.460   9.677  0.0290 -0.0272 -0.9268
  178SLPC  C21620330   1.570   2.480   9.691  0.2182 -0.2559  0.4901
  178SLPC  H16R20331   1.584   2.418   9.782 -1.6629  0.0098  0.9689
  178SLPC  H16S20332   1.647   2.560   9.698 -0.1181  0.2057 -0.8427
  178SLPC  C21720333   1.616   2.396   9.565 -0.3089  0.1426 -0.2154
  178SLPC  H17R20334   1.570   2.446   9.477  1.6322  2.3779  0.0024
  178SLPC  H17S20335   1.580   2.291   9.569  1.1913 -0.3934 -0.7752
  178SLPC  C21820336   1.765   2.402   9.546  0.6263 -0.6959  0.0052
  178SLPC  H18R20337   1.828   2.346   9.618  1.7173  1.3474  0.6678
  178SLPC  H18S20338   1.800   2.507   9.537  0.9068 -0.6010  1.9717
  178SLPC  H18T20339   1.788   2.347   9.451 -1.7772 -1.0839 -0.3791
  178SLPC   C3320340   1.608   1.739  10.457 -0.0285  0.5349  0.8417
  178SLPC   H3X20341   1.683   1.817  10.429  2.3438 -1.7565  0.6475
  178SLPC   H3Y20342   1.535   1.734  10.374 -1.4237  1.1062  2.0096
  178SLPC   C3420343   1.688   1.607  10.463 -0.4176  0.0551  0.9599
  178SLPC   H4X20344   1.616   1.528  10.494 -0.4270 -0.2870  0.0906
  178SLPC   H4Y20345   1.764   1.613  10.543 -1.5282 -0.2543  2.0445
  178SLPC   C3520346   1.733   1.568  10.324 -0.0116 -0.7530 -0.4348
  178SLPC   H5X20347   1.833   1.614  10.309 -0.4622  0.1622 -0.6506
  178SLPC   H5Y20348   1.661   1.613  10.252  2.0683 -1.2330 -2.8825
  178SLPC   C3620349   1.756   1.418  10.317  0.0090 -0.1060 -0.0774
  178SLPC   H6X20350   1.657   1.367  10.318  0.0023 -0.0895  1.2316
  178SLPC   H6Y20351   1.809   1.379  10.407  0.2673 -0.8048 -0.5274
  178SLPC   C3720352   1.830   1.363  10.191  0.3198  0.2972 -0.6624
  178SLPC   H7X20353   1.855   1.256  10.207 -1.9275 -0.4221 -1.7919
  178SLPC   H7Y20354   1.929   1.412  10.186  0.6104 -0.4298 -2.4562
  178SLPC   C3820355   1.744   1.370  10.061  0.1071  0.1837  0.1219
  178SLPC   H8X20356   1.714   1.477  10.067  0.7573  0.3763 -0.0104
  178SLPC   H8Y20357   1.657   1.303  10.046  0.0789  0.1518  0.4174
  178SLPC   C3920358   1.827   1.362   9.936 -0.3529  0.1142  0.6300
  178SLPC   H9X20359   1.836   1.261   9.891  0.1662  0.5857 -0.3541
  178SLPC   H9Y20360   1.929   1.401   9.958 -0.6063  1.6406 -0.8189
  178SLPC  C31020361   1.773   1.451   9.818 -0.1823  0.7616  0.0366
  178SLPC  H10X20362   1.775   1.557   9.851  0.1879  0.7946 -0.0987
  178SLPC  H10Y20363   1.662   1.441   9.811 -0.0471 -0.9204  0.2289
  178SLPC  C31120364   1.840   1.412   9.691 -0.2298  0.1600 -0.0317
  178SLPC  H11X20365   1.825   1.303   9.674  0.3635  0.0229  0.3165
  178SLPC  H11Y20366   1.949   1.436   9.691 -0.1051 -0.2586 -2.6486
  178SLPC  C31220367   1.780   1.493   9.567  0.2526 -0.1038  0.7626
  178SLPC  H12X20368   1.777   1.600   9.598  1.2284  0.6736 -1.7448
  178SLPC  H12Y20369   1.675   1.460   9.548  0.8237 -1.0938 -0.7136
  178SLPC  C31320370   1.868   1.485   9.443  0.5596 -0.4423  0.2065
  178SLPC  H13X20371   1.885   1.375   9.432 -2.0039 -0.7011 -1.5218
  178SLPC  H13Y20372   1.968   1.529   9.460  0.5497 -0.6123  0.7419
  178SLPC  C31420373   1.809   1.560   9.328 -0.0853 -0.0806  0.0946
  178SLPC  H14X20374   1.820   1.670   9.329  0.1390 -0.0693 -1.7131
  178SLPC  H14Y20375   1.698   1.547   9.330  0.0972 -1.6486  0.6023
  178SLPC  C31520376   1.860   1.510   9.193  0.1626  0.3052  0.1553
  178SLPC  H15X20377   1.947   1.445   9.216 -0.0401 -1.2707 -3.1231
  178SLPC  H15Y20378   1.789   1.435   9.154 -0.8561  0.7511  1.1416
  178SLPC  C31620379   1.870   1.619   9.080 -0.0114  1.1798  0.3538
  178SLPC  H16X20380   1.923   1.701   9.132  0.3739  1.7889 -0.9829
  178SLPC  H16Y20381   1.770   1.662   9.057 -0.5985 -0.3208  0.0550
  178SLPC  C31720382   1.917   1.563   8.946  0.1415 -0.1990  0.8861
  178SLPC  H17X20383   1.948   1.649   8.883  0.4126  0.3229  1.7234
  178SLPC  H17Y20384   1.827   1.516   8.902 -0.6536  2.3327 -0.2927
  178SLPC  C31820385   2.021   1.457   8.951  0.0623  0.3561  0.3148
  178SLPC  H18X20386   2.045   1.422   8.848  1.6901 -0.2153  0.8724
  178SLPC  H18Y20387   1.992   1.366   9.008  0.5112 -0.0630 -0.1229
  178SLPC  H18Z20388   2.115   1.489   9.000 -0.4653 -0.9076  2.1720
  179SLPC     N20389   4.056   5.953  10.503  0.0355  0.6201 -0.0657
  179SLPC   C1320390   4.119   6.067  10.572  0.1780  0.0728  1.1702
  179SLPC  H13A20391   4.216   6.083  10.526 -0.8372  1.4485 -0.5788
  179SLPC  H13B20392   4.067   6.162  10.567  0.5963  0.2828  0.6873
  179SLPC  H13C20393   4.151   6.049  10.674  1.8585  0.3268  0.7066
  179SLPC   C1420394   4.142   5.830  10.518 -0.3542 -0.1888  0.1975
  179SLPC  H14A20395   4.082   5.743  10.498 -1.4234  0.5794  0.0383
  179SLPC  H14B20396   4.234   5.827  10.462 -0.7845  0.7708 -0.5530
  179SLPC  H14C20397   4.176   5.831  10.621 -0.8879  0.2313  0.3708
  179SLPC   C1520398   4.043   5.989  10.360  0.0376 -0.1033  0.4407
  179SLPC  H15A20399   3.971   6.066  10.338  0.8269  0.7626  0.8870
  179SLPC  H15B20400   4.138   6.005  10.312 -0.2697 -0.8262 -0.4073
  179SLPC  H15C20401   4.004   5.902  10.309 -1.1607  1.2338 -0.9509
  179SLPC   C1220402   3.914   5.924  10.561  0.7223  0.1774  1.0816
  179SLPC  H12A20403   3.868   5.847  10.500 -0.9772  0.2847  2.1986
  179SLPC  H12B20404   3.849   6.009  10.554 -1.7630 -1.8198 -0.8828
  179SLPC   C1120405   3.903   5.863  10.699  0.6557 -0.3573 -0.6760
  179SLPC  H11A20406   3.919   5.946  10.771 -2.8571  1.2744 -1.6399
  179SLPC  H11B20407   3.979   5.783  10.713  1.2820 -0.1348 -2.6759
  179SLPC     P20408   3.746   5.662  10.651  0.1361  0.0666 -0.1208
  179SLPC   O1320409   3.870   5.583  10.645 -0.0177 -0.5967  0.6163
  179SLPC   O1420410   3.626   5.605  10.715 -0.5669  0.1373  0.0149
  179SLPC   O1220411   3.774   5.799  10.722 -0.1168 -0.4295  1.2424
  179SLPC   O1120412   3.710   5.703  10.506 -0.1672  0.0254  0.2500
  179SLPC    C120413   3.572   5.707  10.461  0.6280 -0.0697 -0.4431
  179SLPC    HA20414   3.506   5.719  10.550  0.6015 -1.8424 -0.2075
  179SLPC    HB20415   3.554   5.780  10.380  0.3425  2.1705  1.5826
  179SLPC    C220416   3.538   5.578  10.385 -0.0496  0.0175 -0.0905
  179SLPC    HS20417   3.536   5.505  10.469  1.3715 -1.7530 -1.5525
  179SLPC   O2120418   3.643   5.548  10.286 -0.4944 -0.2442  0.2250
  179SLPC   C2120419   3.639   5.414  10.252  0.0281  0.3681 -0.9559
  179SLPC   O2220420   3.565   5.335  10.314 -0.1119  0.7391 -0.3012
  179SLPC   C2220421   3.736   5.366  10.142 -0.1766 -0.8423  1.2955
  179SLPC   H2R20422   3.834   5.353  10.192 -0.6733  3.6990  3.6916
  179SLPC   H2S20423   3.701   5.266  10.108 -0.2378 -0.1551 -0.7448
  179SLPC    C320424   3.396   5.579  10.317 -0.0478 -0.5299  0.8350
  179SLPC    HX20425   3.325   5.611  10.397  0.4843 -1.5339  1.7311
  179SLPC    HY20426   3.358   5.481  10.280 -0.2631 -0.8715  1.9263
  179SLPC   O3120427   3.385   5.681  10.219  0.6888 -0.6086 -0.0696
  179SLPC   C3120428   3.408   5.650  10.096  0.3873  0.1271 -0.1949
  179SLPC   O3220429   3.399   5.532  10.053  0.2107 -0.4633  0.6784
  179SLPC   C3220430   3.454   5.779  10.026  0.3958  0.1177  0.5073
  179SLPC   H2X20431   3.545   5.806  10.084  0.5289  0.5859  0.0795
  179SLPC   H2Y20432   3.380   5.861  10.037  0.0332  0.0939 -1.6340
  179SLPC   C2320433   3.748   5.460  10.014  0.2656 -0.3404  0.1435
  179SLPC   H3R20434   3.808   5.551  10.039  0.2945  0.0930 -1.4367
  179SLPC   H3S20435   3.650   5.509   9.995  1.2012  2.1896  1.5338
  179SLPC   C2420436   3.801   5.397   9.889 -0.3999  0.5219 -0.5765
  179SLPC   H4R20437   3.776   5.289   9.893  0.0195  0.4428 -0.1400
  179SLPC   H4S20438   3.911   5.412   9.883 -0.5411  1.1835 -1.6953
  179SLPC   C2520439   3.725   5.443   9.759 -0.1688 -0.4835  0.4016
  179SLPC   H5R20440   3.750   5.550   9.743  0.4446 -0.5193  1.1136
  179SLPC   H5S20441   3.618   5.430   9.785 -0.4918 -4.0937 -2.2133
  179SLPC   C2620442   3.743   5.351   9.635  0.0145 -0.7465 -0.2301
  179SLPC   H6R20443   3.729   5.242   9.648  1.1801 -0.6725  1.9407
  179SLPC   H6S20444   3.854   5.358   9.628  0.2451 -1.3757  2.3237
  179SLPC   C2720445   3.677   5.413   9.513 -0.2193  0.2076  0.2594
  179SLPC   H7R20446   3.730   5.504   9.480 -0.5007  0.2984  0.0532
  179SLPC   H7S20447   3.573   5.443   9.540  0.0346  0.1941  1.2932
  179SLPC   C2820448   3.678   5.318   9.390 -0.0230  0.8516 -0.1527
  179SLPC   H8R20449   3.637   5.216   9.409 -1.1382  0.9804 -1.7642
  179SLPC   H8S20450   3.788   5.305   9.377 -0.0369  0.9281 -0.3428
  179SLPC   C2920451   3.616   5.369   9.271  0.5070  0.4652 -0.4322
  179SLPC   H9R20452   3.508   5.357   9.258  0.6277 -0.0558 -0.9867
  179SLPC  C21020453   3.681   5.430   9.167  0.2394  0.5725  0.4721
  179SLPC  H10R20454   3.628   5.477   9.083 -1.3421  0.3034  1.3022
  179SLPC  C21120455   3.829   5.460   9.159  0.4131 -0.0948  0.1240
  179SLPC  H11R20456   3.876   5.402   9.077 -0.2218  0.7696 -0.8683
  179SLPC  H11S20457   3.887   5.424   9.246 -0.9851 -0.5942  0.8566
  179SLPC  C21220458   3.838   5.612   9.145 -0.2963 -0.1576 -0.3056
  179SLPC  H12R20459   3.791   5.668   9.227  0.5195  0.6479 -0.3782
  179SLPC  C21320460   3.902   5.687   9.053 -0.4846  1.4414  0.4178
  179SLPC  H13R20461   3.873   5.792   9.040 -0.7524  0.9541 -3.4092
  179SLPC  C21420462   3.971   5.641   8.925 -0.1959  0.8530 -0.8164
  179SLPC  H14R20463   3.926   5.694   8.838 -1.7884 -1.3246 -1.3451
  179SLPC  H14S20464   3.951   5.535   8.902 -2.2778  0.7919  1.1553
  179SLPC  C21520465   4.121   5.675   8.933 -0.2774  0.2293  0.3653
  179SLPC  H15R20466   4.169   5.614   8.853 -0.4217  0.5071  0.0643
  179SLPC  H15S20467   4.148   5.644   9.036  1.0515  0.4751  0.0920
  179SLPC  C21620468   4.149   5.823   8.897 -0.2190 -0.5451 -0.0836
  179SLPC  H16R20469   4.137   5.897   8.979 -1.5378 -0.9487  0.1006
  179SLPC  H16S20470   4.078   5.857   8.819 -2.9083  0.0329  2.5368
  179SLPC  C21720471   4.297   5.837   8.856 -0.1242  0.2529 -0.3270
  179SLPC  H17R20472   4.322   5.945   8.844  0.3612  0.3142  1.1703
  179SLPC  H17S20473   4.317   5.780   8.763 -0.6326 -1.2743  0.4857
  179SLPC  C21820474   4.399   5.786   8.958 -0.2024  0.1815 -0.2188
  179SLPC  H18R20475   4.379   5.830   9.059 -2.1285  1.2793 -1.0429
  179SLPC  H18S20476   4.500   5.814   8.921  0.4101  1.0005  1.9519
  179SLPC  H18T20477   4.396   5.675   8.957  2.2750  0.0707  0.8767
  179SLPC   C3320478   3.486   5.768   9.874 -0.1116 -0.4045 -0.0411
  179SLPC   H3X20479   3.554   5.685   9.846 -2.5541 -2.0819 -1.2122
  179SLPC   H3Y20480   3.522   5.870   9.852  1.0990 -0.2406  2.4527
  179SLPC   C3420481   3.358   5.743   9.797 -0.2494 -0.3369  0.1112
  179SLPC   H4X20482   3.272   5.810   9.816 -1.2491 -1.7179  0.5769
  179SLPC   H4Y20483   3.330   5.636   9.814 -1.5080 -0.2712 -1.4301
  179SLPC   C3520484   3.381   5.750   9.642  0.3088  0.6390 -0.5224
  179SLPC   H5X20485   3.488   5.738   9.615  0.8414  0.4299  1.6519
  179SLPC   H5Y20486   3.350   5.855   9.620  0.6600  0.4614 -1.9249
  179SLPC   C3620487   3.299   5.649   9.568 -0.5420 -0.1259  0.6432
  179SLPC   H6X20488   3.203   5.632   9.621  0.1572 -3.0496  1.0529
  179SLPC   H6Y20489   3.350   5.550   9.559 -1.8361 -0.6749 -1.1935
  179SLPC   C3720490   3.262   5.690   9.428  0.3761 -0.9019 -1.3173
  179SLPC   H7X20491   3.207   5.786   9.439  1.6095 -0.5476  2.6973
  179SLPC   H7Y20492   3.192   5.616   9.385 -1.3955  1.4586 -2.5944
  179SLPC   C3820493   3.383   5.707   9.338  0.8850  0.0613  0.2138
  179SLPC   H8X20494   3.429   5.606   9.330  2.0050  0.6730 -1.5719
  179SLPC   H8Y20495   3.456   5.780   9.378  0.7774  0.0243  0.4789
  179SLPC   C3920496   3.344   5.751   9.198  0.2822 -0.3730  0.5531
  179SLPC   H9X20497   3.305   5.855   9.209  2.0746  0.3718  0.0721
  179SLPC   H9Y20498   3.266   5.681   9.164 -1.9774  1.8010  1.1027
  179SLPC  C31020499   3.460   5.753   9.095  0.7798 -0.1289 -0.5175
  179SLPC  H10X20500   3.503   5.650   9.094  0.8759 -0.0950 -3.7360
  179SLPC  H10Y20501   3.549   5.817   9.113 -0.8389  2.1952 -0.6280
  179SLPC  C31120502   3.414   5.785   8.954  0.9015  0.4514 -0.4235
  179SLPC  H11X20503   3.394   5.894   8.948 -2.1834 -0.1184 -0.9645
  179SLPC  H11Y20504   3.316   5.737   8.934  1.9344 -0.5094 -3.2905
  179SLPC  C31220505   3.521   5.742   8.850  0.4019  0.1949 -0.3611
  179SLPC  H12X20506   3.586   5.667   8.901 -2.2522 -2.5031 -0.7835
  179SLPC  H12Y20507   3.573   5.836   8.823 -0.0904 -0.2332 -2.9255
  179SLPC  C31320508   3.464   5.667   8.730  0.0965 -0.0997  0.4479
  179SLPC  H13X20509   3.397   5.738   8.674  1.0402  0.4349 -0.0180
  179SLPC  H13Y20510   3.396   5.590   8.771  0.5079 -0.6533  0.0868
  179SLPC  C31420511   3.566   5.596   8.639 -0.7784 -0.2807 -0.6385
  179SLPC  H14X20512   3.654   5.661   8.622  0.6907 -2.0609 -0.0470
  179SLPC  H14Y20513   3.524   5.567   8.540  2.1747 -1.9474 -1.4752
  179SLPC  C31520514   3.630   5.466   8.693 -0.0126 -0.0711 -0.5352
  179SLPC  H15X20515   3.697   5.485   8.780 -1.3688 -1.0895  0.7597
  179SLPC  H15Y20516   3.696   5.412   8.622 -1.1344 -2.6993  0.3314
  179SLPC  C31620517   3.528   5.374   8.754 -0.4131 -0.0600  0.3508
  179SLPC  H16X20518   3.439   5.368   8.686  1.1716 -0.0002 -1.7771
  179SLPC  H16Y20519   3.494   5.426   8.846  1.3754  2.1230 -0.1824
  179SLPC  C31720520   3.566   5.228   8.785  0.5510  0.0061  0.0641
  179SLPC  H17X20521   3.479   5.194   8.845  0.0431  0.9116 -0.1558
  179SLPC  H17Y20522   3.653   5.226   8.855 -0.0347 -0.2968  0.7873
  179SLPC  C31820523   3.603   5.148   8.658  0.3589  0.0748 -0.5114
  179SLPC  H18X20524   3.575   5.041   8.670 -1.9912  0.4294 -2.5707
  179SLPC  H18Y20525   3.705   5.176   8.623  0.8714  1.3307  1.9100
  179SLPC  H18Z20526   3.528   5.192   8.590  3.6659  1.2184 -3.5982
  180SLPC     N20527   5.162   4.007  11.136 -0.4355  0.1878 -1.1360
  180SLPC   C1320528   5.210   4.091  11.021  0.2744 -0.1577 -0.5330
  180SLPC  H13A20529   5.142   4.083  10.937 -1.3154 -1.2057  0.8302
  180SLPC  H13B20530   5.216   4.195  11.049 -1.5638 -0.6630  1.8908
  180SLPC  H13C20531   5.311   4.068  10.990 -0.4849 -2.4755 -1.3655
  180SLPC   C1420532   5.049   4.071  11.201 -0.0812  0.2219  0.4564
  180SLPC  H14A20533   4.969   4.098  11.134 -0.1202 -1.2832 -0.1140
  180SLPC  H14B20534   5.002   4.007  11.274 -3.1942  3.6328  1.5733
  180SLPC  H14C20535   5.067   4.168  11.244 -0.2136  1.1653 -1.5330
  180SLPC   C1520536   5.280   3.993  11.233 -0.1366 -0.4333  0.4275
  180SLPC  H15A20537   5.374   3.965  11.187 -0.5714  0.2698 -0.8956
  180SLPC  H15B20538   5.300   4.093  11.267  1.0125 -0.9982  1.4893
  180SLPC  H15C20539   5.249   3.929  11.315 -0.9789 -0.5726  0.0038
  180SLPC   C1220540   5.116   3.874  11.084  0.5324  0.0437  0.0118
  180SLPC  H12A20541   5.080   3.823  11.172 -0.0475 -1.5659 -1.1411
  180SLPC  H12B20542   5.203   3.825  11.043 -0.5648 -1.5518 -0.4438
  180SLPC   C1120543   4.988   3.876  10.987 -1.2187  0.5178 -0.0853
  180SLPC  H11A20544   4.905   3.933  11.035  0.8492  2.8552  0.7967
  180SLPC  H11B20545   4.946   3.773  10.982  0.8316 -0.2629 -1.8245
  180SLPC     P20546   5.106   3.875  10.743 -0.0629 -0.3424 -0.3072
  180SLPC   O1320547   5.078   3.946  10.612  0.3730 -0.2104 -0.4548
  180SLPC   O1420548   5.245   3.880  10.792 -0.0720 -0.5606 -0.2194
  180SLPC   O1220549   5.019   3.938  10.859 -0.2424  0.2801 -0.4521
  180SLPC   O1120550   5.057   3.724  10.730  0.1730 -0.1480 -0.0663
  180SLPC    C120551   4.919   3.690  10.717  1.0790  0.1510  0.0583
  180SLPC    HA20552   4.905   3.588  10.758 -0.0572  0.0877 -0.4437
  180SLPC    HB20553   4.848   3.761  10.766  1.0715  1.3257 -1.6012
  180SLPC    C220554   4.873   3.681  10.579  0.1426  0.0156  0.4231
  180SLPC    HS20555   4.817   3.775  10.558  0.5949  0.4671  1.2371
  180SLPC   O2120556   4.785   3.566  10.564  0.5125 -0.1770 -0.3101
  180SLPC   C2120557   4.655   3.583  10.614  0.3883  0.3943 -0.5713
  180SLPC   O2220558   4.611   3.683  10.664  1.1139 -0.2957  0.1578
  180SLPC   C2220559   4.574   3.456  10.598 -0.4649  0.6748  0.1758
  180SLPC   H2R20560   4.613   3.382  10.671 -0.4566 -0.8346 -1.3290
  180SLPC   H2S20561   4.470   3.480  10.628 -0.4557  3.0162 -1.5555
  180SLPC    C320562   4.986   3.659  10.477 -0.4245 -0.1430 -0.4742
  180SLPC    HX20563   5.010   3.552  10.495 -2.5435 -1.2464 -3.8385
  180SLPC    HY20564   5.078   3.717  10.499 -0.3815 -0.2768 -0.2964
  180SLPC   O3120565   4.933   3.681  10.342  0.1394 -0.3051 -0.2164
  180SLPC   C3120566   4.970   3.592  10.249 -0.0792  0.1589 -0.2472
  180SLPC   O3220567   5.032   3.492  10.271 -0.4744  0.0100 -0.1493
  180SLPC   C3220568   4.904   3.627  10.111 -0.1791  0.2734 -0.2646
  180SLPC   H2X20569   4.871   3.732  10.109 -0.4076  0.2843  1.9560
  180SLPC   H2Y20570   4.821   3.560  10.082 -1.4496  1.4843  0.5612
  180SLPC   C2320571   4.577   3.400  10.452  0.0256 -0.0580 -0.3242
  180SLPC   H3R20572   4.524   3.303  10.441  0.0147  0.0956 -1.7204
  180SLPC   H3S20573   4.684   3.387  10.428  0.0198 -0.3009 -0.2199
  180SLPC   C2420574   4.524   3.495  10.350 -0.1023  1.1185 -0.4415
  180SLPC   H4R20575   4.561   3.599  10.357  1.7490  0.4398  0.1386
  180SLPC   H4S20576   4.413   3.493  10.345 -0.2295  1.3064  1.6595
  180SLPC   C2520577   4.577   3.457  10.206  0.0398 -0.1833 -0.5759
  180SLPC   H5R20578   4.565   3.349  10.181  1.2595 -0.6464  0.8197
  180SLPC   H5S20579   4.685   3.482  10.198  0.2086 -0.4797  0.7715
  180SLPC   C2620580   4.502   3.545  10.102 -0.1349  0.0323 -0.4858
  180SLPC   H6R20581   4.494   3.647  10.145 -0.6815  0.0282 -0.5754
  180SLPC   H6S20582   4.401   3.500  10.098  0.8467 -2.2055 -0.4757
  180SLPC   C2720583   4.562   3.562   9.967 -0.0714 -0.3498  0.3158
  180SLPC   H7R20584   4.611   3.466   9.941  2.4542  1.2072 -0.9653
  180SLPC   H7S20585   4.647   3.633   9.952 -1.4932  0.8994 -2.1240
  180SLPC   C2820586   4.466   3.597   9.852 -0.0956 -0.3986 -0.8409
  180SLPC   H8R20587   4.384   3.521   9.848 -0.9601  0.5261 -0.9061
  180SLPC   H8S20588   4.515   3.589   9.753 -1.4058  1.4902 -1.6884
  180SLPC   C2920589   4.405   3.735   9.863  0.7967  0.5169  0.0325
  180SLPC   H9R20590   4.362   3.762   9.960  1.4064 -0.0940  0.4752
  180SLPC  C21020591   4.395   3.829   9.769 -0.0146  1.0477  0.2502
  180SLPC  H10R20592   4.330   3.912   9.801 -1.5583 -0.4279  1.0971
  180SLPC  C21120593   4.438   3.812   9.627  0.4562 -0.9616  0.7825
  180SLPC  H11R20594   4.371   3.879   9.569  2.1470  0.1240  0.0507
  180SLPC  H11S20595   4.421   3.709   9.589 -1.4267 -0.8706  1.3603
  180SLPC  C21220596   4.577   3.863   9.619 -0.2208 -0.4452  0.0225
  180SLPC  H12R20597   4.643   3.834   9.703 -1.7595  0.2804  1.4963
  180SLPC  C21320598   4.628   3.941   9.515 -0.0817 -0.4084 -0.3402
  180SLPC  H13R20599   4.733   3.962   9.537  0.1137 -1.2651 -0.4452
  180SLPC  C21420600   4.562   3.993   9.388 -0.1650 -0.4350 -0.3096
  180SLPC  H14R20601   4.545   4.102   9.376 -0.8222 -0.6343 -1.2400
  180SLPC  H14S20602   4.455   3.962   9.391 -0.9335  1.8447 -2.3322
  180SLPC  C21520603   4.633   3.933   9.259 -0.0898 -0.2849 -0.3635
  180SLPC  H15R20604   4.739   3.966   9.259 -0.4270  1.0062 -3.1928
  180SLPC  H15S20605   4.585   3.972   9.166  1.7417 -0.9946 -1.6349
  180SLPC  C21620606   4.617   3.782   9.261 -0.7543  0.3748  0.1341
  180SLPC  H16R20607   4.659   3.743   9.357  0.2549 -3.6998 -1.8482
  180SLPC  H16S20608   4.684   3.743   9.181 -0.9292  0.5224 -0.0849
  180SLPC  C21720609   4.472   3.726   9.251  0.1071 -0.4516 -0.6494
  180SLPC  H17R20610   4.407   3.799   9.198 -0.3998 -0.1511  0.3596
  180SLPC  H17S20611   4.427   3.737   9.353  0.9502  1.7795 -0.4834
  180SLPC  C21820612   4.455   3.580   9.198  0.4340  0.3553  0.7150
  180SLPC  H18R20613   4.548   3.526   9.226  0.2753 -1.3572 -1.9110
  180SLPC  H18S20614   4.458   3.587   9.087 -1.9941  0.1434  0.6122
  180SLPC  H18T20615   4.357   3.533   9.221 -1.4455  3.2660 -1.0005
  180SLPC   C3320616   5.015   3.614  10.004 -0.1590  0.1218 -0.0387
  180SLPC   H3X20617   5.060   3.513  10.018  0.7936  0.7895  1.8730
  180SLPC   H3Y20618   5.090   3.696  10.010 -0.6899  0.6730 -0.8226
  180SLPC   C3420619   4.946   3.623   9.864 -0.4730 -0.0142 -0.0382
  180SLPC   H4X20620   4.889   3.718   9.860  0.5678  0.7104  1.7857
  180SLPC   H4Y20621   4.883   3.532   9.859  1.8410 -1.5693 -2.0246
  180SLPC   C3520622   5.038   3.614   9.744 -0.1045 -0.1332  0.4015
  180SLPC   H5X20623   5.096   3.521   9.730  0.5715  0.2773  0.4252
  180SLPC   H5Y20624   5.110   3.697   9.764  0.8243 -1.0881  1.0748
  180SLPC   C3620625   4.974   3.637   9.601 -0.6318  0.0091 -0.5333
  180SLPC   H6X20626   4.888   3.707   9.600  0.2510  1.0930 -1.6598
  180SLPC   H6Y20627   4.928   3.541   9.568  0.3269 -1.6498  2.7493
  180SLPC   C3720628   5.093   3.694   9.522 -0.6092  0.1431  0.3823
  180SLPC   H7X20629   5.172   3.616   9.518 -1.4931 -1.0472  4.0340
  180SLPC   H7Y20630   5.148   3.776   9.572  0.0476 -1.0795  1.6983
  180SLPC   C3820631   5.046   3.735   9.381 -0.0390  0.1645  0.8157
  180SLPC   H8X20632   4.958   3.802   9.389 -1.4386 -1.5013 -0.1273
  180SLPC   H8Y20633   5.011   3.651   9.317  0.2561  0.6569  0.0076
  180SLPC   C3920634   5.160   3.812   9.305 -0.1124 -0.1158 -0.8713
  180SLPC   H9X20635   5.254   3.754   9.297 -0.8245 -1.3400 -0.4882
  180SLPC   H9Y20636   5.193   3.898   9.366 -1.0376 -0.0261 -0.4961
  180SLPC  C31020637   5.125   3.842   9.161 -0.3011  0.3065 -0.5830
  180SLPC  H10X20638   5.120   3.750   9.099 -0.9904  1.2568 -1.9567
  180SLPC  H10Y20639   5.194   3.911   9.106  0.1931  0.5679  0.3484
  180SLPC  C31120640   4.983   3.894   9.127 -0.9673  0.4123  0.2856
  180SLPC  H11X20641   4.971   3.995   9.171 -1.1101 -0.5537  2.5592
  180SLPC  H11Y20642   4.907   3.829   9.177  1.7244 -1.7627  1.6595
  180SLPC  C31220643   4.953   3.897   8.978 -0.4761 -0.3260 -0.3366
  180SLPC  H12X20644   4.943   3.796   8.934 -0.9029  0.7495 -2.8146
  180SLPC  H12Y20645   5.034   3.951   8.922  1.2295 -0.5412  1.8548
  180SLPC  C31320646   4.825   3.980   8.951 -0.0748  0.1073  0.0183
  180SLPC  H13X20647   4.830   4.069   9.018 -0.0094 -0.3500  0.6276
  180SLPC  H13Y20648   4.745   3.910   8.984 -0.2900  0.9375  1.3156
  180SLPC  C31420649   4.812   4.013   8.805  0.3196 -0.2030  0.3779
  180SLPC  H14X20650   4.863   4.111   8.789  1.6041 -0.9084  0.0704
  180SLPC  H14Y20651   4.707   4.030   8.774  0.8320 -0.8727 -1.8335
  180SLPC  C31520652   4.868   3.913   8.700 -0.2792  0.5920 -0.1316
  180SLPC  H15X20653   4.829   3.810   8.708  2.6924 -0.8864 -3.1943
  180SLPC  H15Y20654   4.979   3.911   8.710 -0.2145 -0.7035 -0.9722
  180SLPC  C31620655   4.826   3.952   8.557 -1.0309 -0.2464 -0.6863
  180SLPC  H16X20656   4.718   3.977   8.563 -0.7353  1.0831 -0.6572
  180SLPC  H16Y20657   4.850   3.860   8.501 -1.3597 -1.0758  0.5156
  180SLPC  C31720658   4.902   4.072   8.503  1.1787  0.4204 -0.2873
  180SLPC  H17X20659   5.009   4.074   8.532  0.7763  1.0155  1.1605
  180SLPC  H17Y20660   4.851   4.162   8.543 -2.0666 -0.9291 -1.2070
  180SLPC  C31820661   4.893   4.070   8.353  0.2080  0.4307  0.5138
  180SLPC  H18X20662   4.943   3.981   8.310 -3.5720 -0.4668 -2.2478
  180SLPC  H18Y20663   4.926   4.161   8.298  1.0456 -1.2216 -1.7662
  180SLPC  H18Z20664   4.785   4.056   8.333  0.5836 -3.9255  1.0667
  181SLPC     N20665   0.826   0.890  11.268  0.3782  0.5290 -0.1945
  181SLPC   C1320666   0.841   0.961  11.402 -0.2980  0.1631  0.0570
  181SLPC  H13A20667   0.878   1.060  11.384 -1.8234  1.1217  1.9783
  181SLPC  H13B20668   0.743   0.967  11.448 -0.9960  0.4635 -1.4377
  181SLPC  H13C20669   0.908   0.911  11.470  0.6638  0.9904 -0.2801
  181SLPC   C1420670   0.770   0.750  11.287  0.3202  0.0655  0.3304
  181SLPC  H14A20671   0.665   0.754  11.309  0.3299  0.5560  0.2858
  181SLPC  H14B20672   0.771   0.699  11.192  1.7767  2.4945 -1.0111
  181SLPC  H14C20673   0.833   0.693  11.354  1.4186  1.9578  0.9513
  181SLPC   C1520674   0.968   0.883  11.210  0.3067  1.0955  0.1036
  181SLPC  H15A20675   0.973   0.814  11.127  1.4381  1.3701 -0.0623
  181SLPC  H15B20676   0.996   0.983  11.179  0.3618  0.4539 -1.9807
  181SLPC  H15C20677   1.040   0.851  11.284  0.2137  0.8667  0.0935
  181SLPC   C1220678   0.745   0.969  11.172 -0.1512 -0.4315  0.0312
  181SLPC  H12A20679   0.740   0.910  11.082  1.1416  0.8635 -0.9082
  181SLPC  H12B20680   0.805   1.057  11.153 -1.4238  0.5213  0.3165
  181SLPC   C1120681   0.606   1.024  11.219 -0.3127 -0.1442  0.5035
  181SLPC  H11A20682   0.560   1.101  11.153 -1.1935 -0.0576  1.2042
  181SLPC  H11B20683   0.633   1.079  11.312 -0.1177  0.8886 -0.1521
  181SLPC     P20684   0.443   0.842  11.119  0.1738 -0.0686 -0.1741
  181SLPC   O1320685   0.504   0.713  11.100  0.1067  0.7289 -0.3079
  181SLPC   O1420686   0.298   0.856  11.152  0.4355  0.0644 -0.2320
  181SLPC   O1220687   0.511   0.916  11.238  0.1791  0.2052  0.2230
  181SLPC   O1120688   0.476   0.930  10.992  0.0576 -0.4965  0.2771
  181SLPC    C120689   0.386   1.038  10.964 -0.1114  0.2323 -0.2650
  181SLPC    HA20690   0.279   1.012  10.979  0.1744 -0.5173  0.5004
  181SLPC    HB20691   0.417   1.125  11.026 -0.4011  1.3117 -1.5972
  181SLPC    C220692   0.401   1.081  10.812 -0.1955 -0.2651  0.9848
  181SLPC    HS20693   0.330   1.164  10.787  1.6823  0.4187 -2.3652
  181SLPC   O2120694   0.384   0.966  10.722 -0.1049 -0.5483  0.3667
  181SLPC   C2120695   0.257   0.935  10.688 -0.0410 -0.2549 -0.2854
  181SLPC   O2220696   0.158   0.989  10.730  0.5317 -0.0244  0.0794
  181SLPC   C2220697   0.256   0.827  10.584  0.4028  0.4266 -0.0614
  181SLPC   H2R20698   0.282   0.731  10.632  0.5538  0.0525 -0.8769
  181SLPC   H2S20699   0.149   0.816  10.559  0.1593  0.0716  1.1485
  181SLPC    C320700   0.542   1.136  10.796 -0.0275  0.3077  0.2303
  181SLPC    HX20701   0.611   1.051  10.815  0.6808  1.1653  1.5275
  181SLPC    HY20702   0.550   1.211  10.877  0.8920  0.6339 -0.1630
  181SLPC   O3120703   0.554   1.186  10.659  0.0819 -0.1258 -0.3547
  181SLPC   C3120704   0.635   1.293  10.651 -1.6499 -0.1049  0.0463
  181SLPC   O3220705   0.697   1.336  10.742  0.1061 -0.4602 -0.1729
  181SLPC   C3220706   0.618   1.342  10.503 -0.1222 -0.7881  1.0163
  181SLPC   H2X20707   0.550   1.430  10.509  1.2321  0.2139  2.2361
  181SLPC   H2Y20708   0.579   1.259  10.440 -0.5078  0.8877 -1.0132
  181SLPC   C2320709   0.356   0.854  10.465  1.4859 -0.4971 -0.1588
  181SLPC   H3R20710   0.379   0.755  10.419  1.1299 -1.1853  1.1051
  181SLPC   H3S20711   0.454   0.892  10.500  1.1619  2.9062 -2.7533
  181SLPC   C2420712   0.293   0.942  10.370  0.1231 -0.6192  0.6785
  181SLPC   H4R20713   0.278   1.045  10.408  1.6352  0.8641 -2.5010
  181SLPC   H4S20714   0.195   0.902  10.336 -0.6980  1.5681  0.3897
  181SLPC   C2520715   0.383   0.968  10.250  0.6161 -0.3568  0.1101
  181SLPC   H5R20716   0.410   0.868  10.209 -0.2343 -0.8552  0.7459
  181SLPC   H5S20717   0.469   1.025  10.290 -0.4882 -0.0234  2.0506
  181SLPC   C2620718   0.313   1.055  10.143 -0.7080  0.2378 -0.4188
  181SLPC   H6R20719   0.302   1.160  10.176 -1.0736  1.0527 -3.0070
  181SLPC   H6S20720   0.216   1.009  10.115  0.8628 -2.5014 -1.6135
  181SLPC   C2720721   0.397   1.063  10.019  1.1559 -0.0105  0.2490
  181SLPC   H7R20722   0.451   0.971   9.988  1.7310  0.4816 -0.2346
  181SLPC   H7S20723   0.486   1.125  10.045  0.6715  1.8879 -2.3847
  181SLPC   C2820724   0.325   1.146   9.909  0.1030 -0.0310  0.7011
  181SLPC   H8R20725   0.302   1.243   9.958  0.8896  0.3406  0.3397
  181SLPC   H8S20726   0.233   1.090   9.882  0.6242 -0.9440  0.8177
  181SLPC   C2920727   0.410   1.168   9.783  0.2429  0.0444  0.3571
  181SLPC   H9R20728   0.508   1.213   9.804 -0.3653  1.1989  0.7626
  181SLPC  C21020729   0.382   1.145   9.653 -0.1222  0.7310  0.5091
  181SLPC  H10R20730   0.459   1.190   9.588  0.7752 -1.4038  0.0477
  181SLPC  C21120731   0.260   1.093   9.583 -0.3836 -0.2658 -0.0697
  181SLPC  H11R20732   0.185   1.070   9.663  0.9802  2.3650  2.0382
  181SLPC  H11S20733   0.285   1.005   9.521  0.1528  0.7414 -1.2809
  181SLPC  C21220734   0.199   1.188   9.486  0.7380 -0.2102 -0.1398
  181SLPC  H12R20735   0.213   1.296   9.497 -0.2002 -0.0907 -0.0752
  181SLPC  C21320736   0.113   1.152   9.394 -0.2667 -0.0785  0.3978
  181SLPC  H13R20737   0.092   1.231   9.321  0.8322 -1.0702 -1.0279
  181SLPC  C21420738   0.068   1.012   9.361 -0.6508  0.1822  0.5687
  181SLPC  H14R20739  -0.039   0.997   9.388 -0.4892  1.3857  1.9480
  181SLPC  H14S20740   0.126   0.941   9.424 -1.0680  0.5125  1.3257
  181SLPC  C21520741   0.106   0.985   9.217  0.2643 -0.0637  0.1948
  181SLPC  H15R20742   0.112   0.878   9.190  1.1305  0.4126 -1.6057
  181SLPC  H15S20743   0.204   1.032   9.191 -0.8168  1.9144 -0.4319
  181SLPC  C21620744   0.009   1.053   9.121  0.7584 -0.1228  0.8699
  181SLPC  H16R20745  -0.061   1.120   9.175  1.7264  0.6097  1.2484
  181SLPC  H16S20746  -0.062   0.985   9.070  2.3530 -0.1182 -1.4905
  181SLPC  C21720747   0.084   1.125   9.003 -0.0935 -0.1475  0.1897
  181SLPC  H17R20748   0.140   1.049   8.944 -0.8506 -0.0216 -0.6849
  181SLPC  H17S20749   0.154   1.200   9.044  1.0375 -1.1152  0.0781
  181SLPC  C21820750  -0.012   1.200   8.901  0.0700  0.1746 -0.7429
  181SLPC  H18R20751  -0.079   1.122   8.857  0.1767  0.1916 -0.9349
  181SLPC  H18S20752   0.051   1.236   8.818 -0.0671 -2.4696 -2.0576
  181SLPC  H18T20753  -0.075   1.278   8.948 -1.1816 -0.0233 -2.0549
  181SLPC   C3320754   0.737   1.404  10.431 -0.3045 -0.0823 -0.2175
  181SLPC   H3X20755   0.815   1.324  10.432  0.3832  0.5820 -0.2990
  181SLPC   H3Y20756   0.791   1.473  10.499 -1.6431 -0.1372  0.9296
  181SLPC   C3420757   0.707   1.450  10.292  0.5031 -0.4216 -0.0568
  181SLPC   H4X20758   0.663   1.550  10.309  1.4212 -0.1169  0.6382
  181SLPC   H4Y20759   0.641   1.374  10.244 -1.7749  2.9312 -2.4205
  181SLPC   C3520760   0.827   1.467  10.192 -0.4382  0.2931 -0.7685
  181SLPC   H5X20761   0.895   1.378  10.189 -0.5549  0.2195 -1.3854
  181SLPC   H5Y20762   0.889   1.554  10.221  2.9394 -1.9929 -0.8008
  181SLPC   C3620763   0.781   1.492  10.048  0.0547  0.2932  0.5062
  181SLPC   H6X20764   0.715   1.581  10.035 -0.1204  0.5375  2.7896
  181SLPC   H6Y20765   0.721   1.408  10.008  0.5506 -0.6512  1.7193
  181SLPC   C3720766   0.896   1.526   9.946 -0.3556  0.4420  1.1001
  181SLPC   H7X20767   0.956   1.435   9.926 -1.1355  0.1693 -0.0501
  181SLPC   H7Y20768   0.960   1.607   9.986 -1.6232  2.1027 -0.1715
  181SLPC   C3820769   0.829   1.570   9.813  0.9969 -0.4355  0.7020
  181SLPC   H8X20770   0.777   1.666   9.831 -0.4786 -0.8476 -1.1486
  181SLPC   H8Y20771   0.752   1.492   9.795  2.0669 -1.6976  1.5197
  181SLPC   C3920772   0.918   1.588   9.692 -0.3552  0.2462  0.2853
  181SLPC   H9X20773   0.956   1.491   9.652 -1.3870 -0.2371  0.4559
  181SLPC   H9Y20774   1.009   1.636   9.736 -1.4839  1.8615  0.8978
  181SLPC  C31020775   0.873   1.687   9.595 -0.3318 -0.9152 -0.7018
  181SLPC  H10X20776   0.851   1.782   9.648 -1.2877 -1.1332 -0.6928
  181SLPC  H10Y20777   0.781   1.662   9.538 -0.9060 -1.8247  0.6158
  181SLPC  C31120778   0.993   1.718   9.496  0.9106  0.0797  0.4578
  181SLPC  H11X20779   1.029   1.624   9.450 -0.6148 -0.4972  0.4239
  181SLPC  H11Y20780   1.077   1.763   9.553  2.8298 -1.5896 -0.9575
  181SLPC  C31220781   0.948   1.820   9.395  0.4080  0.6042 -0.0196
  181SLPC  H12X20782   1.030   1.870   9.340 -1.0890  1.9186 -1.1041
  181SLPC  H12Y20783   0.886   1.897   9.446 -1.7273 -0.0252 -1.5688
  181SLPC  C31320784   0.869   1.759   9.281 -0.1958 -0.4246  0.3827
  181SLPC  H13X20785   0.857   1.840   9.207  1.3596 -0.8869 -0.3978
  181SLPC  H13Y20786   0.764   1.739   9.311  0.1637 -0.6224  1.5739
  181SLPC  C31420787   0.932   1.641   9.204 -0.8612  0.0666  0.1523
  181SLPC  H14X20788   0.950   1.550   9.264 -2.1257 -0.5730 -0.4087
  181SLPC  H14Y20789   1.028   1.674   9.158 -2.2196  2.7325 -0.8805
  181SLPC  C31520790   0.830   1.604   9.098  0.6491  0.1070 -0.2069
  181SLPC  H15X20791   0.843   1.683   9.020  2.6180 -0.8835 -0.9110
  181SLPC  H15Y20792   0.727   1.602   9.139 -0.2402  0.7399 -2.3465
  181SLPC  C31620793   0.858   1.478   9.024 -0.2888 -0.6787 -0.1771
  181SLPC  H16X20794   0.856   1.389   9.091  1.0576 -2.1358 -2.0403
  181SLPC  H16Y20795   0.955   1.468   8.970  0.0070 -2.4268  0.6296
  181SLPC  C31720796   0.739   1.455   8.926  0.4442 -0.1382  0.8801
  181SLPC  H17X20797   0.701   1.559   8.910  1.2266 -0.0613 -0.5334
  181SLPC  H17Y20798   0.649   1.403   8.966 -0.3189  2.1034  2.1973
  181SLPC  C31820799   0.769   1.386   8.794  0.2058 -0.6119 -0.1887
  181SLPC  H18X20800   0.666   1.383   8.751 -0.6066 -0.5881  1.6889
  181SLPC  H18Y20801   0.815   1.287   8.814 -1.6752 -1.3540  0.5939
  181SLPC  H18Z20802   0.838   1.450   8.735 -3.0816  1.4948 -1.9141
  182SLPC     N20803   5.468   2.035  11.271 -1.3662  0.0622  0.2035
  182SLPC   C1320804   5.597   1.997  11.342 -0.3925 -0.1022  0.7955
  182SLPC  H13A20805   5.677   2.067  11.320 -1.6581  0.8168 -1.0562
  182SLPC  H13B20806   5.584   2.006  11.448  2.6668  1.1214  1.1218
  182SLPC  H13C20807   5.636   1.902  11.310  1.6786  1.5905 -2.0257
  182SLPC   C1420808   5.432   2.172  11.297  0.7164 -1.0789  0.5340
  182SLPC  H14A20809   5.506   2.238  11.255 -0.7414  0.5682  0.5356
  182SLPC  H14B20810   5.337   2.196  11.251  1.4260 -1.2559 -1.0767
  182SLPC  H14C20811   5.436   2.195  11.402 -2.4404 -0.9405  0.6448
  182SLPC   C1520812   5.367   1.938  11.319 -0.8123  0.0088 -0.3871
  182SLPC  H15A20813   5.404   1.838  11.335  2.0572  0.9355 -0.8637
  182SLPC  H15B20814   5.340   1.950  11.423 -1.0884 -3.0987 -0.0715
  182SLPC  H15C20815   5.281   1.941  11.254 -0.3355 -4.0520 -1.3009
  182SLPC   C1220816   5.492   2.021  11.120 -0.3797  0.4242 -0.0736
  182SLPC  H12A20817   5.542   2.107  11.079 -0.2861 -1.1678 -3.4746
  182SLPC  H12B20818   5.395   2.027  11.073 -0.1987  2.5505 -0.1936
  182SLPC   C1120819   5.564   1.894  11.066  0.6752  0.3430  0.1102
  182SLPC  H11A20820   5.503   1.806  11.095  2.2917 -0.8434 -0.0605
  182SLPC  H11B20821   5.665   1.870  11.104  0.8477  0.0680 -0.5117
  182SLPC     P20822   5.505   1.832  10.821  0.1350 -0.3087 -0.0797
  182SLPC   O1320823   5.502   1.696  10.878  0.0619  0.1625 -0.8024
  182SLPC   O1420824   5.375   1.900  10.793  0.2364 -0.0382  0.2696
  182SLPC   O1220825   5.582   1.915  10.927  0.4103  0.5978 -0.1198
  182SLPC   O1120826   5.603   1.843  10.696  0.0785 -0.2348 -0.9221
  182SLPC    C120827   5.656   1.967  10.649  1.0304  0.2960  0.2411
  182SLPC    HA20828   5.672   2.047  10.725 -0.5431  3.4292 -2.5777
  182SLPC    HB20829   5.753   1.937  10.606  0.6605 -0.3204 -0.1738
  182SLPC    C220830   5.561   2.014  10.536 -0.2061  0.0040  0.1087
  182SLPC    HS20831   5.459   1.976  10.558  0.5990 -1.8668  0.7278
  182SLPC   O2120832   5.621   1.954  10.424 -0.4674  0.2575  0.3051
  182SLPC   C2120833   5.550   1.925  10.330  1.1671  0.6048  0.2792
  182SLPC   O2220834   5.428   1.928  10.318 -0.2624  0.3465 -0.2196
  182SLPC   C2220835   5.632   1.868  10.213  0.4592 -0.4416  0.3776
  182SLPC   H2R20836   5.740   1.886  10.229  0.6034 -1.5282  0.7236
  182SLPC   H2S20837   5.622   1.757  10.208  3.2011 -0.8378  2.6446
  182SLPC    C320838   5.563   2.166  10.517  0.4458 -0.0672 -0.4765
  182SLPC    HX20839   5.668   2.201  10.518  0.2477  0.4985  1.0610
  182SLPC    HY20840   5.507   2.227  10.590 -1.4592 -0.1191 -1.8470
  182SLPC   O3120841   5.500   2.210  10.390  0.1874  0.0260  0.7409
  182SLPC   C3120842   5.369   2.207  10.387  0.1669 -0.6322  0.2725
  182SLPC   O3220843   5.300   2.157  10.473 -0.0088 -0.5378  0.3625
  182SLPC   C3220844   5.317   2.264  10.251 -0.2131  0.2620 -0.2628
  182SLPC   H2X20845   5.346   2.200  10.165  0.6302 -0.4765  0.5544
  182SLPC   H2Y20846   5.373   2.358  10.233  1.3635 -0.4452  0.8663
  182SLPC   C2320847   5.622   1.947  10.070 -0.1497  0.3766 -0.2434
  182SLPC   H3R20848   5.691   1.898   9.999  0.3519  1.2140 -0.3388
  182SLPC   H3S20849   5.661   2.050  10.090  2.3718 -0.9681  2.1658
  182SLPC   C2420850   5.482   1.930  10.009 -0.4839  0.1461  0.2463
  182SLPC   H4R20851   5.404   1.977  10.072 -2.1110 -0.9847 -0.8499
  182SLPC   H4S20852   5.461   1.826   9.977  0.3263 -0.5126  1.8211
  182SLPC   C2520853   5.475   2.010   9.883  0.1818 -0.0074 -0.0256
  182SLPC   H5R20854   5.554   1.975   9.812  0.3438 -0.7275  0.5007
  182SLPC   H5S20855   5.489   2.117   9.907 -0.7384  0.0149  0.4488
  182SLPC   C2620856   5.342   2.003   9.811 -0.7981  0.6111 -0.0147
  182SLPC   H6R20857   5.268   2.012   9.893 -0.3209 -1.4177  0.6798
  182SLPC   H6S20858   5.346   1.902   9.764  0.0857 -1.1939  3.7084
  182SLPC   C2720859   5.312   2.097   9.694  0.5223 -0.4196  0.2336
  182SLPC   H7R20860   5.400   2.098   9.625  0.6374  1.6336  0.4021
  182SLPC   H7S20861   5.298   2.201   9.727 -1.8847 -1.3741  2.3326
  182SLPC   C2820862   5.184   2.047   9.615  0.1919 -0.2626 -0.3863
  182SLPC   H8R20863   5.103   2.030   9.689  0.1889 -0.8322 -0.5195
  182SLPC   H8S20864   5.201   1.952   9.561  1.3192  0.5897 -1.5499
  182SLPC   C2920865   5.147   2.149   9.514 -0.2947  0.1944  0.1648
  182SLPC   H9R20866   5.129   2.249   9.554 -1.4267 -0.3195  0.9384
  182SLPC  C21020867   5.142   2.130   9.379  0.1521  0.7904 -0.2259
  182SLPC  H10R20868   5.112   2.216   9.317 -0.9288  1.8289  1.7013
  182SLPC  C21120869   5.184   1.993   9.310  0.4238 -1.1876  0.0296
  182SLPC  H11R20870   5.123   1.976   9.218 -1.1521 -2.1912  1.2402
  182SLPC  H11S20871   5.157   1.900   9.364  1.2300 -0.5639  1.5343
  182SLPC  C21220872   5.332   1.985   9.282  0.6836 -0.5509  0.6935
  182SLPC  H12R20873   5.396   1.939   9.358  0.8563 -1.6990 -0.1328
  182SLPC  C21320874   5.388   2.029   9.173 -0.2728  0.0086  0.3743
  182SLPC  H13R20875   5.498   2.028   9.174 -0.2620 -2.7974  1.1460
  182SLPC  C21420876   5.316   2.102   9.063  0.0675  0.7851  0.1456
  182SLPC  H14R20877   5.367   2.192   9.024 -0.2357  0.7668 -0.2917
  182SLPC  H14S20878   5.227   2.156   9.102  1.7028  1.5929  2.8702
  182SLPC  C21520879   5.273   2.013   8.944  0.1459  0.0537  0.3105
  182SLPC  H15R20880   5.211   2.072   8.873 -2.4686  0.9464  3.1897
  182SLPC  H15S20881   5.207   1.934   8.984  1.0334 -0.2547  1.1670
  182SLPC  C21620882   5.387   1.936   8.874  0.5033 -0.0511  0.1321
  182SLPC  H16R20883   5.348   1.869   8.794  0.3570  0.8957 -0.5929
  182SLPC  H16S20884   5.437   1.871   8.950 -0.9120 -1.5611 -0.1970
  182SLPC  C21720885   5.506   2.020   8.826 -0.9306  0.1554  0.4297
  182SLPC  H17R20886   5.569   1.960   8.757 -0.7959 -0.2426  0.8979
  182SLPC  H17S20887   5.577   2.048   8.906 -0.6295 -0.3301  0.3303
  182SLPC  C21820888   5.476   2.155   8.760 -0.3691 -1.0644 -0.2620
  182SLPC  H18R20889   5.435   2.225   8.835 -0.4303 -0.0936 -1.1978
  182SLPC  H18S20890   5.404   2.149   8.675  0.3019  1.6913 -1.0425
  182SLPC  H18T20891   5.567   2.204   8.720 -0.9035  0.3854  0.2677
  182SLPC   C3320892   5.161   2.294  10.254 -0.9383  0.1057  0.1619
  182SLPC   H3X20893   5.116   2.333  10.348  0.6926 -1.8289  1.8140
  182SLPC   H3Y20894   5.104   2.202  10.227 -0.0734 -0.3393 -0.1776
  182SLPC   C3420895   5.129   2.401  10.145 -0.5402  0.3432  0.1241
  182SLPC   H4X20896   5.183   2.494  10.172 -0.8942  0.8477 -0.8823
  182SLPC   H4Y20897   5.020   2.422  10.150 -0.7418 -0.6431  0.0974
  182SLPC   C3520898   5.177   2.363  10.001  0.0530 -0.6000 -0.3733
  182SLPC   H5X20899   5.108   2.289   9.956 -1.6693 -2.1117  4.3797
  182SLPC   H5Y20900   5.279   2.321   9.992  0.7918  0.8903  0.7615
  182SLPC   C3620901   5.169   2.491   9.919 -0.1197 -0.4482  0.0603
  182SLPC   H6X20902   5.250   2.561   9.951 -0.1526  0.8052 -2.4797
  182SLPC   H6Y20903   5.077   2.552   9.934  0.5608  0.9063 -1.1938
  182SLPC   C3720904   5.180   2.467   9.772 -0.1842 -0.7063  0.9080
  182SLPC   H7X20905   5.115   2.386   9.731 -1.0528  1.0549 -1.3204
  182SLPC   H7Y20906   5.284   2.439   9.743 -0.0968 -1.3380  1.8078
  182SLPC   C3820907   5.150   2.585   9.682  0.5428  0.8653  0.4171
  182SLPC   H8X20908   5.225   2.661   9.713  0.1119  1.4361  0.0545
  182SLPC   H8Y20909   5.046   2.616   9.706  0.0340  0.3626 -1.0399
  182SLPC   C3920910   5.165   2.551   9.526  0.7459  0.2313 -0.1533
  182SLPC   H9X20911   5.084   2.480   9.499  0.9645 -0.1905  0.3000
  182SLPC   H9Y20912   5.261   2.505   9.493  0.5825  0.7148 -1.3337
  182SLPC  C31020913   5.141   2.679   9.442  0.2903 -0.3490 -0.3505
  182SLPC  H10X20914   5.212   2.752   9.487 -1.0630 -0.0361  1.3393
  182SLPC  H10Y20915   5.036   2.712   9.458  0.5588  0.5871 -0.4707
  182SLPC  C31120916   5.169   2.659   9.293  0.5579 -0.0596 -0.0957
  182SLPC  H11X20917   5.279   2.646   9.282  0.4083 -2.2670  0.7576
  182SLPC  H11Y20918   5.156   2.760   9.250  1.1586 -0.2166 -0.6658
  182SLPC  C31220919   5.084   2.555   9.222 -0.5725 -1.2096 -0.0881
  182SLPC  H12X20920   4.980   2.592   9.213 -0.2953 -1.0120 -2.8700
  182SLPC  H12Y20921   5.092   2.463   9.284  0.4210  0.8412  2.9323
  182SLPC  C31320922   5.147   2.537   9.083  0.0722 -0.3414  1.5793
  182SLPC  H13X20923   5.256   2.517   9.091 -0.0070 -1.2593  0.5694
  182SLPC  H13Y20924   5.140   2.629   9.023 -1.7910 -1.3171  0.2657
  182SLPC  C31420925   5.079   2.428   8.998 -0.2127  0.8276  0.5347
  182SLPC  H14X20926   4.973   2.460   8.987 -0.1857  1.4305  1.8854
  182SLPC  H14Y20927   5.082   2.330   9.050 -1.1199 -1.2181 -3.1070
  182SLPC  C31520928   5.128   2.416   8.848  0.1819  0.2071  0.4003
  182SLPC  H15X20929   5.236   2.391   8.856  0.4592  2.2290  3.6244
  182SLPC  H15Y20930   5.132   2.512   8.791  0.1051 -0.1798 -0.2655
  182SLPC  C31620931   5.060   2.302   8.765  0.0107  0.0976  0.0568
  182SLPC  H16X20932   4.952   2.326   8.781  0.2811 -0.0593  2.1330
  182SLPC  H16Y20933   5.087   2.202   8.803 -2.7834 -1.5071 -2.0224
  182SLPC  C31720934   5.093   2.321   8.611 -0.7102 -0.5068 -0.2453
  182SLPC  H17X20935   5.197   2.292   8.587 -1.1257 -2.3640  0.0746
  182SLPC  H17Y20936   5.072   2.424   8.577  1.9941  0.4598  0.9600
  182SLPC  C31820937   5.004   2.233   8.519 -0.1304 -0.5101  0.2567
  182SLPC  H18X20938   5.044   2.131   8.537  1.2657 -0.1706 -0.8724
  182SLPC  H18Y20939   5.012   2.257   8.411  0.9843 -1.8978  0.0197
  182SLPC  H18Z20940   4.895   2.236   8.542 -0.5177 -1.6339 -1.3012
  183SLPC     N20941   0.106   2.616  10.749 -0.5252  0.1513  0.1853
  183SLPC   C1320942   0.216   2.701  10.809  0.0670  0.4494 -0.6549
  183SLPC  H13A20943   0.187   2.789  10.865 -0.2592  0.6601 -1.1566
  183SLPC  H13B20944   0.275   2.648  10.883  0.1732 -0.9531 -1.7405
  183SLPC  H13C20945   0.294   2.738  10.744  1.2214  0.2612  0.5676
  183SLPC   C1420946   0.035   2.694  10.644  0.1041 -0.3673 -0.0841
  183SLPC  H14A20947  -0.049   2.644  10.600  0.0970 -1.1011  0.7403
  183SLPC  H14B20948  -0.000   2.783  10.694 -0.9054 -1.0519  0.4379
  183SLPC  H14C20949   0.105   2.739  10.576 -0.4787 -1.4607 -1.4278
  183SLPC   C1520950   0.017   2.591  10.856  0.9267 -0.2139  0.3627
  183SLPC  H15A20951  -0.017   2.687  10.892 -0.6331 -0.9641  0.9297
  183SLPC  H15B20952  -0.065   2.535  10.814  1.0236  0.5553 -0.8506
  183SLPC  H15C20953   0.065   2.546  10.942  1.5666  0.3170  0.2847
  183SLPC   C1220954   0.163   2.489  10.687  0.4707 -0.7210 -0.5344
  183SLPC  H12A20955   0.080   2.427  10.658 -2.5354  1.9850  1.7785
  183SLPC  H12B20956   0.205   2.428  10.765 -0.2808  1.7583  1.8969
  183SLPC   C1120957   0.263   2.497  10.567 -0.5816  0.2506 -0.1803
  183SLPC  H11A20958   0.213   2.536  10.476  2.6904  2.2722 -1.2050
  183SLPC  H11B20959   0.295   2.395  10.537  1.1150  0.0860  2.0959
  183SLPC     P20960   0.507   2.515  10.663 -0.3157 -0.0696  0.1502
  183SLPC   O1320961   0.489   2.461  10.802 -0.4253  0.4528 -0.2778
  183SLPC   O1420962   0.562   2.427  10.557  0.4302 -0.0250  0.2128
  183SLPC   O1220963   0.369   2.581  10.611 -0.2386  0.0130 -0.1512
  183SLPC   O1120964   0.608   2.634  10.659  0.4977  0.2272 -0.0851
  183SLPC    C120965   0.593   2.748  10.576 -0.0898 -0.3409  0.4330
  183SLPC    HA20966   0.500   2.805  10.595 -0.2206 -0.2347 -0.4760
  183SLPC    HB20967   0.679   2.808  10.614 -0.3862 -0.2548  0.9689
  183SLPC    C220968   0.604   2.724  10.419 -0.2179 -0.1971  0.2885
  183SLPC    HS20969   0.511   2.670  10.390  0.5139 -1.2509 -0.1509
  183SLPC   O2120970   0.728   2.650  10.407  0.7006  0.2738 -0.4292
  183SLPC   C2120971   0.724   2.551  10.321  0.2560 -0.2701 -0.1252
  183SLPC   O2220972   0.635   2.534  10.240 -0.3566 -0.5212 -0.0398
  183SLPC   C2220973   0.823   2.438  10.370  0.7380 -1.0802 -0.1051
  183SLPC   H2R20974   0.927   2.467  10.343  0.1571  0.3242 -0.8734
  183SLPC   H2S20975   0.823   2.436  10.481  3.7495 -0.7248 -0.0444
  183SLPC    C320976   0.621   2.858  10.339  0.3801  0.3010 -0.5229
  183SLPC    HX20977   0.726   2.893  10.348  0.4849 -0.1811  0.1881
  183SLPC    HY20978   0.549   2.923  10.392  0.7744 -0.1999  0.6483
  183SLPC   O3120979   0.595   2.829  10.202  0.1767 -0.4975  0.0299
  183SLPC   C3120980   0.473   2.810  10.159 -0.2511 -0.1255 -0.6956
  183SLPC   O3220981   0.378   2.813  10.234  0.3297  0.6131 -0.4484
  183SLPC   C3220982   0.470   2.784  10.008 -0.2759  0.4672  0.0171
  183SLPC   H2X20983   0.491   2.674  10.006 -2.9118 -0.0711  0.5666
  183SLPC   H2Y20984   0.557   2.821   9.950  0.2470 -0.6828  0.0463
  183SLPC   C2320985   0.799   2.305  10.298 -0.1196  0.0030  0.8762
  183SLPC   H3R20986   0.810   2.331  10.191  0.2572 -1.9662  0.4129
  183SLPC   H3S20987   0.698   2.264  10.321 -0.7648 -0.2027 -2.1286
  183SLPC   C2420988   0.902   2.201  10.339 -0.3847  0.3795  0.0488
  183SLPC   H4R20989   0.872   2.097  10.313 -2.9015  1.4681 -1.6797
  183SLPC   H4S20990   0.906   2.206  10.450  2.5080  0.0608 -0.0077
  183SLPC   C2520991   1.038   2.206  10.266  0.5459 -0.1707  0.2609
  183SLPC   H5R20992   1.106   2.130  10.311  0.3411 -0.3409  0.2822
  183SLPC   H5S20993   1.077   2.307  10.292  1.8641 -0.6777  0.3213
  183SLPC   C2620994   1.049   2.198  10.119  0.1924 -0.6937  0.4768
  183SLPC   H6R20995   0.997   2.287  10.075  3.8984 -0.1463 -3.1101
  183SLPC   H6S20996   0.992   2.109  10.084 -0.1819 -0.8080  1.3722
  183SLPC   C2720997   1.195   2.214  10.062  0.6515 -0.5949  0.4917
  183SLPC   H7R20998   1.247   2.129  10.112  0.4830 -0.4344  0.9460
  183SLPC   H7S20999   1.244   2.308  10.093 -0.0141 -0.2298  0.4475
  183SLPC   C2821000   1.196   2.213   9.905  0.4263  0.7232  0.4184
  183SLPC   H8R21001   1.147   2.303   9.862 -1.3952  0.3208  1.5598
  183SLPC   H8S21002   1.125   2.133   9.874  0.0038  0.8784  0.9782
  183SLPC   C2921003   1.337   2.192   9.870 -0.5932 -0.2775 -0.2346
  183SLPC   H9R21004   1.417   2.212   9.943 -0.7101 -0.3226 -0.0961
  183SLPC  C21021005   1.374   2.154   9.747  1.2019 -0.5613 -0.2013
  183SLPC  H10R21006   1.481   2.132   9.738  1.4934  0.3664  0.8707
  183SLPC  C21121007   1.305   2.122   9.610 -1.0009  0.0349 -0.9524
  183SLPC  H11R21008   1.274   2.015   9.620  0.1469 -0.1319  1.2542
  183SLPC  H11S21009   1.382   2.126   9.530  0.9297 -0.1312  0.8576
  183SLPC  C21221010   1.178   2.209   9.591  0.3482 -0.2508  0.8342
  183SLPC  H12R21011   1.090   2.186   9.652 -1.0177 -0.0802 -1.0444
  183SLPC  C21321012   1.172   2.311   9.501 -0.2285  0.0635  0.0049
  183SLPC  H13R21013   1.074   2.360   9.493 -0.9926 -0.7372  3.6240
  183SLPC  C21421014   1.277   2.357   9.399  0.2923 -0.1197 -0.0323
  183SLPC  H14R21015   1.369   2.294   9.398  0.7056  0.4846 -0.0180
  183SLPC  H14S21016   1.314   2.458   9.425  0.9138  0.2155 -2.1661
  183SLPC  C21521017   1.222   2.376   9.257 -0.6850  0.0127 -0.0037
  183SLPC  H15R21018   1.164   2.470   9.260  2.0799  1.8119 -0.9846
  183SLPC  H15S21019   1.164   2.285   9.230 -0.4097 -0.0342 -0.4340
  183SLPC  C21621020   1.321   2.395   9.151  0.4096  0.1878  0.0627
  183SLPC  H16R21021   1.400   2.318   9.157 -1.0648 -1.5399 -1.6227
  183SLPC  H16S21022   1.367   2.494   9.170 -1.5004  1.0853  0.1746
  183SLPC  C21721023   1.255   2.386   9.017  0.5908  0.3167  0.8357
  183SLPC  H17R21024   1.186   2.473   9.005  0.5916  0.1175 -0.8092
  183SLPC  H17S21025   1.190   2.296   9.010 -1.1201  1.6009 -0.3435
  183SLPC  C21821026   1.345   2.384   8.900  0.6567  1.1798 -0.8775
  183SLPC  H18R21027   1.291   2.368   8.805 -0.5787 -1.7657  0.2547
  183SLPC  H18S21028   1.418   2.301   8.911  0.7805  1.2858 -0.8962
  183SLPC  H18T21029   1.398   2.481   8.889  0.3984  1.3995 -0.2054
  183SLPC   C3321030   0.344   2.846   9.946  0.3545 -0.3118 -0.4448
  183SLPC   H3X21031   0.336   2.951   9.981  1.0784 -1.4073  3.2789
  183SLPC   H3Y21032   0.262   2.776   9.975 -0.8720  0.7641 -1.2710
  183SLPC   C3421033   0.344   2.853   9.800 -0.8127 -0.0025 -0.0047
  183SLPC   H4X21034   0.429   2.910   9.757 -0.0728 -1.6967 -0.8305
  183SLPC   H4Y21035   0.254   2.911   9.771  0.6678  2.3112 -0.1389
  183SLPC   C3521036   0.327   2.717   9.723  0.1829  0.5242 -0.4602
  183SLPC   H5X21037   0.245   2.656   9.767  1.5962 -0.6061  0.6631
  183SLPC   H5Y21038   0.414   2.647   9.727 -1.9262 -2.0936  1.0915
  183SLPC   C3621039   0.292   2.740   9.574 -0.1921  0.4125 -0.0214
  183SLPC   H6X21040   0.383   2.790   9.535 -0.8838  1.4159 -0.3667
  183SLPC   H6Y21041   0.204   2.804   9.553  1.3084  2.3564 -0.4583
  183SLPC   C3721042   0.282   2.619   9.489  0.2453  0.1321 -0.7309
  183SLPC   H7X21043   0.198   2.559   9.529  1.2961 -0.6362  0.3810
  183SLPC   H7Y21044   0.367   2.550   9.509 -0.0276 -0.1262 -0.4641
  183SLPC   C3821045   0.252   2.650   9.336 -0.1437  0.8240 -0.7103
  183SLPC   H8X21046   0.323   2.726   9.298  1.3338  0.3759  1.0673
  183SLPC   H8Y21047   0.144   2.675   9.333  0.0309  2.3436  2.8263
  183SLPC   C3921048   0.264   2.521   9.243  0.3095 -0.2483 -0.3159
  183SLPC   H9X21049   0.204   2.439   9.287  0.2626 -1.3747 -2.3836
  183SLPC   H9Y21050   0.368   2.488   9.264  1.3666  3.2277  0.2541
  183SLPC  C31021051   0.252   2.540   9.092 -0.1911 -0.0149 -0.1589
  183SLPC  H10X21052   0.165   2.606   9.075 -1.0616 -0.7336  1.3844
  183SLPC  H10Y21053   0.245   2.444   9.037  0.1741 -3.3039  5.1645
  183SLPC  C31121054   0.379   2.605   9.041 -0.5602  0.1792 -0.3748
  183SLPC  H11X21055   0.468   2.539   9.055 -1.9573 -0.9705  4.0288
  183SLPC  H11Y21056   0.406   2.706   9.080  0.8342 -0.0210 -0.7642
  183SLPC  C31221057   0.372   2.637   8.888 -0.1280  0.2465  0.0593
  183SLPC  H12X21058   0.317   2.733   8.877  0.1356  0.1600 -2.4080
  183SLPC  H12Y21059   0.306   2.561   8.841  1.2921 -0.2714 -1.1216
  183SLPC  C31321060   0.507   2.664   8.818 -0.0540 -0.3111 -0.2283
  183SLPC  H13X21061   0.567   2.571   8.815  0.1166 -0.1749 -1.0370
  183SLPC  H13Y21062   0.556   2.748   8.873  0.0913 -0.3429 -0.3081
  183SLPC  C31421063   0.492   2.706   8.666 -0.2092  0.2574  0.4216
  183SLPC  H14X21064   0.429   2.798   8.665 -0.9692 -0.2454  1.1041
  183SLPC  H14Y21065   0.433   2.620   8.628  2.0049 -0.5902 -1.1248
  183SLPC  C31521066   0.626   2.736   8.591  0.0699 -0.1912  0.8688
  183SLPC  H15X21067   0.705   2.660   8.610 -0.4208 -1.1294 -0.7508
  183SLPC  H15Y21068   0.662   2.834   8.629  0.0776  0.4314 -0.7015
  183SLPC  C31621069   0.604   2.734   8.439  0.5165  0.3416 -0.0788
  183SLPC  H16X21070   0.513   2.795   8.422  0.3436  0.1167  0.0397
  183SLPC  H16Y21071   0.578   2.629   8.413 -0.3913  0.2250  1.3097
  183SLPC  C31721072   0.716   2.797   8.363  0.2652 -0.0472  0.2703
  183SLPC  H17X21073   0.692   2.777   8.257  0.9491  0.8689 -0.0615
  183SLPC  H17Y21074   0.803   2.730   8.381  2.6868  2.8957  0.0955
  183SLPC  C31821075   0.737   2.938   8.382  0.1903  0.3577 -0.1068
  183SLPC  H18X21076   0.770   2.974   8.482 -1.4377  2.3450 -0.2381
  183SLPC  H18Y21077   0.645   2.999   8.367 -0.1066 -0.5895 -2.3509
  183SLPC  H18Z21078   0.810   2.982   8.311 -0.3482 -0.1575 -0.9962
  184SLPC     N21079   2.811   0.744  10.820 -0.6067 -0.0528  0.4852
  184SLPC   C1321080   2.688   0.785  10.908 -0.2787 -0.4137  1.7549
  184SLPC  H13A21081   2.666   0.891  10.900  4.2422  0.4026 -2.6328
  184SLPC  H13B21082   2.612   0.719  10.870 -0.2978  0.6603 -0.1913
  184SLPC  H13C21083   2.707   0.769  11.013  1.8344  1.6961  1.7528
  184SLPC   C1421084   2.800   0.598  10.799 -0.0332 -0.4980  0.0761
  184SLPC  H14A21085   2.800   0.539  10.889  0.3271  0.3066  0.6037
  184SLPC  H14B21086   2.716   0.566  10.737  0.5953 -1.3454 -0.3452
  184SLPC  H14C21087   2.890   0.566  10.749 -0.3385 -0.8919 -0.2281
  184SLPC   C1521088   2.940   0.785  10.893 -0.2312  0.1195  0.4715
  184SLPC  H15A21089   2.947   0.884  10.937  5.1996 -1.1625  2.9718
  184SLPC  H15B21090   2.953   0.716  10.975  5.9025  1.2612  0.6956
  184SLPC  H15C21091   3.024   0.779  10.825  0.1867  0.7944  0.9156
  184SLPC   C1221092   2.795   0.816  10.683 -0.1900 -0.7825 -0.3283
  184SLPC  H12A21093   2.808   0.921  10.704 -0.4561 -0.5228 -1.4390
  184SLPC  H12B21094   2.693   0.798  10.651 -0.7669  0.5518  0.6818
  184SLPC   C1121095   2.901   0.779  10.574 -0.4942 -0.1279  0.3325
  184SLPC  H11A21096   2.873   0.824  10.476 -0.1831  2.4130  1.3655
  184SLPC  H11B21097   2.898   0.668  10.573  0.1012 -0.1404  0.0753
  184SLPC     P21098   3.152   0.758  10.598  0.7746  0.1537 -0.1952
  184SLPC   O1321099   3.251   0.853  10.541 -0.9131 -0.1852 -0.0419
  184SLPC   O1421100   3.190   0.699  10.734 -0.4093  0.1546 -0.4832
  184SLPC   O1221101   3.017   0.836  10.614 -0.1562 -0.5651  0.1542
  184SLPC   O1121102   3.124   0.633  10.505 -0.5840  0.0923  0.1133
  184SLPC    C121103   3.128   0.674  10.366  0.5643 -0.2126 -0.4136
  184SLPC    HA21104   3.075   0.769  10.345 -0.9548 -1.0415 -0.3612
  184SLPC    HB21105   3.233   0.680  10.329  0.6873 -0.5706 -0.1168
  184SLPC    C221106   3.069   0.566  10.277  0.9218 -0.4520  0.6232
  184SLPC    HS21107   3.137   0.478  10.273  0.6486 -0.6544  0.2209
  184SLPC   O2121108   3.054   0.634  10.153 -0.3675  0.1696  0.6408
  184SLPC   C2121109   3.164   0.644  10.074  0.5553 -0.2064  0.0900
  184SLPC   O2221110   3.262   0.573  10.084 -0.7139 -0.2534 -0.0373
  184SLPC   C2221111   3.118   0.734   9.966 -0.4340 -0.3033 -0.2694
  184SLPC   H2R21112   3.013   0.706   9.944 -1.7319  2.5113  1.8359
  184SLPC   H2S21113   3.112   0.838  10.007 -2.7953  0.0241 -1.3313
  184SLPC    C321114   2.925   0.523  10.329 -0.3315  0.1685 -0.2347
  184SLPC    HX21115   2.866   0.616  10.315 -1.2394 -0.2884  0.4854
  184SLPC    HY21116   2.927   0.506  10.439 -1.2482 -0.8811 -0.3642
  184SLPC   O3121117   2.871   0.412  10.258  0.1688  0.3585  0.5058
  184SLPC   C3121118   2.927   0.306  10.303 -0.5702  0.5766 -0.2696
  184SLPC   O3221119   2.995   0.299  10.406  0.0412  0.5177 -0.8396
  184SLPC   C3221120   2.881   0.185  10.225 -0.1399  0.3583  0.1142
  184SLPC   H2X21121   2.787   0.213  10.173  0.0845 -0.2669 -0.6272
  184SLPC   H2Y21122   2.854   0.125  10.315  0.2068 -3.1830 -2.0725
  184SLPC   C2321123   3.199   0.722   9.831  0.5737 -0.9689  0.0605
  184SLPC   H3R21124   3.219   0.614   9.815  0.2953 -1.1771  1.1338
  184SLPC   H3S21125   3.298   0.772   9.825 -1.2619  2.6137 -3.2449
  184SLPC   C2421126   3.127   0.780   9.703  0.3233 -0.8060  0.1447
  184SLPC   H4R21127   3.115   0.889   9.721 -1.6702 -1.1777  1.2190
  184SLPC   H4S21128   3.024   0.741   9.689  0.6737 -1.8981  0.6105
  184SLPC   C2521129   3.196   0.745   9.567  0.0211  0.4992  0.2173
  184SLPC   H5R21130   3.198   0.635   9.557 -1.7326  0.2861  1.8059
  184SLPC   H5S21131   3.298   0.787   9.556 -0.0236  0.5773  0.0951
  184SLPC   C2621132   3.116   0.790   9.445  0.1277 -0.3942 -0.8647
  184SLPC   H6R21133   3.096   0.898   9.466 -0.4641 -0.4684 -1.0432
  184SLPC   H6S21134   3.016   0.743   9.454 -0.4549  0.8273 -0.8669
  184SLPC   C2721135   3.191   0.773   9.308  0.2984 -1.1877 -0.4502
  184SLPC   H7R21136   3.293   0.738   9.333  0.2441 -0.7764  0.3597
  184SLPC   H7S21137   3.191   0.874   9.260 -0.4263 -0.4897  0.9922
  184SLPC   C2821138   3.130   0.662   9.223  0.3096  0.1076  0.1294
  184SLPC   H8R21139   3.032   0.706   9.196  1.0601  1.3620 -0.5687
  184SLPC   H8S21140   3.120   0.572   9.288 -1.5729  0.7320  0.7396
  184SLPC   C2921141   3.209   0.631   9.101 -0.4713  0.0390 -0.0641
  184SLPC   H9R21142   3.202   0.690   9.009  0.5099 -1.4387 -1.1046
  184SLPC  C21021143   3.303   0.535   9.094  0.1292  0.0245  0.3329
  184SLPC  H10R21144   3.345   0.523   8.993  0.9478 -0.1660  0.6937
  184SLPC  C21121145   3.345   0.437   9.205 -0.7967 -0.0660  0.8169
  184SLPC  H11R21146   3.362   0.480   9.306  0.1691  0.0835  0.5981
  184SLPC  H11S21147   3.443   0.394   9.176  0.0942  1.1784  1.9421
  184SLPC  C21221148   3.249   0.319   9.202  0.3148  0.3289 -0.2215
  184SLPC  H12R21149   3.225   0.268   9.107  0.4548  1.8292 -1.0724
  184SLPC  C21321150   3.180   0.258   9.298  0.1236 -0.0796  0.1665
  184SLPC  H13R21151   3.117   0.169   9.279  1.2890 -0.5348 -1.6675
  184SLPC  C21421152   3.180   0.298   9.447 -0.4299 -0.6040  0.2754
  184SLPC  H14R21153   3.078   0.339   9.462 -1.0432 -1.2877 -1.8830
  184SLPC  H14S21154   3.250   0.384   9.457 -0.3739 -0.5909 -0.2283
  184SLPC  C21521155   3.234   0.197   9.544  0.6031  0.4763 -0.2302
  184SLPC  H15R21156   3.338   0.170   9.519  0.6016 -0.2884  0.5322
  184SLPC  H15S21157   3.183   0.100   9.528  0.5190  0.4870 -0.0257
  184SLPC  C21621158   3.206   0.237   9.687  1.0909 -0.4997 -0.1545
  184SLPC  H16R21159   3.214   0.147   9.752  0.0050 -0.7647 -0.3764
  184SLPC  H16S21160   3.099   0.267   9.685  1.5815  1.2165 -1.0665
  184SLPC  C21721161   3.293   0.341   9.750 -0.2685  0.4511  0.2497
  184SLPC  H17R21162   3.263   0.361   9.856  2.0276  0.0931  0.9813
  184SLPC  H17S21163   3.274   0.428   9.684 -3.6771 -2.3829 -2.6994
  184SLPC  C21821164   3.441   0.295   9.747 -0.2636 -0.0862  0.3371
  184SLPC  H18R21165   3.503   0.304   9.655 -0.4156 -0.3183  0.2131
  184SLPC  H18S21166   3.454   0.191   9.782 -1.7652  0.3592  2.3060
  184SLPC  H18T21167   3.496   0.361   9.818  3.6377 -0.6267 -2.0570
  184SLPC   C3321168   2.982   0.099  10.150  0.4600  0.0941 -0.7695
  184SLPC   H3X21169   2.925   0.010  10.117 -0.9437  0.0976  1.5529
  184SLPC   H3Y21170   3.056   0.065  10.226 -0.6015  1.3566  0.8642
  184SLPC   C3421171   3.032   0.167  10.015 -0.3397  0.0909 -0.3879
  184SLPC   H4X21172   3.114   0.108   9.970 -0.1296  0.2363 -0.1948
  184SLPC   H4Y21173   3.067   0.268  10.046  0.0630 -0.4696  1.0106
  184SLPC   C3521174   2.931   0.203   9.904  1.1129 -1.0909 -0.1046
  184SLPC   H5X21175   2.972   0.286   9.843  0.7011 -1.9759 -1.5951
  184SLPC   H5Y21176   2.830   0.223   9.945  1.6096  0.0926  0.5716
  184SLPC   C3621177   2.907   0.090   9.803  0.9393  0.9146 -0.2228
  184SLPC   H6X21178   2.861   0.007   9.861 -1.5388  0.6118 -2.5296
  184SLPC   H6Y21179   3.001   0.043   9.766  0.9323  0.0707  0.8012
  184SLPC   C3721180   2.812   0.136   9.692 -0.0919 -0.1071 -0.4052
  184SLPC   H7X21181   2.879   0.209   9.641  0.4262  0.1122  0.5915
  184SLPC   H7Y21182   2.725   0.184   9.742  2.0902  0.4497  2.9761
  184SLPC   C3821183   2.779   0.032   9.588 -0.0913 -0.2243  0.3517
  184SLPC   H8X21184   2.702  -0.040   9.625 -1.5080  1.3910  0.6074
  184SLPC   H8Y21185   2.877  -0.019   9.577  0.4364  0.3809  2.1451
  184SLPC   C3921186   2.753   0.101   9.453 -0.0596  0.4230 -0.0641
  184SLPC   H9X21187   2.834   0.177   9.445  0.0715  0.3343  0.3879
  184SLPC   H9Y21188   2.656   0.152   9.468  0.0171  0.4242  0.4268
  184SLPC  C31021189   2.760   0.018   9.324 -0.0028  0.0815  0.3374
  184SLPC  H10X21190   2.758  -0.088   9.355  1.4699 -0.0182  0.1210
  184SLPC  H10Y21191   2.859   0.037   9.277 -0.6941  0.2474 -1.0707
  184SLPC  C31121192   2.637   0.021   9.229  0.9530 -0.6432 -0.6447
  184SLPC  H11X21193   2.616   0.129   9.212  0.5558 -0.9130 -1.8994
  184SLPC  H11Y21194   2.553  -0.011   9.294 -0.3036  0.3997 -1.7120
  184SLPC  C31221195   2.649  -0.047   9.099 -0.2921 -0.0960  0.4133
  184SLPC  H12X21196   2.671  -0.151   9.131 -0.4289 -0.4579 -0.6591
  184SLPC  H12Y21197   2.735  -0.017   9.035 -2.3558  1.3266 -1.7859
  184SLPC  C31321198   2.526  -0.049   9.007 -0.0658  0.5201  0.3586
  184SLPC  H13X21199   2.492   0.053   8.980 -1.6818 -0.4017 -1.2534
  184SLPC  H13Y21200   2.438  -0.094   9.057  2.1987 -5.2943 -0.4884
  184SLPC  C31421201   2.542  -0.132   8.878 -0.3047 -0.4565  0.3278
  184SLPC  H14X21202   2.448  -0.122   8.819 -1.9140  1.6147  3.0843
  184SLPC  H14Y21203   2.548  -0.240   8.906  0.2700 -0.5256 -0.0684
  184SLPC  C31521204   2.662  -0.086   8.792  0.5026  0.2068 -0.6142
  184SLPC  H15X21205   2.745  -0.145   8.837  0.0094  0.7517  1.0629
  184SLPC  H15Y21206   2.677   0.023   8.803 -1.4213  0.2835  1.8161
  184SLPC  C31621207   2.656  -0.136   8.648  0.1902 -0.0040  0.5673
  184SLPC  H16X21208   2.580  -0.086   8.586  1.6768 -0.6722 -1.8700
  184SLPC  H16Y21209   2.639  -0.246   8.652 -1.8622  0.2371 -0.9571
  184SLPC  C31721210   2.775  -0.117   8.562 -0.5800  0.0210 -0.0606
  184SLPC  H17X21211   2.866  -0.156   8.612  0.1609 -1.3061 -2.3763
  184SLPC  H17Y21212   2.796  -0.015   8.524  1.2064 -0.7836 -1.2793
  184SLPC  C31821213   2.761  -0.190   8.431  0.0804  0.2628 -0.3592
  184SLPC  H18X21214   2.856  -0.173   8.376  0.4469 -2.8028 -0.7274
  184SLPC  H18Y21215   2.665  -0.151   8.390 -0.9089 -1.1717  0.5635
  184SLPC  H18Z21216   2.751  -0.299   8.448  5.3922 -0.1194  1.3810
  185SLPC     N21217   0.989   3.093   6.524 -0.1333  1.1854 -0.6939
  185SLPC   C1321218   1.092   3.196   6.501 -0.5916 -0.1126  0.4654
  185SLPC  H13A21219   1.041   3.291   6.506 -0.1336  0.1883 -0.5041
  185SLPC  H13B21220   1.164   3.193   6.581 -0.7698 -1.9175  0.5909
  185SLPC  H13C21221   1.135   3.173   6.405  3.4480  1.4202  1.8207
  185SLPC   C1421222   1.065   2.961   6.526  0.6306  0.2801 -0.4542
  185SLPC  H14A21223   1.095   2.928   6.427  0.9940  0.5635 -0.4377
  185SLPC  H14B21224   1.148   2.969   6.594 -0.1120 -1.6034  0.7173
  185SLPC  H14C21225   0.997   2.881   6.553 -1.0584  1.4324 -1.2127
  185SLPC   C1521226   0.898   3.096   6.416  0.8908 -0.2215  0.4634
  185SLPC  H15A21227   0.945   3.085   6.319  1.2056 -2.3689  0.8322
  185SLPC  H15B21228   0.820   3.021   6.415 -0.1746  0.8630  0.4248
  185SLPC  H15C21229   0.854   3.195   6.412 -1.1362 -0.9079  3.6124
  185SLPC   C1221230   0.907   3.117   6.651 -0.2925 -0.3905  0.0270
  185SLPC  H12A21231   0.955   3.066   6.733 -0.0739  0.7329  0.6076
  185SLPC  H12B21232   0.816   3.059   6.643 -0.5181 -0.0444  0.0591
  185SLPC   C1121233   0.876   3.260   6.705 -0.2944 -0.4138 -0.3138
  185SLPC  H11A21234   0.968   3.305   6.750 -0.5434  1.3504 -1.5194
  185SLPC  H11B21235   0.804   3.246   6.789 -1.2477 -3.5873 -1.5907
  185SLPC     P21236   0.670   3.335   6.556 -0.1797  0.0744  0.6586
  185SLPC   O1321237   0.681   3.382   6.416  0.2830 -0.1294  0.0103
  185SLPC   O1421238   0.613   3.202   6.585  0.2370  0.6953 -0.3536
  185SLPC   O1221239   0.828   3.348   6.599  0.4494  0.2610 -0.1997
  185SLPC   O1121240   0.602   3.447   6.648  0.1297 -0.5575  0.2527
  185SLPC    C121241   0.668   3.567   6.684 -0.5358  0.3890  0.8538
  185SLPC    HA21242   0.775   3.569   6.653 -0.6688  0.5221  0.4056
  185SLPC    HB21243   0.612   3.660   6.659 -0.9184  0.6253  2.5270
  185SLPC    C221244   0.683   3.575   6.842 -0.9652 -0.2063 -0.1124
  185SLPC    HS21245   0.748   3.493   6.878 -0.5198 -0.2364 -0.9748
  185SLPC   O2121246   0.552   3.575   6.901 -0.3173  0.1627 -0.2551
  185SLPC   C2121247   0.533   3.533   7.023 -0.1589 -0.4577 -0.1812
  185SLPC   O2221248   0.619   3.479   7.090 -0.7136 -0.8162 -0.0193
  185SLPC   C2221249   0.383   3.568   7.070 -1.2238  0.2040  0.0447
  185SLPC   H2R21250   0.310   3.578   6.987  0.3763 -2.3433 -1.7336
  185SLPC   H2S21251   0.353   3.468   7.107  2.0438 -0.2148  1.7987
  185SLPC    C321252   0.758   3.709   6.883  0.3009 -0.2227 -0.2263
  185SLPC    HX21253   0.712   3.800   6.838  1.7921  0.5134 -0.2892
  185SLPC    HY21254   0.859   3.723   6.838  1.8738 -0.3910  3.1456
  185SLPC   O3121255   0.754   3.731   7.029  0.5643 -0.0100  0.2288
  185SLPC   C3121256   0.855   3.674   7.090 -0.1413  0.5116 -0.3904
  185SLPC   O3221257   0.952   3.622   7.037  0.0966 -0.0358 -0.3211
  185SLPC   C3221258   0.830   3.666   7.249  0.9210  0.8972  0.2815
  185SLPC   H2X21259   0.806   3.568   7.295  3.8494  0.4872  1.0757
  185SLPC   H2Y21260   0.757   3.744   7.277 -0.3834 -0.3924  0.5287
  185SLPC   C2321261   0.363   3.686   7.171  0.3108  0.6711 -0.4684
  185SLPC   H3R21262   0.255   3.707   7.181 -0.6861 -4.1685 -0.1240
  185SLPC   H3S21263   0.410   3.776   7.127 -0.5637  1.8245  0.8989
  185SLPC   C2421264   0.437   3.666   7.297 -0.8793  0.0535 -1.0430
  185SLPC   H4R21265   0.453   3.768   7.338  1.6068 -1.2492  1.4398
  185SLPC   H4S21266   0.540   3.627   7.279 -0.6208  0.2658 -0.0636
  185SLPC   C2521267   0.356   3.580   7.398  0.4736 -0.1038  0.4417
  185SLPC   H5R21268   0.383   3.474   7.380  0.9332  0.1650 -0.4668
  185SLPC   H5S21269   0.246   3.598   7.398  0.0118 -2.7005  1.0480
  185SLPC   C2621270   0.412   3.594   7.545 -0.1576 -0.4174  0.3659
  185SLPC   H6R21271   0.461   3.693   7.552  2.0299 -1.5613  2.3093
  185SLPC   H6S21272   0.500   3.529   7.566  0.6808  0.4926 -0.3020
  185SLPC   C2721273   0.300   3.572   7.655  0.5328 -0.0917  0.1280
  185SLPC   H7R21274   0.265   3.467   7.649  0.0322  0.0248  0.9466
  185SLPC   H7S21275   0.210   3.629   7.622  0.4736  0.8254  1.8208
  185SLPC   C2821276   0.340   3.604   7.795  0.3100  0.9108  0.4610
  185SLPC   H8R21277   0.434   3.545   7.801 -0.3826 -0.1009  1.4784
  185SLPC   H8S21278   0.258   3.560   7.856  0.5826 -0.6845 -0.2918
  185SLPC   C2921279   0.368   3.754   7.819  0.2883  0.5507  0.2434
  185SLPC   H9R21280   0.298   3.818   7.762  0.3441 -0.5005 -1.0415
  185SLPC  C21021281   0.466   3.808   7.895  0.2734  0.7750 -0.2832
  185SLPC  H10R21282   0.478   3.916   7.903 -1.0731  0.7437  2.7854
  185SLPC  C21121283   0.564   3.722   7.979  0.0046  0.5526  0.0867
  185SLPC  H11R21284   0.547   3.613   7.978  2.5807  0.1202  0.7131
  185SLPC  H11S21285   0.547   3.750   8.085  0.3421  0.9779  0.0295
  185SLPC  C21221286   0.709   3.747   7.938 -0.4988 -0.1959  0.4713
  185SLPC  H12R21287   0.748   3.681   7.859  1.9588 -0.0601  1.5320
  185SLPC  C21321288   0.806   3.822   8.003  0.1559 -0.4405  0.0124
  185SLPC  H13R21289   0.906   3.827   7.959  0.5365  0.3851  0.9761
  185SLPC  C21421290   0.779   3.901   8.133 -0.0067  0.2451 -0.2594
  185SLPC  H14R21291   0.673   3.935   8.133  0.2266  0.9873  0.0174
  185SLPC  H14S21292   0.823   4.002   8.125  0.4702  0.1219  0.7708
  185SLPC  C21521293   0.816   3.830   8.265  0.5084  0.2472  0.5549
  185SLPC  H15R21294   0.750   3.743   8.286  0.1941 -0.0516 -1.5412
  185SLPC  H15S21295   0.787   3.899   8.347 -0.9571 -1.3351  1.4092
  185SLPC  C21621296   0.960   3.783   8.293  0.0871 -0.4261 -0.0224
  185SLPC  H16R21297   1.030   3.864   8.263  0.2723 -0.0322  1.4814
  185SLPC  H16S21298   0.982   3.696   8.226 -1.9221 -0.6559 -0.4062
  185SLPC  C21721299   0.970   3.745   8.443 -0.2468 -0.2622  0.2126
  185SLPC  H17R21300   0.888   3.673   8.465  2.1728 -3.1006  0.4219
  185SLPC  H17S21301   0.949   3.831   8.510  0.7379 -1.5024  2.1871
  185SLPC  C21821302   1.100   3.670   8.484  0.0683 -0.2069  0.7147
  185SLPC  H18R21303   1.114   3.583   8.416  1.8031  0.2215  0.5014
  185SLPC  H18S21304   1.081   3.634   8.588 -0.8743 -1.3239  0.1616
  185SLPC  H18T21305   1.180   3.747   8.476 -0.6533  0.3256 -1.5187
  185SLPC   C3321306   0.956   3.716   7.330 -0.6875 -0.3732 -0.5666
  185SLPC   H3X21307   0.970   3.813   7.279  1.0601 -0.6257 -0.6067
  185SLPC   H3Y21308   1.046   3.655   7.304  1.5704  2.9677 -0.8878
  185SLPC   C3421309   0.928   3.742   7.475 -0.4152  0.0676  0.1461
  185SLPC   H4X21310   0.880   3.652   7.520  1.6931 -0.9947  0.3076
  185SLPC   H4Y21311   0.847   3.816   7.491 -0.8548 -0.3878  0.0301
  185SLPC   C3521312   1.052   3.768   7.564  0.3393  0.0582  0.3482
  185SLPC   H5X21313   1.095   3.855   7.511 -2.6086 -0.2651 -2.7579
  185SLPC   H5Y21314   1.124   3.684   7.560 -0.4412 -0.6746  1.4321
  185SLPC   C3621315   1.019   3.800   7.713  1.0149 -0.1861 -0.1022
  185SLPC   H6X21316   0.965   3.710   7.751  0.3650  0.8920  1.6310
  185SLPC   H6Y21317   0.943   3.881   7.712  0.6002 -0.5095 -5.4358
  185SLPC   C3721318   1.143   3.830   7.803 -0.4189 -0.2479 -0.3850
  185SLPC   H7X21319   1.099   3.888   7.886  0.0038  0.3513 -0.5791
  185SLPC   H7Y21320   1.210   3.892   7.740 -0.3579 -1.2108 -1.2845
  185SLPC   C3821321   1.215   3.705   7.847  0.5555  0.7982  0.2635
  185SLPC   H8X21322   1.265   3.658   7.759 -1.0612 -1.4113  0.4769
  185SLPC   H8Y21323   1.155   3.618   7.881  1.3162 -1.0494 -2.8701
  185SLPC   C3921324   1.332   3.728   7.946  0.0845 -0.0960  0.0876
  185SLPC   H9X21325   1.401   3.808   7.909 -0.8792  0.8228  0.2458
  185SLPC   H9Y21326   1.390   3.633   7.950  1.9756  0.8922 -2.5436
  185SLPC  C31021327   1.289   3.764   8.085  0.2071  1.3346  0.4647
  185SLPC  H10X21328   1.233   3.683   8.136 -1.6864  2.4533  0.2232
  185SLPC  H10Y21329   1.207   3.835   8.062 -1.4796 -1.4184 -2.3892
  185SLPC  C31121330   1.397   3.826   8.176  0.0114  0.0851  0.2025
  185SLPC  H11X21331   1.351   3.862   8.271  0.9090  1.6441  0.0569
  185SLPC  H11Y21332   1.443   3.914   8.127  3.1952 -2.1650 -1.0024
  185SLPC  C31221333   1.503   3.731   8.225  0.0417  0.2489  0.3843
  185SLPC  H12X21334   1.546   3.670   8.143  0.2003  0.4877  0.2908
  185SLPC  H12Y21335   1.463   3.652   8.293 -0.9953  1.2203  0.9221
  185SLPC  C31321336   1.619   3.790   8.310 -0.6289  0.7674 -0.0670
  185SLPC  H13X21337   1.659   3.702   8.365 -0.7086  0.4641 -0.4898
  185SLPC  H13Y21338   1.590   3.873   8.377  0.2251  1.8307 -0.9933
  185SLPC  C31421339   1.740   3.833   8.221 -0.7484  0.7554 -0.0140
  185SLPC  H14X21340   1.711   3.874   8.122  1.4963  0.5366 -0.7922
  185SLPC  H14Y21341   1.805   3.743   8.219 -1.5367  0.1716  0.2378
  185SLPC  C31521342   1.818   3.942   8.299  0.5826 -0.3005 -0.0091
  185SLPC  H15X21343   1.741   4.005   8.349  0.6997 -0.7843  0.7946
  185SLPC  H15Y21344   1.874   4.000   8.223  0.0127 -1.2429 -1.1690
  185SLPC  C31621345   1.921   3.882   8.398  0.3839  0.2745 -0.5083
  185SLPC  H16X21346   1.989   3.808   8.351  2.2383  0.8755  1.1332
  185SLPC  H16Y21347   1.864   3.829   8.477 -2.6661  0.0664 -2.7655
  185SLPC  C31721348   2.023   3.978   8.467  0.0579  0.1311 -0.0063
  185SLPC  H17X21349   1.972   4.069   8.506  0.5139  1.1989 -1.8126
  185SLPC  H17Y21350   2.089   4.015   8.386  0.0067  0.7504  0.2307
  185SLPC  C31821351   2.113   3.923   8.580  0.1885  0.7018 -0.3264
  185SLPC  H18X21352   2.055   3.867   8.656 -0.7287  2.0795  0.0116
  185SLPC  H18Y21353   2.171   4.004   8.631 -0.2163 -0.2974  1.7813
  185SLPC  H18Z21354   2.175   3.845   8.531 -2.5616 -1.3458 -0.6485
  186SLPC     N21355   1.993   6.650   5.933  0.2245  0.3559  0.0737
  186SLPC   C1321356   1.883   6.688   5.832  0.5043 -0.1032 -0.4674
  186SLPC  H13A21357   1.811   6.611   5.809  0.6272 -0.3667  0.0107
  186SLPC  H13B21358   1.830   6.774   5.873  0.9500 -0.2414  0.4044
  186SLPC  H13C21359   1.919   6.732   5.740  0.2589  1.1821  0.0334
  186SLPC   C1421360   2.097   6.752   5.939 -1.0311  0.5008 -0.3010
  186SLPC  H14A21361   2.134   6.775   5.840 -2.1983  0.6948 -0.7057
  186SLPC  H14B21362   2.054   6.839   5.986 -0.2616  0.6056  0.2091
  186SLPC  H14C21363   2.181   6.722   5.999  0.2973 -0.8256 -2.7254
  186SLPC   C1521364   2.053   6.520   5.898 -0.2359  0.3690 -0.0674
  186SLPC  H15A21365   2.101   6.513   5.802  1.1637  0.7858  0.5779
  186SLPC  H15B21366   2.130   6.491   5.969 -1.3863 -0.2869  0.9501
  186SLPC  H15C21367   1.977   6.444   5.886  0.5309 -0.1153 -2.0977
  186SLPC   C1221368   1.924   6.636   6.067  0.0280 -0.4022  0.4182
  186SLPC  H12A21369   1.847   6.561   6.062  0.0941 -0.3706 -1.8807
  186SLPC  H12B21370   1.869   6.727   6.081  0.2307 -0.3464  0.8493
  186SLPC   C1121371   2.020   6.619   6.183  0.1190  1.3356  0.5382
  186SLPC  H11A21372   2.099   6.543   6.174 -0.3492  0.8413  0.5569
  186SLPC  H11B21373   1.945   6.579   6.255 -1.3458  2.4442 -0.3272
  186SLPC     P21374   2.026   6.846   6.315 -0.1718 -0.3130 -0.2280
  186SLPC   O1321375   2.099   6.975   6.300  0.1895 -0.3796  0.5359
  186SLPC   O1421376   1.884   6.856   6.302 -0.1741  0.0266 -0.1025
  186SLPC   O1221377   2.084   6.740   6.220 -0.7270  0.9378  0.4402
  186SLPC   O1121378   2.063   6.781   6.455  0.7187 -0.2912  0.2685
  186SLPC    C121379   2.199   6.750   6.474 -0.3054  0.5506  0.3152
  186SLPC    HA21380   2.206   6.639   6.479 -1.5351  0.5601  2.7344
  186SLPC    HB21381   2.267   6.795   6.399 -0.9813  1.9803  0.5490
  186SLPC    C221382   2.250   6.811   6.611 -0.0836 -0.0269 -0.2056
  186SLPC    HS21383   2.355   6.778   6.628  1.0768  4.1432  1.4763
  186SLPC   O2121384   2.170   6.764   6.723  0.1754  0.4382  0.0414
  186SLPC   C2121385   2.184   6.643   6.757 -0.2088 -0.3714 -0.1795
  186SLPC   O2221386   2.260   6.562   6.707  0.3576  0.3548 -0.2849
  186SLPC   C2221387   2.075   6.609   6.851  0.4406 -0.0581 -0.3362
  186SLPC   H2R21388   2.024   6.705   6.875  0.9876  0.7407 -2.2178
  186SLPC   H2S21389   2.000   6.544   6.802 -0.8510 -1.4695  3.3577
  186SLPC    C321390   2.248   6.963   6.607 -0.4519  0.2219 -0.5936
  186SLPC    HX21391   2.139   6.984   6.599 -0.5184  0.6288  1.1180
  186SLPC    HY21392   2.307   6.994   6.519 -2.4141  0.7225 -1.7483
  186SLPC   O3121393   2.293   7.015   6.733 -0.0389 -0.0359 -0.4723
  186SLPC   C3121394   2.214   7.052   6.831 -0.2741 -0.1501 -0.2563
  186SLPC   O3221395   2.094   7.052   6.828  0.7805  0.4222 -0.3706
  186SLPC   C3221396   2.300   7.091   6.951 -0.1412  0.7464 -0.0655
  186SLPC   H2X21397   2.334   7.194   6.925 -0.9107  1.6629  2.3467
  186SLPC   H2Y21398   2.393   7.030   6.946 -0.0690  0.9623 -1.5878
  186SLPC   C2321399   2.121   6.544   6.988 -0.1191  0.5425  0.6735
  186SLPC   H3R21400   2.124   6.628   7.061  4.4270  0.2736  0.9244
  186SLPC   H3S21401   2.224   6.503   6.982  0.3311  1.6623  0.5912
  186SLPC   C2421402   2.016   6.440   7.024 -0.1043  0.5933 -0.7391
  186SLPC   H4R21403   2.038   6.358   6.952  0.7229 -0.1319  0.3224
  186SLPC   H4S21404   1.911   6.475   7.017  0.0480  2.5220  4.5638
  186SLPC   C2521405   2.041   6.361   7.158 -0.3189  0.8549 -0.4472
  186SLPC   H5R21406   2.005   6.419   7.246 -0.3763 -0.1622  0.2084
  186SLPC   H5S21407   2.151   6.354   7.170 -0.2619  0.9876 -0.8919
  186SLPC   C2621408   1.976   6.223   7.152 -0.3899  0.4346  0.5200
  186SLPC   H6R21409   2.030   6.163   7.076  1.7297  0.0237  2.2981
  186SLPC   H6S21410   1.874   6.247   7.116 -0.4190 -1.1216 -0.4800
  186SLPC   C2721411   1.977   6.136   7.284  0.3415  0.2713  0.2541
  186SLPC   H7R21412   2.074   6.163   7.332  0.5629 -0.9643  0.5265
  186SLPC   H7S21413   1.995   6.032   7.249  2.1527  0.4489  0.6250
  186SLPC   C2821414   1.860   6.147   7.381 -0.4557 -0.4342 -0.5042
  186SLPC   H8R21415   1.764   6.126   7.329 -0.3951 -1.5745 -0.1754
  186SLPC   H8S21416   1.856   6.255   7.406  1.1681 -0.5472  0.2949
  186SLPC   C2921417   1.872   6.053   7.499 -0.3506  0.1778 -0.2858
  186SLPC   H9R21418   1.934   5.963   7.487 -0.6593 -0.1518  0.5740
  186SLPC  C21021419   1.823   6.083   7.620  0.5943  0.6157 -0.0522
  186SLPC  H10R21420   1.825   6.008   7.701 -0.1561  1.2011  0.5127
  186SLPC  C21121421   1.743   6.201   7.668  0.5797  0.2829  0.0543
  186SLPC  H11R21422   1.715   6.254   7.575  2.0086 -2.5959 -2.1106
  186SLPC  H11S21423   1.807   6.265   7.732 -0.1724  1.8029 -0.6819
  186SLPC  C21221424   1.623   6.168   7.762 -0.7945  0.3160 -0.6940
  186SLPC  H12R21425   1.584   6.066   7.756  0.5339 -0.1869 -0.7849
  186SLPC  C21321426   1.554   6.242   7.853 -0.2366  0.2224  0.5821
  186SLPC  H13R21427   1.489   6.193   7.928 -0.3583  0.9546  0.9588
  186SLPC  C21421428   1.582   6.382   7.895  0.0507 -0.3334  0.3929
  186SLPC  H14R21429   1.488   6.442   7.897  1.1076  1.3489  1.0443
  186SLPC  H14S21430   1.650   6.427   7.820 -2.9933 -1.4702 -3.1969
  186SLPC  C21521431   1.644   6.410   8.033  0.0535  0.2611 -0.0130
  186SLPC  H15R21432   1.644   6.520   8.044 -0.1709  0.4947 -2.1227
  186SLPC  H15S21433   1.754   6.391   8.033  0.2599  1.2695  2.2319
  186SLPC  C21621434   1.575   6.329   8.147  0.3716  0.2698  0.0143
  186SLPC  H16R21435   1.580   6.222   8.118 -0.5339  0.3541 -0.4931
  186SLPC  H16S21436   1.468   6.359   8.152 -0.0543 -1.2296 -0.1391
  186SLPC  C21721437   1.617   6.337   8.294  0.3680  0.5917 -0.7407
  186SLPC  H17R21438   1.608   6.441   8.333  0.0239  0.5618 -0.7327
  186SLPC  H17S21439   1.721   6.301   8.287 -0.5529 -1.6686 -4.2870
  186SLPC  C21821440   1.529   6.253   8.384 -0.1656  0.2815  0.2043
  186SLPC  H18R21441   1.421   6.257   8.360 -0.2740 -0.8645  0.4836
  186SLPC  H18S21442   1.538   6.283   8.490  0.9815  1.3560 -0.1887
  186SLPC  H18T21443   1.558   6.146   8.383 -1.8720 -0.1926 -1.4214
  186SLPC   C3321444   2.226   7.079   7.086 -1.1011 -0.3412 -0.3705
  186SLPC   H3X21445   2.192   6.974   7.093  1.3062 -1.1133  0.2011
  186SLPC   H3Y21446   2.133   7.140   7.086 -1.4183 -0.8255  0.0756
  186SLPC   C3421447   2.316   7.125   7.204 -0.0236  0.7422 -0.3964
  186SLPC   H4X21448   2.359   7.227   7.208  1.6357  0.0722 -0.6150
  186SLPC   H4Y21449   2.406   7.060   7.216 -1.4986 -1.1029  1.0521
  186SLPC   C3521450   2.237   7.104   7.329  0.4709  0.1952  0.3487
  186SLPC   H5X21451   2.234   6.994   7.347  0.9587 -0.1721 -1.6946
  186SLPC   H5Y21452   2.134   7.147   7.328  0.9869  1.5010  1.2199
  186SLPC   C3621453   2.321   7.169   7.443 -0.7456 -0.3419 -0.0762
  186SLPC   H6X21454   2.341   7.277   7.427 -0.3633 -0.1395  1.6865
  186SLPC   H6Y21455   2.419   7.118   7.454  0.8408  2.2288 -1.7553
  186SLPC   C3721456   2.258   7.155   7.588  0.0135  0.2128 -0.2811
  186SLPC   H7X21457   2.204   7.058   7.591 -0.3981  0.2822 -3.5147
  186SLPC   H7Y21458   2.185   7.237   7.607 -0.0216  0.0638  0.2226
  186SLPC   C3821459   2.362   7.150   7.699  0.0483  0.5375  0.1697
  186SLPC   H8X21460   2.435   7.232   7.683  1.2382 -0.4877  0.2720
  186SLPC   H8Y21461   2.416   7.055   7.681 -0.8993 -0.2018  1.1385
  186SLPC   C3921462   2.289   7.148   7.842 -0.2618  0.5545 -0.4602
  186SLPC   H9X21463   2.214   7.066   7.833  1.4550 -1.1099 -0.0866
  186SLPC   H9Y21464   2.249   7.249   7.863 -0.1253  0.5664 -0.2641
  186SLPC  C31021465   2.388   7.102   7.950 -0.2875 -0.9238  0.5842
  186SLPC  H10X21466   2.482   7.158   7.934 -0.2240 -1.5337 -1.2740
  186SLPC  H10Y21467   2.404   6.992   7.950  0.3067 -0.8822 -3.2270
  186SLPC  C31121468   2.338   7.132   8.092  0.1569  0.3663  0.5892
  186SLPC  H11X21469   2.244   7.076   8.106  0.9427 -1.2802 -0.4658
  186SLPC  H11Y21470   2.317   7.241   8.089  1.5981  0.6361 -0.7302
  186SLPC  C31221471   2.425   7.099   8.210 -0.0170  0.6617 -0.0776
  186SLPC  H12X21472   2.528   7.139   8.197 -0.6251  1.2469 -3.5906
  186SLPC  H12Y21473   2.449   6.991   8.216 -0.9310  0.3333 -1.8131
  186SLPC  C31321474   2.360   7.160   8.335  0.4655  0.2159 -0.4153
  186SLPC  H13X21475   2.342   7.268   8.322 -2.2607 -0.3116 -1.4188
  186SLPC  H13Y21476   2.439   7.150   8.413 -1.1020 -5.7861  0.7025
  186SLPC  C31421477   2.229   7.091   8.376  0.4033  0.1791  0.4790
  186SLPC  H14X21478   2.252   6.986   8.406 -1.5773 -0.1071  1.1383
  186SLPC  H14Y21479   2.172   7.087   8.281  2.0736 -0.1008 -0.5133
  186SLPC  C31521480   2.155   7.176   8.485 -0.2024  0.5044  0.0683
  186SLPC  H15X21481   2.151   7.279   8.443 -0.1769 -0.2938 -1.9869
  186SLPC  H15Y21482   2.221   7.182   8.574  0.1747 -0.3078 -0.1508
  186SLPC  C31621483   2.023   7.108   8.518  0.6296 -0.4917  0.2121
  186SLPC  H16X21484   2.052   7.003   8.539 -0.3777 -0.3293  2.4836
  186SLPC  H16Y21485   1.964   7.117   8.425  2.6127 -1.9709 -1.2441
  186SLPC  C31721486   1.946   7.166   8.631 -0.2853 -0.4690  0.7123
  186SLPC  H17X21487   1.916   7.267   8.595 -2.3184 -0.5125  2.1894
  186SLPC  H17Y21488   2.004   7.177   8.725  1.4216 -0.1018 -0.3485
  186SLPC  C31821489   1.811   7.092   8.649  0.3168  0.0323  0.5466
  186SLPC  H18X21490   1.748   7.144   8.724  0.3502  3.0966 -1.5019
  186SLPC  H18Y21491   1.832   6.987   8.680 -0.1893 -0.5139 -0.9446
  186SLPC  H18Z21492   1.744   7.098   8.561 -1.9375  0.0187  2.2253
  187SLPC     N21493   2.744   3.459   6.364  0.1050 -0.5622 -0.0761
  187SLPC   C1321494   2.673   3.548   6.269 -0.0184  0.3276 -0.1017
  187SLPC  H13A21495   2.587   3.592   6.317 -0.4469  1.5251 -1.9393
  187SLPC  H13B21496   2.739   3.626   6.231 -0.2241 -0.4004 -2.0017
  187SLPC  H13C21497   2.629   3.499   6.184  1.3035 -1.6898  0.3527
  187SLPC   C1421498   2.798   3.535   6.475 -0.1290  0.5696 -0.1918
  187SLPC  H14A21499   2.718   3.582   6.530 -0.7345 -0.0877 -0.5026
  187SLPC  H14B21500   2.850   3.471   6.544  0.7606 -0.5588 -1.8778
  187SLPC  H14C21501   2.863   3.616   6.446 -1.5045  1.6361 -0.3483
  187SLPC   C1521502   2.863   3.408   6.287  0.9961  0.4844 -0.8018
  187SLPC  H15A21503   2.828   3.361   6.197  0.2432  0.5833 -0.5634
  187SLPC  H15B21504   2.932   3.487   6.264  1.5923  1.1354  2.8567
  187SLPC  H15C21505   2.919   3.340   6.350  1.2084 -0.1593 -1.6786
  187SLPC   C1221506   2.655   3.344   6.417  0.2202  0.2502  0.3049
  187SLPC  H12A21507   2.725   3.274   6.461 -0.1989 -1.6105 -1.9173
  187SLPC  H12B21508   2.618   3.290   6.331  0.9848  0.9563 -0.4769
  187SLPC   C1121509   2.541   3.360   6.520  0.6811 -0.8056 -0.5649
  187SLPC  H11A21510   2.591   3.392   6.614 -2.8642  1.0920  0.7848
  187SLPC  H11B21511   2.488   3.264   6.539 -0.9275 -0.1466 -1.5980
  187SLPC     P21512   2.426   3.600   6.558 -0.0030  0.0274  0.3621
  187SLPC   O1321513   2.555   3.660   6.594  0.5062  0.0679 -0.7294
  187SLPC   O1421514   2.330   3.679   6.474  0.6992  0.8109  0.0571
  187SLPC   O1221515   2.450   3.464   6.477  0.3628 -0.0740 -0.0082
  187SLPC   O1121516   2.348   3.560   6.692 -0.1555  0.4799  0.7613
  187SLPC    C121517   2.217   3.503   6.721 -0.5862  0.6917 -0.2894
  187SLPC    HA21518   2.143   3.585   6.730  0.4261  1.4327  1.3903
  187SLPC    HB21519   2.186   3.440   6.635  2.4522 -1.0650 -0.1821
  187SLPC    C221520   2.217   3.408   6.837 -0.6663  0.3152 -0.1799
  187SLPC    HS21521   2.114   3.368   6.848 -1.1584  1.4293 -0.6048
  187SLPC   O2121522   2.256   3.482   6.957 -0.0810 -0.3274  0.5252
  187SLPC   C2121523   2.170   3.574   6.998 -0.7118  0.4318 -0.4470
  187SLPC   O2221524   2.059   3.596   6.953 -0.2332  0.3338  0.3312
  187SLPC   C2221525   2.227   3.633   7.131 -0.2262  0.3158  0.7388
  187SLPC   H2R21526   2.305   3.567   7.175 -0.4508 -0.4857 -0.0435
  187SLPC   H2S21527   2.276   3.731   7.110  0.0069 -0.1051 -0.7698
  187SLPC    C321528   2.311   3.290   6.805  0.1772  0.1387 -0.0094
  187SLPC    HX21529   2.416   3.323   6.816 -0.2728  1.9421 -0.9410
  187SLPC    HY21530   2.278   3.240   6.711  0.3853 -0.4108  0.2060
  187SLPC   O3121531   2.307   3.196   6.911  0.0557 -0.5878  0.3940
  187SLPC   C3121532   2.386   3.094   6.897  0.2267 -0.1532 -0.1352
  187SLPC   O3221533   2.459   3.075   6.802 -0.0009 -0.0457 -0.2749
  187SLPC   C3221534   2.359   2.997   7.014  0.0115 -0.0570 -0.2424
  187SLPC   H2X21535   2.307   2.916   6.959  1.1492 -0.8084 -0.2347
  187SLPC   H2Y21536   2.286   3.041   7.085  0.7136  0.3610  0.2332
  187SLPC   C2321537   2.121   3.655   7.241 -0.1826 -0.3380  0.2292
  187SLPC   H3R21538   2.086   3.561   7.289  0.0070  0.5543  2.1349
  187SLPC   H3S21539   2.030   3.706   7.204  0.2372 -2.4814 -4.1468
  187SLPC   C2421540   2.180   3.742   7.352  0.0918 -0.1076  0.2050
  187SLPC   H4R21541   2.212   3.835   7.300 -2.4379  1.4240  1.2973
  187SLPC   H4S21542   2.261   3.680   7.397  0.8397  1.3358  0.9105
  187SLPC   C2521543   2.078   3.783   7.461  0.1961 -0.0437 -0.1385
  187SLPC   H5R21544   2.047   3.695   7.521  1.4933  0.0873  0.7361
  187SLPC   H5S21545   1.990   3.827   7.410 -0.3527  0.0808  0.9138
  187SLPC   C2621546   2.139   3.904   7.546  0.3577 -0.4294  0.2235
  187SLPC   H6R21547   2.126   3.982   7.468 -2.6852 -1.3897 -0.2840
  187SLPC   H6S21548   2.248   3.893   7.566 -0.1930 -1.8370  2.6941
  187SLPC   C2721549   2.067   3.922   7.687  0.5407 -0.1756  0.9965
  187SLPC   H7R21550   1.962   3.912   7.652 -0.2340  6.6096  0.8078
  187SLPC   H7S21551   2.082   4.028   7.715 -0.5287  0.4766 -0.7909
  187SLPC   C2821552   2.113   3.828   7.799 -0.3697  0.4362 -0.3892
  187SLPC   H8R21553   2.223   3.838   7.814 -0.4373  1.2941 -0.4481
  187SLPC   H8S21554   2.106   3.724   7.760  0.4540  0.4240 -0.5162
  187SLPC   C2921555   2.042   3.851   7.929 -0.1910 -0.9684 -0.2421
  187SLPC   H9R21556   1.956   3.792   7.965  0.0590 -1.3052 -0.1944
  187SLPC  C21021557   2.095   3.933   8.023  0.0098 -0.2160 -0.3321
  187SLPC  H10R21558   2.045   3.941   8.121 -0.0840 -2.6575 -0.1525
  187SLPC  C21121559   2.216   4.012   8.006 -1.1919 -0.5148  0.2341
  187SLPC  H11R21560   2.229   4.103   8.069  2.7648 -0.3570 -0.6671
  187SLPC  H11S21561   2.221   4.052   7.903  2.2895 -0.3168  0.4125
  187SLPC  C21221562   2.346   3.932   8.022 -0.4180 -0.2095  0.2599
  187SLPC  H12R21563   2.379   3.886   7.928 -0.6305  2.1629 -1.0035
  187SLPC  C21321564   2.410   3.896   8.137 -0.6860  0.0517 -0.5126
  187SLPC  H13R21565   2.499   3.830   8.136 -1.4051 -1.0189  2.0166
  187SLPC  C21421566   2.369   3.931   8.278  0.5791  0.2981  0.9160
  187SLPC  H14R21567   2.348   3.837   8.334  2.1226 -1.3757 -1.2494
  187SLPC  H14S21568   2.286   4.005   8.283  2.4110  2.3119  1.9553
  187SLPC  C21521569   2.491   4.001   8.343  0.5652 -0.5079  0.3135
  187SLPC  H15R21570   2.511   4.074   8.262 -4.2242  0.0377 -0.5723
  187SLPC  H15S21571   2.576   3.930   8.343 -0.9461 -2.3886  1.4961
  187SLPC  C21621572   2.452   4.083   8.471  0.0179  0.4408 -0.1733
  187SLPC  H16R21573   2.415   4.011   8.548  1.6654  0.1680  0.3854
  187SLPC  H16S21574   2.372   4.157   8.448 -1.6222 -1.2735 -0.1141
  187SLPC  C21721575   2.580   4.161   8.521  0.0129 -0.1044 -0.2163
  187SLPC  H17R21576   2.542   4.216   8.610  0.2539  0.3710 -0.4119
  187SLPC  H17S21577   2.613   4.219   8.433 -0.0034  1.6577  0.9227
  187SLPC  C21821578   2.702   4.072   8.564 -0.0284  0.2021  0.1143
  187SLPC  H18R21579   2.678   3.998   8.642  1.4463 -1.0694 -0.6122
  187SLPC  H18S21580   2.788   4.129   8.606 -0.7898  0.3091  1.5353
  187SLPC  H18T21581   2.741   4.007   8.482  2.1157 -1.0293  2.0478
  187SLPC   C3321582   2.496   2.968   7.072  0.3687 -1.1069 -0.4005
  187SLPC   H3X21583   2.544   3.047   7.135  0.2332 -1.1882 -0.1936
  187SLPC   H3Y21584   2.575   2.938   7.001  1.0082  0.8433 -0.5495
  187SLPC   C3421585   2.481   2.854   7.176 -0.4473  0.0990  0.4625
  187SLPC   H4X21586   2.459   2.755   7.131  1.2291 -0.2845  0.4497
  187SLPC   H4Y21587   2.407   2.882   7.253  0.0893  1.5904  0.4594
  187SLPC   C3521588   2.613   2.832   7.248  0.8810  0.4518  0.1602
  187SLPC   H5X21589   2.660   2.931   7.264  1.8734 -0.1796  1.2169
  187SLPC   H5Y21590   2.693   2.784   7.188  1.1077  1.2047 -0.1312
  187SLPC   C3621591   2.594   2.747   7.376 -0.0818 -0.1350  0.2967
  187SLPC   H6X21592   2.697   2.723   7.410  0.2292  2.5105  1.4066
  187SLPC   H6Y21593   2.549   2.652   7.342  0.5653  0.3925 -2.1472
  187SLPC   C3721594   2.519   2.813   7.484  0.9787  0.0704  0.2034
  187SLPC   H7X21595   2.517   2.924   7.475  0.1823  0.0635  0.2717
  187SLPC   H7Y21596   2.410   2.804   7.465  0.9414  1.3951 -0.2586
  187SLPC   C3821597   2.572   2.776   7.624  0.1385 -0.2105 -0.3235
  187SLPC   H8X21598   2.683   2.777   7.625  0.1195  1.1081 -0.0294
  187SLPC   H8Y21599   2.550   2.668   7.641  1.3532 -0.4091  0.0615
  187SLPC   C3921600   2.513   2.847   7.752 -0.0348  0.4755 -0.6829
  187SLPC   H9X21601   2.402   2.851   7.756 -0.0618 -0.5954  0.0560
  187SLPC   H9Y21602   2.538   2.954   7.765 -0.5884  0.5235  0.0412
  187SLPC  C31021603   2.557   2.790   7.886  0.6749 -0.1256 -0.5908
  187SLPC  H10X21604   2.666   2.784   7.902  0.7033 -2.1223 -1.4184
  187SLPC  H10Y21605   2.518   2.686   7.895 -1.0801  0.4436 -1.3387
  187SLPC  C31121606   2.499   2.860   8.015  0.2601  1.0499 -0.0999
  187SLPC  H11X21607   2.392   2.834   8.027  0.0156  1.7302 -0.7720
  187SLPC  H11Y21608   2.487   2.970   8.010  1.3815  1.1477 -0.8334
  187SLPC  C31221609   2.575   2.820   8.141 -0.1336 -0.1758  0.1817
  187SLPC  H12X21610   2.543   2.883   8.227  0.9087 -1.0487  1.2222
  187SLPC  H12Y21611   2.685   2.833   8.129 -0.1209  0.0530  0.5324
  187SLPC  C31321612   2.545   2.671   8.191 -0.0288 -0.5126  0.8170
  187SLPC  H13X21613   2.573   2.594   8.116 -0.4952  1.1214 -1.1111
  187SLPC  H13Y21614   2.437   2.666   8.214 -0.7251  1.7509 -1.6390
  187SLPC  C31421615   2.613   2.633   8.322 -0.2665  0.0477  1.0561
  187SLPC  H14X21616   2.627   2.523   8.323 -1.8119 -0.1654  2.1573
  187SLPC  H14Y21617   2.552   2.661   8.411 -1.3805  0.0931  0.2944
  187SLPC  C31521618   2.744   2.707   8.348  0.2452  0.0147  0.4944
  187SLPC  H15X21619   2.714   2.813   8.356 -0.6500 -0.2328  0.4212
  187SLPC  H15Y21620   2.809   2.693   8.258 -0.3268 -0.9831  0.2252
  187SLPC  C31621621   2.825   2.650   8.464 -0.3596 -0.7543  0.1823
  187SLPC  H16X21622   2.844   2.543   8.441  0.1794  0.0171 -3.2136
  187SLPC  H16Y21623   2.780   2.657   8.565 -2.0333  1.0049 -0.6296
  187SLPC  C31721624   2.966   2.719   8.467 -0.5471  0.1757 -0.2359
  187SLPC  H17X21625   2.963   2.827   8.491  0.4544 -0.5096  3.2930
  187SLPC  H17Y21626   3.004   2.714   8.363  2.6560  2.5529  0.7602
  187SLPC  C31821627   3.070   2.651   8.550  0.0978 -0.5908 -0.2620
  187SLPC  H18X21628   3.047   2.666   8.658  1.5326  0.4591 -0.0868
  187SLPC  H18Y21629   3.167   2.701   8.529  0.1568 -0.7992 -0.4924
  187SLPC  H18Z21630   3.073   2.542   8.525 -2.0744 -1.0212  1.2218
  188SLPC     N21631   3.608   4.768   6.224 -0.0889  0.9838 -0.3252
  188SLPC   C1321632   3.476   4.826   6.195 -0.5439 -0.0054 -0.5758
  188SLPC  H13A21633   3.425   4.757   6.130  1.4093  0.3408 -2.5133
  188SLPC  H13B21634   3.432   4.840   6.293  0.6344 -3.1225  0.4713
  188SLPC  H13C21635   3.484   4.923   6.149  0.8566  0.3492  0.4109
  188SLPC   C1421636   3.697   4.886   6.258 -0.0122  0.4012 -0.0461
  188SLPC  H14A21637   3.656   4.923   6.350 -0.3506  0.7965 -0.3555
  188SLPC  H14B21638   3.797   4.853   6.281  0.3840 -0.9640 -3.3861
  188SLPC  H14C21639   3.711   4.952   6.174  0.0908  0.4698  0.0253
  188SLPC   C1521640   3.670   4.703   6.102  0.8139 -0.3284 -0.1187
  188SLPC  H15A21641   3.763   4.655   6.129  0.8707 -0.2172 -0.1150
  188SLPC  H15B21642   3.602   4.642   6.045 -0.5482  0.8764  0.1885
  188SLPC  H15C21643   3.694   4.788   6.039  3.0269  0.8619  2.2133
  188SLPC   C1221644   3.607   4.659   6.327 -0.4203 -0.4749 -0.0735
  188SLPC  H12A21645   3.536   4.585   6.293 -0.9482  0.4806 -1.0582
  188SLPC  H12B21646   3.562   4.699   6.416  1.5586  2.1353 -0.1918
  188SLPC   C1121647   3.734   4.591   6.384  0.3703 -0.4178  0.2249
  188SLPC  H11A21648   3.759   4.519   6.303 -2.4558 -1.8437  0.5620
  188SLPC  H11B21649   3.697   4.536   6.473 -3.7098 -0.3138 -1.3036
  188SLPC     P21650   3.848   4.731   6.568 -0.1283 -0.1420 -0.2462
  188SLPC   O1321651   3.923   4.617   6.625  0.7455  0.0928 -0.9041
  188SLPC   O1421652   3.911   4.861   6.586  0.1250  0.0717 -0.3467
  188SLPC   O1221653   3.832   4.692   6.416 -0.0469 -0.8138  0.0059
  188SLPC   O1121654   3.696   4.732   6.607 -0.2053 -0.1509  0.4032
  188SLPC    C121655   3.653   4.767   6.739  0.1953  0.1569  0.1291
  188SLPC    HA21656   3.566   4.705   6.769 -1.5379  1.9459 -1.0590
  188SLPC    HB21657   3.737   4.757   6.810  0.1783 -0.9748  0.0048
  188SLPC    C221658   3.602   4.912   6.743  0.0432  0.1101  0.3931
  188SLPC    HS21659   3.693   4.972   6.720  0.4020 -0.5165  0.1897
  188SLPC   O2121660   3.555   4.941   6.877  0.2422 -0.1693 -0.2815
  188SLPC   C2121661   3.549   5.067   6.908 -0.2693 -0.6255 -0.1686
  188SLPC   O2221662   3.600   5.158   6.843  0.6778 -0.0163 -0.4863
  188SLPC   C2221663   3.477   5.089   7.044 -0.4599  0.4255 -0.5160
  188SLPC   H2R21664   3.369   5.067   7.033 -0.2044 -1.2999  0.1839
  188SLPC   H2S21665   3.521   5.022   7.121 -0.7351  1.0507  0.1910
  188SLPC    C321666   3.497   4.927   6.630  0.0245 -0.4511 -0.4389
  188SLPC    HX21667   3.421   4.849   6.652 -1.4254  1.0335 -0.1145
  188SLPC    HY21668   3.535   4.902   6.529  0.5103  1.3564 -0.7057
  188SLPC   O3121669   3.428   5.052   6.627 -0.1486  0.2297  0.2385
  188SLPC   C3121670   3.487   5.144   6.548 -0.5245  0.0475 -0.1681
  188SLPC   O3221671   3.584   5.126   6.479 -0.1965 -0.0690  0.0971
  188SLPC   C3221672   3.427   5.288   6.578 -0.0127  0.2790 -0.4809
  188SLPC   H2X21673   3.399   5.331   6.479 -0.3382 -1.0239 -0.9700
  188SLPC   H2Y21674   3.515   5.343   6.617  0.1352  0.5832 -1.2327
  188SLPC   C2321675   3.498   5.228   7.109 -0.2998  0.1765 -0.0112
  188SLPC   H3R21676   3.457   5.304   7.040 -1.1083  0.5442  0.8615
  188SLPC   H3S21677   3.606   5.252   7.110 -0.3002  0.1870 -0.3539
  188SLPC   C2421678   3.429   5.243   7.248  0.7450  0.5480 -0.2503
  188SLPC   H4R21679   3.337   5.181   7.249  0.8547  0.3559 -1.1569
  188SLPC   H4S21680   3.397   5.347   7.266  0.8025  0.5958 -0.4224
  188SLPC   C2521681   3.518   5.202   7.362  0.6570  0.5221  0.2708
  188SLPC   H5R21682   3.602   5.274   7.364  0.1384  1.2044 -1.6292
  188SLPC   H5S21683   3.557   5.099   7.342  0.3397  0.6570 -1.0987
  188SLPC   C2621684   3.458   5.194   7.509  0.2795  0.2204 -1.0909
  188SLPC   H6R21685   3.536   5.157   7.579 -1.0341 -0.5977 -0.0517
  188SLPC   H6S21686   3.386   5.111   7.518  1.7504 -0.8273  1.5064
  188SLPC   C2721687   3.377   5.316   7.557 -0.3414 -0.1865  0.4100
  188SLPC   H7R21688   3.290   5.320   7.488 -0.4512  3.7053  0.6802
  188SLPC   H7S21689   3.445   5.402   7.544 -3.0814  1.8002 -1.3588
  188SLPC   C2821690   3.329   5.290   7.697  0.4177  0.2963  0.0266
  188SLPC   H8R21691   3.302   5.182   7.699 -1.9043  0.8036 -1.5412
  188SLPC   H8S21692   3.236   5.345   7.719  0.8274  0.6057  1.0146
  188SLPC   C2921693   3.434   5.314   7.810 -0.2294  0.9899  0.1797
  188SLPC   H9R21694   3.483   5.412   7.808 -1.2804  1.5058 -0.9866
  188SLPC  C21021695   3.450   5.230   7.915 -0.1984  0.6206  0.0266
  188SLPC  H10R21696   3.521   5.259   7.994  0.8521 -2.9144  0.4505
  188SLPC  C21121697   3.377   5.103   7.947  0.1206 -0.3649 -0.0382
  188SLPC  H11R21698   3.412   5.057   8.042  0.0583 -1.4213 -0.5209
  188SLPC  H11S21699   3.377   5.027   7.866 -2.9134  0.9644 -1.3913
  188SLPC  C21221700   3.229   5.131   7.969  0.3696  0.7065  0.9019
  188SLPC  H12R21701   3.194   5.235   7.973 -1.4268  0.1578 -0.4466
  188SLPC  C21321702   3.143   5.028   7.984  0.1507 -0.2076  0.0474
  188SLPC  H13R21703   3.034   5.040   7.991  0.3828  0.9342  2.1205
  188SLPC  C21421704   3.177   4.878   7.977  0.3749 -0.4597 -0.0167
  188SLPC  H14R21705   3.276   4.845   7.937  0.3889 -0.8415  0.3348
  188SLPC  H14S21706   3.116   4.828   7.899  0.7343  0.6627 -1.0273
  188SLPC  C21521707   3.157   4.805   8.114  0.2577  0.5105  0.1930
  188SLPC  H15R21708   3.178   4.698   8.094 -0.6071  0.6627 -1.5894
  188SLPC  H15S21709   3.046   4.813   8.122  0.2249  1.3907 -1.0744
  188SLPC  C21621710   3.249   4.850   8.223 -0.4093  0.4807 -0.0289
  188SLPC  H16R21711   3.239   4.959   8.239  1.4623  0.3812  2.0401
  188SLPC  H16S21712   3.356   4.821   8.221 -0.6869 -0.5589 -0.8247
  188SLPC  C21721713   3.196   4.793   8.363  0.1585 -0.0148 -0.5299
  188SLPC  H17R21714   3.185   4.684   8.352 -0.0234 -0.0786  0.2363
  188SLPC  H17S21715   3.087   4.817   8.369  0.0963 -0.2980 -0.5510
  188SLPC  C21821716   3.270   4.834   8.492 -0.4110  0.0852  0.3943
  188SLPC  H18R21717   3.255   4.944   8.504 -1.3535  0.2313 -1.9940
  188SLPC  H18S21718   3.381   4.825   8.481 -0.2771  0.8165  1.1125
  188SLPC  H18T21719   3.237   4.780   8.583  0.1468 -2.8781 -1.1246
  188SLPC   C3321720   3.304   5.292   6.669 -0.5765 -0.2334  0.0760
  188SLPC   H3X21721   3.322   5.242   6.766 -1.8988 -0.6809  0.1059
  188SLPC   H3Y21722   3.224   5.238   6.613 -1.1381 -1.3181  1.8831
  188SLPC   C3421723   3.259   5.434   6.700  0.2292 -0.4157 -0.0572
  188SLPC   H4X21724   3.220   5.487   6.611 -2.1100 -1.8910  0.0445
  188SLPC   H4Y21725   3.354   5.490   6.715  0.7098 -1.0963 -0.4958
  188SLPC   C3521726   3.151   5.438   6.816 -0.1868 -0.1589  0.1809
  188SLPC   H5X21727   3.087   5.348   6.800 -1.9469  0.9786  0.7302
  188SLPC   H5Y21728   3.091   5.528   6.791 -1.0440 -0.8634 -0.3519
  188SLPC   C3621729   3.193   5.458   6.962  0.1940 -0.2850 -0.4785
  188SLPC   H6X21730   3.245   5.556   6.959 -1.5573  0.8215  2.8154
  188SLPC   H6Y21731   3.268   5.384   6.997  1.1825  0.1732 -1.6044
  188SLPC   C3721732   3.073   5.465   7.055 -0.6809 -0.4480 -0.6094
  188SLPC   H7X21733   2.999   5.382   7.048 -0.5202 -0.8789  2.0801
  188SLPC   H7Y21734   3.014   5.558   7.038  0.3073 -0.0135 -1.7173
  188SLPC   C3821735   3.119   5.450   7.205 -0.7094  0.5167  0.6292
  188SLPC   H8X21736   3.190   5.533   7.225 -0.7460  0.0167  3.0573
  188SLPC   H8Y21737   3.166   5.350   7.222  0.0813  0.0237 -3.8828
  188SLPC   C3921738   3.000   5.468   7.296  0.0412 -0.1803  0.2833
  188SLPC   H9X21739   2.938   5.379   7.273  0.7679 -1.2213  2.2694
  188SLPC   H9Y21740   2.941   5.559   7.274 -0.6785 -0.7170 -0.0441
  188SLPC  C31021741   3.037   5.478   7.447  0.1599  0.3370 -0.0794
  188SLPC  H10X21742   3.096   5.570   7.465 -2.0752  1.1537  3.6711
  188SLPC  H10Y21743   3.088   5.386   7.484  2.0067  0.8445 -1.3059
  188SLPC  C31121744   2.914   5.516   7.530 -0.0030  0.6997 -0.5721
  188SLPC  H11X21745   2.837   5.438   7.518  1.6468 -1.3090  1.5296
  188SLPC  H11Y21746   2.879   5.617   7.500 -0.0405  1.3149  1.4665
  188SLPC  C31221747   2.940   5.519   7.681  0.2712 -0.1631  0.7533
  188SLPC  H12X21748   3.002   5.608   7.704 -0.5692  1.8276 -4.0589
  188SLPC  H12Y21749   3.000   5.429   7.705  1.9291  1.1084  1.4723
  188SLPC  C31321750   2.819   5.499   7.780 -0.3078 -0.1442  0.5266
  188SLPC  H13X21751   2.739   5.427   7.753  0.4588 -0.4028 -1.1490
  188SLPC  H13Y21752   2.764   5.594   7.796 -0.6980 -0.4511  1.0246
  188SLPC  C31421753   2.866   5.464   7.920  0.5417  0.5654  0.0098
  188SLPC  H14X21754   2.957   5.525   7.937  0.1520  1.2549 -0.3567
  188SLPC  H14Y21755   2.896   5.358   7.937  0.4680  0.7206  1.1406
  188SLPC  C31521756   2.765   5.505   8.034 -0.2738  0.4030 -0.1911
  188SLPC  H15X21757   2.669   5.457   8.007 -0.6677 -0.4245  2.5368
  188SLPC  H15Y21758   2.751   5.614   8.019  2.6556  0.9158  0.5015
  188SLPC  C31621759   2.810   5.492   8.176 -0.0660 -0.1134 -0.1019
  188SLPC  H16X21760   2.891   5.565   8.197 -0.7604  0.7203 -0.2652
  188SLPC  H16Y21761   2.845   5.388   8.192  0.4050  0.0891  0.1914
  188SLPC  C31721762   2.702   5.512   8.285 -0.0759  0.4869  0.4633
  188SLPC  H17X21763   2.648   5.602   8.249 -1.7231  0.0835  1.8488
  188SLPC  H17Y21764   2.744   5.524   8.388 -2.2292  0.0012  1.4203
  188SLPC  C31821765   2.604   5.394   8.289  0.2526  0.3058 -0.1055
  188SLPC  H18X21766   2.566   5.373   8.186 -1.6076  2.4096  0.1166
  188SLPC  H18Y21767   2.524   5.432   8.356  2.1442  2.6916  0.8665
  188SLPC  H18Z21768   2.660   5.306   8.327 -0.3765  0.5692  1.4389
  189SLPC     N21769   5.882   0.754   6.250  0.7443  0.3046  0.3143
  189SLPC   C1321770   5.880   0.885   6.184 -0.0469 -0.6761 -0.3758
  189SLPC  H13A21771   5.911   0.970   6.243  1.0016 -1.9013  0.8505
  189SLPC  H13B21772   5.954   0.889   6.105  1.4503  0.9776  1.0772
  189SLPC  H13C21773   5.782   0.910   6.147 -0.5526 -2.0781  0.0109
  189SLPC   C1421774   6.025   0.712   6.269  0.2807  0.0258 -0.5379
  189SLPC  H14A21775   6.025   0.618   6.321  2.8047  1.3560  1.9876
  189SLPC  H14B21776   6.061   0.684   6.171  0.4150  1.1803 -0.8207
  189SLPC  H14C21777   6.093   0.786   6.309 -0.7766  1.6452 -1.6728
  189SLPC   C1521778   5.825   0.654   6.150  0.2490 -0.6794 -0.6679
  189SLPC  H15A21779   5.890   0.637   6.066  2.7653  0.0430  1.0773
  189SLPC  H15B21780   5.803   0.563   6.204 -0.1912 -0.0503  0.2248
  189SLPC  H15C21781   5.725   0.679   6.117  0.0128  1.2047  1.3889
  189SLPC   C1221782   5.800   0.756   6.375 -0.0181  0.1054  0.0871
  189SLPC  H12A21783   5.706   0.801   6.345 -0.3542  0.9839  2.3550
  189SLPC  H12B21784   5.839   0.830   6.443 -1.1488  1.6438 -0.8804
  189SLPC   C1121785   5.773   0.622   6.441  0.1322  0.5051 -0.1609
  189SLPC  H11A21786   5.722   0.644   6.537  1.9544 -1.3114  1.2678
  189SLPC  H11B21787   5.861   0.556   6.460 -1.5064 -1.7364 -0.1246
  189SLPC     P21788   5.536   0.570   6.344  0.1603 -0.2732  0.1434
  189SLPC   O1321789   5.523   0.713   6.328  0.1247 -0.2065 -0.1386
  189SLPC   O1421790   5.473   0.492   6.240  0.1424  0.3916 -0.8247
  189SLPC   O1221791   5.687   0.541   6.358 -0.0867 -0.1498  0.0503
  189SLPC   O1121792   5.485   0.527   6.489 -0.1156 -0.5451 -0.1292
  189SLPC    C121793   5.436   0.394   6.504 -0.2754  0.0106  0.5865
  189SLPC    HA21794   5.349   0.365   6.441  0.7191 -1.1572 -0.2561
  189SLPC    HB21795   5.518   0.323   6.481  1.5605  2.1965  0.2702
  189SLPC    C221796   5.415   0.354   6.653  0.2166 -0.3585  0.1967
  189SLPC    HS21797   5.329   0.415   6.690  1.0989  0.5063  0.8499
  189SLPC   O2121798   5.528   0.401   6.730  0.5454 -0.1810  0.2524
  189SLPC   C2121799   5.642   0.339   6.726  0.4612 -0.6120  0.5299
  189SLPC   O2221800   5.673   0.243   6.656  0.5119  0.7799  0.1134
  189SLPC   C2221801   5.743   0.415   6.815 -0.0011  0.0187  0.2793
  189SLPC   H2R21802   5.827   0.347   6.839 -0.9181 -2.3112 -2.7913
  189SLPC   H2S21803   5.796   0.490   6.753  2.8889 -0.8060  1.6659
  189SLPC    C321804   5.377   0.209   6.685 -0.5986 -0.5502 -0.5398
  189SLPC    HX21805   5.435   0.149   6.612 -0.5281  1.1660 -1.9345
  189SLPC    HY21806   5.273   0.187   6.653 -0.8807 -0.3067  0.1809
  189SLPC   O3121807   5.404   0.164   6.819  0.6008 -0.1611 -0.3079
  189SLPC   C3121808   5.303   0.202   6.902 -0.3406  0.4557  0.1388
  189SLPC   O3221809   5.203   0.264   6.869  0.3657  0.2935  0.4122
  189SLPC   C3221810   5.329   0.155   7.048 -0.0444  0.2384 -0.2883
  189SLPC   H2X21811   5.423   0.207   7.077  0.8298  0.1065 -2.7292
  189SLPC   H2Y21812   5.364   0.049   7.043  2.3235  0.8045  2.7064
  189SLPC   C2321813   5.686   0.485   6.937 -0.0975  0.3329  0.3834
  189SLPC   H3R21814   5.606   0.558   6.912  0.9269  1.1068 -0.6979
  189SLPC   H3S21815   5.766   0.545   6.986 -0.1313  1.3196 -0.7447
  189SLPC   C2421816   5.654   0.384   7.048 -0.2147  0.7322 -0.1370
  189SLPC   H4R21817   5.748   0.338   7.084  0.9531  0.5721 -3.2768
  189SLPC   H4S21818   5.599   0.299   7.004  0.9825 -0.0068 -0.2257
  189SLPC   C2521819   5.568   0.448   7.164 -0.2276 -0.3174 -0.5457
  189SLPC   H5R21820   5.460   0.438   7.140 -0.2377 -1.1033 -0.1928
  189SLPC   H5S21821   5.595   0.556   7.162  2.2749 -0.9092 -1.1654
  189SLPC   C2621822   5.610   0.390   7.300  0.6990 -0.0665 -0.3078
  189SLPC   H6R21823   5.704   0.440   7.333 -0.6100  2.4414 -0.2863
  189SLPC   H6S21824   5.628   0.281   7.287  2.1289  0.2025 -0.7459
  189SLPC   C2721825   5.512   0.417   7.417 -0.1826  0.3752  0.0812
  189SLPC   H7R21826   5.412   0.417   7.370 -1.3591  3.0180  2.4299
  189SLPC   H7S21827   5.547   0.514   7.457  1.6778  0.1244 -0.8572
  189SLPC   C2821828   5.530   0.325   7.541  0.3693  0.1626 -0.3103
  189SLPC   H8R21829   5.495   0.223   7.517  0.8773  0.0178 -0.4430
  189SLPC   H8S21830   5.458   0.359   7.618  2.9153  1.4869  1.5791
  189SLPC   C2921831   5.662   0.334   7.614 -0.5349 -0.6710  0.0850
  189SLPC   H9R21832   5.748   0.359   7.550  0.6432 -0.0101  1.9230
  189SLPC  C21021833   5.685   0.304   7.744  0.9382  0.5081  1.1484
  189SLPC  H10R21834   5.790   0.311   7.778  1.9651  0.3398 -1.8611
  189SLPC  C21121835   5.586   0.265   7.850  0.1513  0.0156 -0.2902
  189SLPC  H11R21836   5.596   0.157   7.875  0.7646  0.0814 -0.2394
  189SLPC  H11S21837   5.481   0.281   7.819  0.4833 -2.2466 -2.6959
  189SLPC  C21221838   5.621   0.348   7.972  0.6897  0.4022  0.1850
  189SLPC  H12R21839   5.727   0.339   8.001  0.2574 -1.1671  1.3467
  189SLPC  C21321840   5.538   0.426   8.046 -0.5534 -0.3842 -0.2989
  189SLPC  H13R21841   5.576   0.481   8.133  0.6259 -0.4910 -0.7357
  189SLPC  C21421842   5.394   0.455   8.030  0.0233  0.5312 -0.5352
  189SLPC  H14R21843   5.337   0.360   8.030 -1.5415  1.4381 -1.0442
  189SLPC  H14S21844   5.389   0.492   7.925 -0.6325 -0.8315 -0.9928
  189SLPC  C21521845   5.317   0.561   8.119  0.3578  0.2680  0.5434
  189SLPC  H15R21846   5.222   0.576   8.063  1.9527  2.1202 -1.7695
  189SLPC  H15S21847   5.367   0.660   8.127 -1.0636  1.0024  0.4163
  189SLPC  C21621848   5.275   0.515   8.262  0.2117 -0.0821 -0.2413
  189SLPC  H16R21849   5.363   0.464   8.306  0.5418 -0.6168 -1.4802
  189SLPC  H16S21850   5.200   0.436   8.245 -0.8340  1.0119 -0.8309
  189SLPC  C21721851   5.218   0.629   8.348  0.5253 -0.5620  0.2056
  189SLPC  H17R21852   5.166   0.578   8.432  1.3519 -0.2171  0.9369
  189SLPC  H17S21853   5.140   0.687   8.293  0.4925  1.1724  2.0110
  189SLPC  C21821854   5.325   0.722   8.406 -0.3401 -0.1346 -0.2788
  189SLPC  H18R21855   5.269   0.796   8.467  2.4365  0.1186  2.0606
  189SLPC  H18S21856   5.392   0.774   8.334 -2.0639  1.3205 -0.8720
  189SLPC  H18T21857   5.389   0.671   8.481  0.5840  0.8263 -0.4047
  189SLPC   C3321858   5.204   0.170   7.138  0.8295 -0.0809  0.2191
  189SLPC   H3X21859   5.105   0.144   7.096  0.4606  3.6220 -1.4034
  189SLPC   H3Y21860   5.193   0.273   7.178  1.6157  0.3650 -0.7099
  189SLPC   C3421861   5.212   0.076   7.261  0.2113  0.1307  0.8121
  189SLPC   H4X21862   5.317   0.044   7.278 -0.4669 -1.7843  1.5438
  189SLPC   H4Y21863   5.160  -0.011   7.216  0.9044  1.1331 -2.0440
  189SLPC   C3521864   5.159   0.136   7.389 -0.4889 -0.6604  0.1432
  189SLPC   H5X21865   5.052   0.161   7.375  0.4923  1.4153 -4.7768
  189SLPC   H5Y21866   5.214   0.229   7.418 -1.9061  0.4077 -0.5839
  189SLPC   C3621867   5.174   0.052   7.511  0.3355  0.5591  0.7789
  189SLPC   H6X21868   5.284   0.034   7.506  0.1482 -1.4400  2.6315
  189SLPC   H6Y21869   5.122  -0.045   7.497  0.9392 -0.0191  2.4459
  189SLPC   C3721870   5.153   0.119   7.647  0.2722  0.0310 -0.2107
  189SLPC   H7X21871   5.048   0.156   7.654 -0.5583 -2.0625 -1.2551
  189SLPC   H7Y21872   5.226   0.202   7.662  0.6835 -0.5053  0.8079
  189SLPC   C3821873   5.191   0.028   7.766  0.4694 -0.0230 -0.6393
  189SLPC   H8X21874   5.299   0.002   7.761  0.5548 -0.1461  1.4742
  189SLPC   H8Y21875   5.141  -0.071   7.757 -1.8988  0.9548  1.5155
  189SLPC   C3921876   5.156   0.087   7.901  0.3060  0.1337 -0.2879
  189SLPC   H9X21877   5.049   0.093   7.931  0.4750  0.2676  0.3025
  189SLPC   H9Y21878   5.201   0.189   7.906  2.0837 -0.5729 -1.4672
  189SLPC  C31021879   5.225   0.018   8.017 -0.1136 -0.3545  0.1968
  189SLPC  H10X21880   5.333   0.035   7.998 -0.2388 -0.8109 -0.9105
  189SLPC  H10Y21881   5.210  -0.092   8.013 -1.5993 -0.1752  0.5640
  189SLPC  C31121882   5.203   0.076   8.156  0.5318 -0.4514  0.4871
  189SLPC  H11X21883   5.235   0.182   8.164  1.8576 -0.8207  0.2176
  189SLPC  H11Y21884   5.274   0.019   8.220 -0.2284 -1.4500  0.4583
  189SLPC  C31221885   5.059   0.065   8.199  0.8386  0.8403  0.9053
  189SLPC  H12X21886   5.008  -0.033   8.190 -0.0517  1.2823  1.0735
  189SLPC  H12Y21887   5.002   0.145   8.149  1.1854  0.7162  0.3076
  189SLPC  C31321888   5.045   0.082   8.350  0.9881  0.3247  0.8948
  189SLPC  H13X21889   4.939   0.097   8.378  0.5918 -1.0808  0.1952
  189SLPC  H13Y21890   5.089   0.180   8.379  1.5584  1.0294 -2.1622
  189SLPC  C31421891   5.085  -0.043   8.437 -0.2263  0.2302 -0.4971
  189SLPC  H14X21892   5.188  -0.073   8.406  0.0318  0.3925  0.1965
  189SLPC  H14Y21893   5.008  -0.123   8.429 -0.3651  0.1247  1.6764
  189SLPC  C31521894   5.090  -0.017   8.591  0.4768  0.1544 -0.0375
  189SLPC  H15X21895   5.182   0.037   8.621 -0.6670  1.6550  0.8895
  189SLPC  H15Y21896   5.085  -0.118   8.636 -1.0654  0.6928  1.0643
  189SLPC  C31621897   4.975   0.060   8.650  0.3469 -0.3093  0.2490
  189SLPC  H16X21898   4.883   0.010   8.613  0.1043  1.0027 -0.9789
  189SLPC  H16Y21899   4.983   0.165   8.615  4.2820 -0.5909 -0.0009
  189SLPC  C31721900   4.979   0.068   8.810 -0.3039  0.3448  0.4402
  189SLPC  H17X21901   4.985  -0.038   8.842  0.1622 -0.4869 -2.2690
  189SLPC  H17Y21902   4.876   0.096   8.843 -1.0290  0.3644 -1.7534
  189SLPC  C31821903   5.091   0.155   8.874  0.9980 -0.4254  0.2064
  189SLPC  H18X21904   5.189   0.153   8.820  1.6835  0.4561  1.4041
  189SLPC  H18Y21905   5.101   0.129   8.981 -0.4440 -3.3707 -0.3337
  189SLPC  H18Z21906   5.056   0.260   8.867  0.1470 -0.7434 -0.4018
  190SLPC     N21907   5.679   5.613   6.216 -1.0257  0.4615 -0.3936
  190SLPC   C1321908   5.605   5.605   6.083 -0.5499  0.7033  0.0839
  190SLPC  H13A21909   5.672   5.548   6.019 -0.9290 -0.0579  0.3636
  190SLPC  H13B21910   5.515   5.548   6.099  0.9560 -1.3830  1.4645
  190SLPC  H13C21911   5.580   5.699   6.037 -1.6169  1.0671  1.3740
  190SLPC   C1421912   5.825   5.634   6.185  0.1905 -0.1705 -0.2194
  190SLPC  H14A21913   5.874   5.538   6.188  0.3580 -0.0625  0.8523
  190SLPC  H14B21914   5.844   5.676   6.088 -0.6751 -1.9338 -1.1611
  190SLPC  H14C21915   5.877   5.700   6.254  0.9017 -0.0690 -0.8492
  190SLPC   C1521916   5.678   5.484   6.291 -0.3086  0.0468 -0.4764
  190SLPC  H15A21917   5.576   5.461   6.321 -0.2710  1.9543  1.2158
  190SLPC  H15B21918   5.720   5.405   6.231  0.1581 -0.4106  0.4374
  190SLPC  H15C21919   5.735   5.479   6.383  0.6191  2.1280 -0.9332
  190SLPC   C1221920   5.616   5.730   6.288 -0.5051 -0.4634 -0.5540
  190SLPC  H12A21921   5.512   5.709   6.307 -0.4953 -1.0178 -1.0705
  190SLPC  H12B21922   5.612   5.813   6.220 -1.5484 -2.0671 -2.5064
  190SLPC   C1121923   5.685   5.778   6.421  0.0395  0.1524 -0.0484
  190SLPC  H11A21924   5.696   5.687   6.484 -2.2257 -0.4063 -0.4099
  190SLPC  H11B21925   5.619   5.843   6.484 -0.0715  0.8077 -0.8262
  190SLPC     P21926   5.814   5.992   6.376 -0.0124 -0.1919  0.0689
  190SLPC   O1321927   5.956   6.033   6.362  0.6892  0.2398 -0.7975
  190SLPC   O1421928   5.723   6.021   6.260 -0.2813 -0.0502 -0.0817
  190SLPC   O1221929   5.809   5.836   6.411 -0.8614  0.2770  0.1080
  190SLPC   O1121930   5.762   6.056   6.512 -0.4848 -0.7736 -0.2129
  190SLPC    C121931   5.728   6.191   6.518  0.0597 -0.3784 -0.2854
  190SLPC    HA21932   5.818   6.256   6.515 -0.4876  0.4693  1.5324
  190SLPC    HB21933   5.668   6.223   6.430  1.1694  0.6969 -0.6641
  190SLPC    C221934   5.633   6.230   6.636  0.5104  0.1752  0.1331
  190SLPC    HS21935   5.608   6.338   6.631  1.8587  0.4474 -1.1898
  190SLPC   O2121936   5.703   6.205   6.759  0.2276 -0.1339  0.5438
  190SLPC   C2121937   5.797   6.295   6.803  0.9451 -0.5080 -0.0380
  190SLPC   O2221938   5.836   6.391   6.739 -0.0768  0.3472  0.0677
  190SLPC   C2221939   5.825   6.270   6.952 -0.1770  0.8045 -0.1716
  190SLPC   H2R21940   5.865   6.167   6.962 -2.4288 -0.4664 -3.3436
  190SLPC   H2S21941   5.904   6.338   6.989 -0.7609  1.2450  0.2780
  190SLPC    C321942   5.504   6.141   6.638 -0.1369  0.3139 -0.8259
  190SLPC    HX21943   5.537   6.036   6.625 -0.9999  0.0299 -0.7462
  190SLPC    HY21944   5.439   6.172   6.553  0.3353  1.7953 -0.6572
  190SLPC   O3121945   5.435   6.168   6.764  0.4280  0.2723  0.1859
  190SLPC   C3121946   5.339   6.083   6.793 -0.5055  0.5199  0.4682
  190SLPC   O3221947   5.304   5.988   6.725 -0.6326 -0.2001  0.2551
  190SLPC   C3221948   5.264   6.121   6.917  0.2227 -0.2228  0.1865
  190SLPC   H2X21949   5.166   6.167   6.894 -0.4046 -1.8634 -0.5409
  190SLPC   H2Y21950   5.322   6.199   6.971 -2.0365  2.0301 -0.5503
  190SLPC   C2321951   5.701   6.290   7.043 -0.1506 -0.3225  0.2180
  190SLPC   H3R21952   5.610   6.233   7.016 -0.1523  0.4762 -1.5008
  190SLPC   H3S21953   5.679   6.397   7.027  0.2927 -0.2639 -0.0082
  190SLPC   C2421954   5.746   6.238   7.178 -0.3302  0.2797  0.5342
  190SLPC   H4R21955   5.832   6.301   7.211 -0.2925  0.4234  0.1672
  190SLPC   H4S21956   5.774   6.132   7.163 -0.5107  0.4292 -0.9019
  190SLPC   C2521957   5.636   6.231   7.282 -0.2868  1.0081  0.6637
  190SLPC   H5R21958   5.556   6.164   7.244 -0.5028  1.0525  1.0429
  190SLPC   H5S21959   5.591   6.331   7.296  0.8931  1.8261 -1.1997
  190SLPC   C2621960   5.671   6.170   7.420  0.2221  0.3829  0.2696
  190SLPC   H6R21961   5.741   6.234   7.477  1.3536 -1.6885  1.2428
  190SLPC   H6S21962   5.714   6.071   7.396 -2.6510 -1.3472  1.9155
  190SLPC   C2721963   5.559   6.165   7.519 -0.6163  0.0439  0.1067
  190SLPC   H7R21964   5.470   6.111   7.480  0.4398 -0.2306 -1.9933
  190SLPC   H7S21965   5.515   6.264   7.542 -2.5887 -0.9546  0.7216
  190SLPC   C2821966   5.608   6.104   7.649  0.0756 -0.7168 -0.2373
  190SLPC   H8R21967   5.679   6.173   7.699  0.6894  0.2598 -2.4025
  190SLPC   H8S21968   5.665   6.014   7.620  1.4287 -0.0023  0.1612
  190SLPC   C2921969   5.494   6.080   7.737  0.8352 -0.3586 -0.8690
  190SLPC   H9R21970   5.397   6.094   7.687  0.6158 -1.6769 -0.8235
  190SLPC  C21021971   5.492   6.009   7.856  0.1232 -0.6319 -0.3487
  190SLPC  H10R21972   5.394   5.991   7.902 -0.3673 -1.3816 -1.6493
  190SLPC  C21121973   5.607   5.944   7.935 -0.0897  0.1290  0.9577
  190SLPC  H11R21974   5.706   5.964   7.889 -0.2896  1.0857  0.9248
  190SLPC  H11S21975   5.600   5.835   7.954 -0.1473  0.0382  0.4485
  190SLPC  C21221976   5.610   6.015   8.066 -0.3163 -0.2374  0.1225
  190SLPC  H12R21977   5.602   6.125   8.063  3.6196  0.1073 -0.0776
  190SLPC  C21321978   5.633   5.960   8.191 -0.2333  0.2179  0.2105
  190SLPC  H13R21979   5.652   6.030   8.274  0.7932 -0.6265  0.6905
  190SLPC  C21421980   5.641   5.817   8.223  0.1315  0.0304 -0.1482
  190SLPC  H14R21981   5.609   5.746   8.144  0.0425 -1.6352  1.3235
  190SLPC  H14S21982   5.559   5.801   8.297 -0.2136 -1.2486 -0.7905
  190SLPC  C21521983   5.777   5.767   8.272 -0.2370  0.1984 -0.2159
  190SLPC  H15R21984   5.852   5.805   8.199 -0.8161  1.6104 -0.1029
  190SLPC  H15S21985   5.783   5.657   8.256 -0.1223 -0.4790  4.0363
  190SLPC  C21621986   5.804   5.800   8.418 -0.1944  0.3398 -0.9070
  190SLPC  H16R21987   5.731   5.751   8.485  0.1378 -2.3291 -2.4431
  190SLPC  H16S21988   5.779   5.908   8.426 -2.2947 -0.1855  0.0381
  190SLPC  C21721989   5.943   5.762   8.465  0.7172  0.8384  0.4950
  190SLPC  H17R21990   5.989   5.805   8.557  0.3875  1.5760  0.3182
  190SLPC  H17S21991   6.016   5.783   8.384 -0.5439 -0.3277 -0.9604
  190SLPC  C21821992   5.945   5.607   8.484 -0.0121 -0.3744 -0.0845
  190SLPC  H18R21993   5.888   5.569   8.572  2.8267 -3.8913  0.3049
  190SLPC  H18S21994   6.049   5.576   8.506 -0.1647 -0.4724  0.5004
  190SLPC  H18T21995   5.923   5.559   8.386  0.7067  0.5417 -0.7031
  190SLPC   C3321996   5.233   5.994   7.002 -0.1224  0.2908  1.1973
  190SLPC   H3X21997   5.304   5.910   6.988 -1.5575 -0.7324 -0.0952
  190SLPC   H3Y21998   5.138   5.964   6.954 -0.0674  0.3584  1.0489
  190SLPC   C3421999   5.214   6.016   7.156  0.4801 -1.0301 -0.1698
  190SLPC   H4X22000   5.145   6.102   7.170  0.3008 -1.1140 -0.5334
  190SLPC   H4Y22001   5.314   6.054   7.186  0.4786  0.1838 -1.6188
  190SLPC   C3522002   5.167   5.894   7.226 -0.3106 -0.4957  0.0521
  190SLPC   H5X22003   5.246   5.816   7.212  1.5570  1.4997 -0.7402
  190SLPC   H5Y22004   5.077   5.851   7.177 -1.8621  2.2712  0.4034
  190SLPC   C3622005   5.135   5.912   7.373 -0.0273 -0.0677 -0.6696
  190SLPC   H6X22006   5.031   5.949   7.374 -0.1896 -0.4689 -2.0778
  190SLPC   H6Y22007   5.204   5.990   7.412  0.2602 -1.0205  0.7661
  190SLPC   C3722008   5.148   5.790   7.464 -0.8160  0.1841  0.4853
  190SLPC   H7X22009   5.248   5.742   7.464  0.3240  2.3219 -2.9985
  190SLPC   H7Y22010   5.068   5.721   7.430 -0.5810  0.5454 -0.8410
  190SLPC   C3822011   5.091   5.809   7.604 -0.1140  0.5103  0.6245
  190SLPC   H8X22012   4.989   5.853   7.609 -0.5523 -0.3211 -0.6327
  190SLPC   H8Y22013   5.167   5.874   7.652  1.9457 -0.4475 -1.2260
  190SLPC   C3922014   5.071   5.681   7.682  0.1851  0.0225  0.5928
  190SLPC   H9X22015   5.174   5.648   7.707  0.4496  0.7518  0.4838
  190SLPC   H9Y22016   5.014   5.612   7.618  1.2527 -0.5814  0.2809
  190SLPC  C31022017   5.004   5.705   7.816 -0.7125  0.2858  0.1886
  190SLPC  H10X22018   4.979   5.609   7.866  2.9570 -1.4613 -1.1580
  190SLPC  H10Y22019   4.910   5.765   7.814 -0.6902  0.3057 -0.3743
  190SLPC  C31122020   5.102   5.774   7.912 -0.1628 -0.2821  0.1493
  190SLPC  H11X22021   5.133   5.869   7.863  0.2795  0.0481  1.0658
  190SLPC  H11Y22022   5.187   5.706   7.933 -1.2256 -0.6996  3.4752
  190SLPC  C31222023   5.030   5.798   8.051 -0.2080  0.4543  0.2732
  190SLPC  H12X22024   5.054   5.706   8.108 -1.5120  0.7970  1.4101
  190SLPC  H12Y22025   4.919   5.798   8.050 -0.2304 -0.3994  1.5200
  190SLPC  C31322026   5.073   5.924   8.133  0.1315  0.6218 -0.4666
  190SLPC  H13X22027   5.030   6.018   8.093 -3.0248  0.9276  3.4472
  190SLPC  H13Y22028   5.184   5.930   8.134  0.1352  0.4143  0.4289
  190SLPC  C31422029   5.033   5.920   8.283  0.3820 -0.4270 -0.7701
  190SLPC  H14X22030   5.055   5.816   8.317  2.9455 -1.2077 -4.5058
  190SLPC  H14Y22031   4.923   5.910   8.285  0.4353 -1.2322 -1.5791
  190SLPC  C31522032   5.091   6.021   8.379  0.5941 -0.1150 -0.2055
  190SLPC  H15X22033   5.023   6.019   8.467 -0.7316  0.6320 -1.1929
  190SLPC  H15Y22034   5.081   6.126   8.343 -1.5084 -0.3435 -0.3976
  190SLPC  C31622035   5.228   5.990   8.427  0.6224  0.5287 -0.0326
  190SLPC  H16X22036   5.257   6.081   8.484 -1.5484  1.3126 -0.1209
  190SLPC  H16Y22037   5.305   5.993   8.346 -0.0785  0.1795 -0.7252
  190SLPC  C31722038   5.245   5.873   8.523 -0.2344 -0.7324 -0.0551
  190SLPC  H17X22039   5.235   5.777   8.469  0.6026 -0.2629 -1.0601
  190SLPC  H17Y22040   5.162   5.879   8.597 -0.1404 -1.8406  0.1502
  190SLPC  C31822041   5.377   5.866   8.599 -0.3020 -0.5454 -0.0339
  190SLPC  H18X22042   5.462   5.840   8.532  0.7960  1.4083  0.5303
  190SLPC  H18Y22043   5.366   5.787   8.675  2.4925 -0.2473  0.7495
  190SLPC  H18Z22044   5.398   5.959   8.657 -2.4295 -0.2422  0.2921
  191SLPC     N22045   5.762   1.556   5.698  0.2043 -0.2772 -0.7003
  191SLPC   C1322046   5.616   1.547   5.670  0.1012  1.0114 -0.3978
  191SLPC  H13A22047   5.600   1.567   5.565 -1.4992 -0.7020 -0.5042
  191SLPC  H13B22048   5.584   1.445   5.689  0.1708  1.1786  0.6190
  191SLPC  H13C22049   5.564   1.615   5.736 -0.5646  1.5350 -1.4402
  191SLPC   C1422050   5.817   1.674   5.623  0.1606  0.5539 -0.0511
  191SLPC  H14A22051   5.742   1.752   5.632 -0.7847 -0.2549 -0.7950
  191SLPC  H14B22052   5.917   1.707   5.648  1.1878 -1.9918 -0.7191
  191SLPC  H14C22053   5.816   1.646   5.519 -2.4752  0.9733 -0.1731
  191SLPC   C1522054   5.830   1.428   5.647  0.1064 -0.3507  0.2459
  191SLPC  H15A22055   5.780   1.390   5.560 -1.4024  1.3078  0.3633
  191SLPC  H15B22056   5.935   1.446   5.630  0.0734 -0.3023  0.0928
  191SLPC  H15C22057   5.820   1.348   5.719 -2.0461  0.7729  1.2404
  191SLPC   C1222058   5.782   1.574   5.848 -0.2732  0.1781  0.1774
  191SLPC  H12A22059   5.735   1.667   5.876 -2.9451 -1.3548  1.0091
  191SLPC  H12B22060   5.886   1.597   5.866  0.5105 -0.7949 -2.9013
  191SLPC   C1122061   5.719   1.470   5.936 -0.3405 -0.0449  0.2046
  191SLPC  H11A22062   5.753   1.483   6.041 -0.5915 -1.3010  0.4430
  191SLPC  H11B22063   5.737   1.363   5.912  0.1413  0.3939 -1.4110
  191SLPC     P22064   5.502   1.597   6.025 -0.2284 -0.0250 -0.1061
  191SLPC   O1322065   5.554   1.727   5.967  0.0699 -0.0718 -0.5385
  191SLPC   O1422066   5.361   1.570   6.021 -0.0370 -0.5773  0.4365
  191SLPC   O1222067   5.575   1.480   5.947 -0.4191  0.8887 -0.0221
  191SLPC   O1122068   5.551   1.576   6.171 -0.2126  0.1017  0.0554
  191SLPC    C122069   5.513   1.471   6.268 -0.1874 -0.8003  0.2853
  191SLPC    HA22070   5.421   1.418   6.237 -1.5304  0.5220  1.9430
  191SLPC    HB22071   5.604   1.408   6.278  1.1414  0.4522 -2.8667
  191SLPC    C222072   5.464   1.532   6.402  0.3444 -0.5409 -0.3068
  191SLPC    HS22073   5.408   1.624   6.375  0.6922 -0.4164 -0.6081
  191SLPC   O2122074   5.585   1.575   6.472  0.6021  0.5966 -0.8011
  191SLPC   C2122075   5.579   1.681   6.545  0.5883 -0.4792  0.6546
  191SLPC   O2222076   5.487   1.764   6.549 -0.6816 -0.5154 -0.0815
  191SLPC   C2222077   5.718   1.688   6.608 -1.2110  0.4974 -0.3525
  191SLPC   H2R22078   5.742   1.592   6.657 -1.5804 -0.3517 -1.8139
  191SLPC   H2S22079   5.790   1.710   6.526  0.6341 -2.4567  0.4218
  191SLPC    C322080   5.389   1.438   6.501  0.5640 -0.2450  0.3211
  191SLPC    HX22081   5.463   1.355   6.504  1.8698  0.8259 -1.7235
  191SLPC    HY22082   5.293   1.418   6.448  0.4556  2.9245 -0.7813
  191SLPC   O3122083   5.368   1.494   6.634  0.4962  0.5104  0.1915
  191SLPC   C3122084   5.339   1.390   6.729  0.4008 -0.7681 -0.0272
  191SLPC   O3222085   5.336   1.270   6.701  0.2593 -0.0198  0.3102
  191SLPC   C3222086   5.321   1.447   6.863  0.5534 -0.2828  0.4638
  191SLPC   H2X22087   5.234   1.516   6.858  0.8757  0.2375  1.6843
  191SLPC   H2Y22088   5.411   1.504   6.895  0.3156 -0.1517  0.9082
  191SLPC   C2322089   5.728   1.806   6.714 -0.6683  0.6255 -0.5171
  191SLPC   H3R22090   5.703   1.904   6.669 -0.8144  0.5608 -0.5764
  191SLPC   H3S22091   5.835   1.812   6.742 -0.4131 -1.4485 -0.9559
  191SLPC   C2422092   5.648   1.784   6.843 -0.3386 -0.1919 -0.0032
  191SLPC   H4R22093   5.540   1.808   6.833 -0.4397  0.3457  2.1994
  191SLPC   H4S22094   5.681   1.853   6.923 -1.3128 -0.0874  0.3181
  191SLPC   C2522095   5.652   1.642   6.898 -0.2274  0.2743  0.0122
  191SLPC   H5R22096   5.749   1.589   6.909  0.5171  1.4762 -0.7514
  191SLPC   H5S22097   5.592   1.570   6.837 -0.9100 -0.2629  1.2941
  191SLPC   C2622098   5.603   1.655   7.052  0.1130 -1.4966  0.3732
  191SLPC   H6R22099   5.584   1.559   7.105 -2.2527 -0.5130  1.3316
  191SLPC   H6S22100   5.505   1.705   7.062  1.4964  0.9420  2.3457
  191SLPC   C2722101   5.693   1.747   7.135  1.0306 -0.0335  0.5471
  191SLPC   H7R22102   5.659   1.851   7.111 -0.8249 -0.7294  0.0847
  191SLPC   H7S22103   5.797   1.724   7.105  0.5602 -2.1138  0.4936
  191SLPC   C2822104   5.685   1.718   7.279  0.1858 -0.0294  0.2515
  191SLPC   H8R22105   5.768   1.770   7.331 -0.7361  1.3129  0.4107
  191SLPC   H8S22106   5.699   1.608   7.290  0.1186 -0.0999 -0.3950
  191SLPC   C2922107   5.554   1.763   7.329 -0.0355 -0.3915  0.1594
  191SLPC   H9R22108   5.520   1.866   7.308 -1.8518 -1.2831 -1.3385
  191SLPC  C21022109   5.466   1.698   7.409  0.5582  0.2170 -0.1037
  191SLPC  H10R22110   5.368   1.740   7.434 -0.2274 -1.4357 -0.2773
  191SLPC  C21122111   5.494   1.559   7.471  0.6433 -0.1743  0.3005
  191SLPC  H11R22112   5.578   1.574   7.543  2.6249 -0.3891 -1.9167
  191SLPC  H11S22113   5.525   1.483   7.396  0.3296 -0.4632  0.4581
  191SLPC  C21222114   5.374   1.500   7.542 -0.1659 -0.0058  0.5542
  191SLPC  H12R22115   5.317   1.419   7.494  1.1755 -0.1385 -0.8670
  191SLPC  C21322116   5.340   1.529   7.670  0.4398  0.4046 -0.3053
  191SLPC  H13R22117   5.253   1.478   7.713  0.3267  0.6272 -0.2728
  191SLPC  C21422118   5.400   1.623   7.774 -0.2154  0.0994  0.1536
  191SLPC  H14R22119   5.338   1.714   7.765 -2.0412 -1.3873 -3.0941
  191SLPC  H14S22120   5.504   1.645   7.743  0.2832 -0.1640  1.6043
  191SLPC  C21522121   5.408   1.564   7.919 -0.2135 -0.2456 -0.4370
  191SLPC  H15R22122   5.456   1.467   7.942  0.7424  0.4984  0.7347
  191SLPC  H15S22123   5.301   1.546   7.943  0.4936  0.4539  3.5973
  191SLPC  C21622124   5.469   1.665   8.017 -0.9304 -0.0257 -0.1366
  191SLPC  H16R22125   5.429   1.765   7.993 -1.2266  0.3466  1.8937
  191SLPC  H16S22126   5.578   1.671   7.995 -1.0381  1.2833 -0.3520
  191SLPC  C21722127   5.449   1.629   8.160 -0.0594 -0.1920  0.5749
  191SLPC  H17R22128   5.478   1.524   8.181  0.5429  0.0685  1.0910
  191SLPC  H17S22129   5.342   1.643   8.183  0.0760  2.9650 -0.4577
  191SLPC  C21822130   5.544   1.715   8.251  0.2207  0.0561 -0.0968
  191SLPC  H18R22131   5.533   1.823   8.226  0.0266  0.3112  1.0521
  191SLPC  H18S22132   5.646   1.675   8.234 -1.1132 -2.6898 -2.0135
  191SLPC  H18T22133   5.500   1.708   8.352 -3.4327  2.8798 -1.3521
  191SLPC   C3322134   5.287   1.350   6.981  0.0577 -0.1261  0.1527
  191SLPC   H3X22135   5.362   1.271   7.001 -0.4837 -0.3293  1.4125
  191SLPC   H3Y22136   5.196   1.290   6.957 -0.1359  0.4430 -0.5586
  191SLPC   C3422137   5.267   1.432   7.110 -0.6173  0.3487 -0.8162
  191SLPC   H4X22138   5.355   1.494   7.138 -1.1487  0.3667  0.8347
  191SLPC   H4Y22139   5.260   1.347   7.181  1.8253  1.3846  0.7413
  191SLPC   C3522140   5.139   1.501   7.124  0.0120  0.2625  0.3384
  191SLPC   H5X22141   5.062   1.427   7.091  0.3453 -0.4228  1.0961
  191SLPC   H5Y22142   5.126   1.583   7.050 -0.4148 -0.0314  0.0782
  191SLPC   C3622143   5.112   1.549   7.264  0.1178  0.0612 -0.6315
  191SLPC   H6X22144   5.175   1.637   7.288 -0.8341  0.7472 -0.6421
  191SLPC   H6Y22145   5.152   1.463   7.322  0.9272  1.9571  1.7005
  191SLPC   C3722146   4.969   1.578   7.295  0.2115 -0.1845 -0.1007
  191SLPC   H7X22147   4.905   1.488   7.281  0.7521 -0.9690  2.2890
  191SLPC   H7Y22148   4.918   1.665   7.248 -0.0892 -1.5483 -2.4232
  191SLPC   C3822149   4.947   1.604   7.449 -0.4100  0.1492 -0.3657
  191SLPC   H8X22150   4.991   1.527   7.515  0.3948 -0.3616 -1.4749
  191SLPC   H8Y22151   4.843   1.581   7.478 -0.6382 -0.1435 -1.4179
  191SLPC   C3922152   4.971   1.759   7.478  0.4192  0.1390 -0.0903
  191SLPC   H9X22153   4.906   1.824   7.416 -1.1196 -1.8566 -0.6307
  191SLPC   H9Y22154   5.075   1.796   7.463 -0.0961  1.8201  0.3879
  191SLPC  C31022155   4.934   1.793   7.628 -0.7890 -1.4578  0.3048
  191SLPC  H10X22156   4.836   1.744   7.649 -1.1845 -1.1594 -0.8248
  191SLPC  H10Y22157   4.926   1.903   7.628 -0.4579 -1.4319 -0.0245
  191SLPC  C31122158   5.038   1.743   7.733  0.5958 -0.4759  0.3173
  191SLPC  H11X22159   5.140   1.781   7.710  0.7071 -1.4715 -0.9127
  191SLPC  H11Y22160   5.026   1.633   7.736 -3.4804 -0.0662  2.4235
  191SLPC  C31222161   5.004   1.800   7.875 -0.4593 -0.5567  0.2655
  191SLPC  H12X22162   4.897   1.777   7.897 -0.5750 -0.3778 -0.1039
  191SLPC  H12Y22163   5.020   1.910   7.877  0.9867 -0.7694  1.2967
  191SLPC  C31322164   5.091   1.725   7.981 -0.0238  0.2089 -0.2067
  191SLPC  H13X22165   5.198   1.734   7.953  0.3389 -1.0938  0.7010
  191SLPC  H13Y22166   5.056   1.621   7.966  0.3726  0.1831 -1.0195
  191SLPC  C31422167   5.053   1.770   8.122  0.3500  0.0038 -0.3356
  191SLPC  H14X22168   5.118   1.710   8.189 -1.0374 -0.1418  0.9260
  191SLPC  H14Y22169   4.947   1.757   8.153  0.2749 -0.1662 -0.6606
  191SLPC  C31522170   5.088   1.915   8.157  0.1189 -0.0854 -0.7372
  191SLPC  H15X22171   5.037   1.927   8.255 -1.7803 -0.2173 -1.6793
  191SLPC  H15Y22172   5.043   1.985   8.084 -0.2061 -0.6233 -1.0648
  191SLPC  C31622173   5.244   1.944   8.174  0.4037  0.1183  0.3438
  191SLPC  H16X22174   5.286   1.928   8.073  1.6193 -0.2717  0.9112
  191SLPC  H16Y22175   5.289   1.863   8.235  0.7382  0.3914  0.4566
  191SLPC  C31722176   5.268   2.079   8.237 -0.7773  0.4688 -0.8218
  191SLPC  H17X22177   5.211   2.102   8.330  0.3683 -0.0102  0.0149
  191SLPC  H17Y22178   5.250   2.163   8.166 -0.2255  0.5407 -0.8736
  191SLPC  C31822179   5.418   2.093   8.276  0.4357 -0.1777 -0.8556
  191SLPC  H18X22180   5.435   2.009   8.347 -0.8768 -0.8328 -1.2915
  191SLPC  H18Y22181   5.432   2.183   8.340  0.8933 -1.1307  0.4194
  191SLPC  H18Z22182   5.493   2.085   8.195  0.5917  2.2574 -0.9922
  192SLPC     N22183   5.436   2.033   6.236 -0.1678 -0.0697 -0.6580
  192SLPC   C1322184   5.290   1.991   6.227 -0.0185  0.0580  0.4513
  192SLPC  H13A22185   5.254   1.914   6.293 -1.5543  1.3382  1.1390
  192SLPC  H13B22186   5.221   2.071   6.249 -0.6464  0.3285 -2.3033
  192SLPC  H13C22187   5.270   1.965   6.124 -1.6155  2.2075  0.1885
  192SLPC   C1422188   5.515   1.917   6.186 -0.5361 -0.2469 -0.4634
  192SLPC  H14A22189   5.619   1.934   6.207 -0.3570 -1.6459 -0.1588
  192SLPC  H14B22190   5.484   1.826   6.235  2.5311  0.8359  3.8311
  192SLPC  H14C22191   5.515   1.898   6.080 -0.0503  0.0688 -0.5224
  192SLPC   C1522192   5.471   2.053   6.386  0.6710  0.2748 -0.4676
  192SLPC  H15A22193   5.399   2.122   6.427  0.0144 -0.3974 -0.4775
  192SLPC  H15B22194   5.464   1.959   6.438  0.6266  1.1450  1.1159
  192SLPC  H15C22195   5.571   2.091   6.398  1.3076 -1.5444  0.1047
  192SLPC   C1222196   5.469   2.157   6.163  0.4371  0.1116 -0.3333
  192SLPC  H12A22197   5.440   2.241   6.224 -0.4042 -1.3692  1.3817
  192SLPC  H12B22198   5.411   2.167   6.072  0.0749  1.4917  0.0361
  192SLPC   C1122199   5.610   2.192   6.133  0.2651  0.0570 -1.1342
  192SLPC  H11A22200   5.621   2.283   6.071 -0.5995  1.2777  0.4472
  192SLPC  H11B22201   5.650   2.109   6.070 -1.0008 -0.7339 -0.9119
  192SLPC     P22202   5.666   2.346   6.331  0.0500  0.0897 -0.1796
  192SLPC   O1322203   5.777   2.439   6.294  0.0825  0.5278 -0.5617
  192SLPC   O1422204   5.529   2.401   6.322  0.1170  0.3907  0.1257
  192SLPC   O1222205   5.685   2.208   6.254  1.1092  0.0608 -0.4241
  192SLPC   O1122206   5.680   2.294   6.476  0.6401  0.1992  0.3728
  192SLPC    C122207   5.779   2.195   6.519 -0.1359 -0.7179 -0.3823
  192SLPC    HA22208   5.736   2.095   6.541 -1.8636 -0.0573 -0.7303
  192SLPC    HB22209   5.856   2.187   6.439  0.1212  0.4745 -0.2582
  192SLPC    C222210   5.855   2.247   6.641 -0.0090 -0.8472 -0.3874
  192SLPC    HS22211   5.933   2.174   6.671 -1.0256 -1.3457  1.1149
  192SLPC   O2122212   5.756   2.263   6.738 -0.1531  0.9662  0.1160
  192SLPC   C2122213   5.753   2.155   6.825 -0.4690 -0.4208  0.4197
  192SLPC   O2222214   5.831   2.063   6.827  0.2798 -1.0999  0.4605
  192SLPC   C2222215   5.637   2.181   6.916 -0.0372  0.6429 -0.6252
  192SLPC   H2R22216   5.570   2.253   6.864  0.7924  1.9912  0.1193
  192SLPC   H2S22217   5.586   2.084   6.931 -0.3118  0.7651 -0.7835
  192SLPC    C322218   5.918   2.385   6.618 -0.4179 -0.1283 -0.3008
  192SLPC    HX22219   5.844   2.464   6.590  0.0645  0.5058  0.1816
  192SLPC    HY22220   5.991   2.385   6.535  1.6437 -4.0890  1.3962
  192SLPC   O3122221   5.984   2.442   6.737  0.1408 -0.2174 -0.0026
  192SLPC   C3122222   6.098   2.372   6.757  0.2371 -0.0198  0.2066
  192SLPC   O3222223   6.141   2.290   6.681 -0.1485 -0.5358 -0.3573
  192SLPC   C3222224   6.163   2.418   6.889 -0.9731 -0.1815  0.1706
  192SLPC   H2X22225   6.089   2.479   6.944 -0.2105  1.7417 -0.8580
  192SLPC   H2Y22226   6.247   2.482   6.854 -3.2025  2.0257 -1.2937
  192SLPC   C2322227   5.677   2.244   7.056  0.0283 -0.2521  0.1485
  192SLPC   H3R22228   5.582   2.288   7.094 -0.8115 -1.3928 -0.6132
  192SLPC   H3S22229   5.751   2.327   7.045 -2.5922  2.0765 -0.4057
  192SLPC   C2422230   5.727   2.136   7.156  0.1090 -0.2574  0.1036
  192SLPC   H4R22231   5.814   2.086   7.108 -0.2858  0.6061 -1.5825
  192SLPC   H4S22232   5.650   2.060   7.178 -0.6526  1.0112  1.9615
  192SLPC   C2522233   5.762   2.196   7.293 -0.6663 -0.2135  0.2269
  192SLPC   H5R22234   5.673   2.247   7.334 -0.8853 -0.1526 -0.3138
  192SLPC   H5S22235   5.846   2.267   7.276  0.5779 -0.6471  4.0804
  192SLPC   C2622236   5.798   2.080   7.385 -0.1628 -0.1484  0.3493
  192SLPC   H6R22237   5.881   2.013   7.355  1.5793  1.6540  1.0238
  192SLPC   H6S22238   5.706   2.018   7.391 -0.1829 -0.0745  0.7684
  192SLPC   C2722239   5.833   2.125   7.529  0.5941 -0.1251 -1.0947
  192SLPC   H7R22240   5.755   2.192   7.570  0.7733  1.0791 -2.6887
  192SLPC   H7S22241   5.920   2.193   7.517  1.0238 -0.2811  0.9039
  192SLPC   C2822242   5.868   2.007   7.618  0.3378 -0.1110  0.3433
  192SLPC   H8R22243   5.899   2.057   7.712  0.5190  0.0512  0.2013
  192SLPC   H8S22244   5.968   1.977   7.578  1.2667  2.7620  0.3603
  192SLPC   C2922245   5.779   1.891   7.627  0.0400  0.5165  0.6926
  192SLPC   H9R22246   5.761   1.846   7.528  0.3144  3.9086 -0.9585
  192SLPC  C21022247   5.719   1.852   7.739 -0.0207 -0.4338 -0.0911
  192SLPC  H10R22248   5.659   1.760   7.739 -0.8254  0.0768  0.8518
  192SLPC  C21122249   5.731   1.923   7.873  0.2373  0.0113 -0.4394
  192SLPC  H11R22250   5.826   1.980   7.887  1.1108 -2.2771  3.7585
  192SLPC  H11S22251   5.735   1.844   7.951 -2.7032 -0.6586 -0.9211
  192SLPC  C21222252   5.629   2.023   7.920  0.4895 -0.0427  0.2206
  192SLPC  H12R22253   5.668   2.074   8.009 -2.3037 -1.8554  2.5666
  192SLPC  C21322254   5.503   2.061   7.880 -0.3057  0.1428 -0.2733
  192SLPC  H13R22255   5.451   2.137   7.941 -0.6852  0.5696 -1.1073
  192SLPC  C21422256   5.432   1.996   7.765 -0.0972 -0.1415  0.3503
  192SLPC  H14R22257   5.336   1.961   7.810  0.1452 -0.4652  0.6250
  192SLPC  H14S22258   5.474   1.905   7.718  0.0543  1.4397 -2.6708
  192SLPC  C21522259   5.399   2.097   7.654 -0.8848  0.1618 -0.3708
  192SLPC  H15R22260   5.491   2.151   7.625  0.0466 -1.9167 -1.3697
  192SLPC  H15S22261   5.335   2.181   7.692  3.3921  2.6273  1.7200
  192SLPC  C21622262   5.336   2.028   7.530  0.5350  0.2277 -0.1452
  192SLPC  H16R22263   5.230   2.016   7.557  1.1128 -0.3806  1.9300
  192SLPC  H16S22264   5.372   1.925   7.508 -1.9938 -0.8175  0.5284
  192SLPC  C21722265   5.342   2.113   7.399 -0.1913 -0.6766 -0.1874
  192SLPC  H17R22266   5.329   2.220   7.426 -1.8257 -0.3050 -2.2804
  192SLPC  H17S22267   5.444   2.115   7.356  1.3575 -0.8705  3.3220
  192SLPC  C21822268   5.244   2.056   7.297  0.6084 -0.9598  0.2364
  192SLPC  H18R22269   5.144   2.054   7.346  1.6278  1.1944  2.4978
  192SLPC  H18S22270   5.269   1.957   7.253 -0.8109 -0.4298 -1.8063
  192SLPC  H18T22271   5.237   2.120   7.207  1.1174 -0.8760  0.2528
  192SLPC   C3322272   6.191   2.304   6.986  0.1588  0.3678  0.3044
  192SLPC   H3X22273   6.260   2.350   7.060  1.6512  0.2372 -1.0035
  192SLPC   H3Y22274   6.230   2.216   6.932  0.6522  0.6941  0.1287
  192SLPC   C3422275   6.075   2.259   7.073  1.0371  0.3516 -0.7165
  192SLPC   H4X22276   6.001   2.202   7.014  1.6612  0.6367 -1.7733
  192SLPC   H4Y22277   6.017   2.343   7.116  1.5189  0.3547 -0.0659
  192SLPC   C3522278   6.114   2.171   7.188  0.1515  0.4340 -0.4391
  192SLPC   H5X22279   6.188   2.094   7.160  0.8564  1.2977 -0.9981
  192SLPC   H5Y22280   6.023   2.119   7.224  1.9089 -1.4842  1.3582
  192SLPC   C3622281   6.175   2.240   7.308 -0.4321 -0.4339 -0.5049
  192SLPC   H6X22282   6.114   2.325   7.344  0.2132  0.1483 -0.7772
  192SLPC   H6Y22283   6.265   2.293   7.269 -0.1128 -1.0856 -0.6706
  192SLPC   C3722284   6.223   2.140   7.417 -0.0720  0.6825  0.4950
  192SLPC   H7X22285   6.282   2.062   7.364  1.4493  3.2471 -1.7143
  192SLPC   H7Y22286   6.130   2.089   7.450 -0.7021  0.8246 -1.0045
  192SLPC   C3822287   6.293   2.211   7.532  0.2809  0.6226  0.1618
  192SLPC   H8X22288   6.225   2.293   7.564 -1.1982 -0.5119 -0.0717
  192SLPC   H8Y22289   6.386   2.260   7.495  1.4042 -0.1735  1.8929
  192SLPC   C3922290   6.312   2.108   7.645  0.0422 -0.8028 -0.0724
  192SLPC   H9X22291   6.391   2.033   7.623 -0.0122 -0.5913 -0.9898
  192SLPC   H9Y22292   6.214   2.068   7.677 -0.0661  0.9296  1.9171
  192SLPC  C31022293   6.333   2.180   7.782  0.4431 -0.0368 -0.1440
  192SLPC  H10X22294   6.271   2.272   7.795  3.2456  1.7934  0.7508
  192SLPC  H10Y22295   6.437   2.220   7.789  0.1451  1.0256 -1.6800
  192SLPC  C31122296   6.313   2.087   7.907 -0.5005  0.6134  0.1729
  192SLPC  H11X22297   6.371   1.993   7.899  0.0810  1.1271 -2.1076
  192SLPC  H11Y22298   6.207   2.055   7.910 -0.2567 -0.0706  3.6892
  192SLPC  C31222299   6.349   2.161   8.034 -1.1360  0.1373 -0.6358
  192SLPC  H12X22300   6.292   2.256   8.042 -1.7315 -0.3980  1.8522
  192SLPC  H12Y22301   6.454   2.194   8.020 -1.5437  1.5493 -0.4524
  192SLPC  C31322302   6.333   2.084   8.168  0.3483  0.0506  0.3166
  192SLPC  H13X22303   6.371   1.979   8.157 -2.8669 -1.3916  2.5139
  192SLPC  H13Y22304   6.226   2.067   8.191  0.4408 -0.6588  0.2408
  192SLPC  C31422305   6.389   2.161   8.292  0.6248  0.5035  0.4283
  192SLPC  H14X22306   6.332   2.256   8.285  0.1801  0.2660  0.7962
  192SLPC  H14Y22307   6.497   2.187   8.295  0.8732 -0.2209 -1.6726
  192SLPC  C31522308   6.347   2.104   8.428 -1.1417  0.8461  0.0246
  192SLPC  H15X22309   6.236   2.104   8.436 -1.1712 -0.7249 -0.2445
  192SLPC  H15Y22310   6.384   2.171   8.509  2.7554 -1.9639  0.7155
  192SLPC  C31622311   6.390   1.962   8.456 -0.0541  0.3201 -0.5075
  192SLPC  H16X22312   6.498   1.950   8.429  0.5545  1.7544  1.2187
  192SLPC  H16Y22313   6.348   1.884   8.389 -0.6228 -0.4107  0.6743
  192SLPC  C31722314   6.378   1.914   8.604  0.1548  0.8971 -0.4500
  192SLPC  H17X22315   6.397   1.805   8.596 -0.2292  0.7192  0.8479
  192SLPC  H17Y22316   6.271   1.934   8.630 -0.1410  0.8391 -1.6046
  192SLPC  C31822317   6.478   1.978   8.711 -0.1166  0.0463 -0.3393
  192SLPC  H18X22318   6.468   1.914   8.801  1.1709  1.2003  0.6525
  192SLPC  H18Y22319   6.457   2.085   8.733  1.0873 -0.2199  2.3573
  192SLPC  H18Z22320   6.579   1.967   8.666  0.8113  1.2051  1.3546
  193SOD    SOD22321   1.128   5.570   3.303 -0.5182  0.0370  0.4629
  194SOD    SOD22322   4.550   1.757  14.136  0.4185 -0.5349 -0.1715
  195SOD    SOD22323   0.072   0.514  11.238  0.1048  0.1268 -0.5500
  196SOD    SOD22324   5.215   5.170   5.008 -0.4638 -0.0983  0.2427
  197SOD    SOD22325   5.578   5.861   0.052 -0.1022  0.2226  0.3556
  198SOD    SOD22326   5.586   6.107  13.332 -0.1674 -0.1384  0.0919
  199SOD    SOD22327   5.081   0.820   5.694  0.2636  0.0206  0.4929
  200SOD    SOD22328   5.706   4.588  12.685  0.6958 -0.2766  0.7303
  201SOD    SOD22329   1.451   4.297  11.917  0.3721 -0.1300  0.6352
  202SOD    SOD22330   6.102   3.794  11.629 -0.6311  0.2750 -0.2641
  203SOD    SOD22331   5.099   2.776   0.034 -0.3901 -0.4323 -0.0519
  204SOD    SOD22332   3.783   2.048   5.018 -0.3849  0.4595 -0.3597
  205SOD    SOD22333   4.780   1.325   5.460  0.2620 -0.0673 -0.2003
  206SOD    SOD22334   1.353   1.328  16.006  0.0128 -0.0513 -0.2320
  207SOD    SOD22335   1.063   6.605   2.625 -0.1571  0.0472 -0.2163
  208SOD    SOD22336   2.477   6.809   5.124  0.3332 -0.6374  0.2010
  209SOD    SOD22337   4.440   1.902   2.879 -0.5549  0.1073  0.2729
  210SOD    SOD22338   6.751   2.061   1.265 -0.3199 -0.2835  0.0661
  211SOD    SOD22339   0.996   6.041  15.094  0.1058  0.0107  0.0943
  212SOD    SOD22340   2.628   0.226  12.332  0.0506  0.4933  0.3824
  213SOD    SOD22341   4.172   0.804  16.145  0.2505 -0.5045 -0.4353
  214SOD    SOD22342   4.865   4.432   2.677 -0.3070  0.4878  0.0746
  215SOD    SOD22343   5.542   4.993  10.526  0.4933  0.5109 -0.4419
  216SOD    SOD22344   0.792   6.470  13.174 -0.2075  0.0979 -0.0216
  217SOD    SOD22345   3.999   6.510  11.744 -0.1332 -0.3840  0.0417
  218SOD    SOD22346   5.202   0.825  12.141  0.3280 -0.0380 -0.1278
  219SOD    SOD22347   2.281   5.179  12.197 -0.3798  0.1434  0.3714
  220SOD    SOD22348   4.425   5.565  13.969  0.0685  0.5160  0.6099
  221SOD    SOD22349   3.932   1.748  15.331  0.1069 -0.0225  0.6104
  222SOD    SOD22350   5.279   3.241   1.013  0.0252  0.4514  0.1494
  223SOD    SOD22351   6.698   5.471   0.834  0.1508 -0.2038 -0.1961
  224SOD    SOD22352   4.462   0.386   1.552  0.6644 -0.3035  0.3081
  225SOD    SOD22353   4.353   6.109   4.369  0.2380 -0.2481 -0.6108
  226SOD    SOD22354   4.363   4.840  10.425 -0.3612 -0.1071  0.0107
  227SOD    SOD22355   0.055   0.297  13.721 -0.0272  0.2063  0.3128
  228SOD    SOD22356   4.835   1.482  14.533  0.0983 -0.0144  0.0839
  229SOD    SOD22357   2.858   3.485  15.611  0.6705  0.0720 -0.0081
  230SOD    SOD22358   5.665   1.409  14.406 -0.0594 -0.0157 -0.2706
  231SOD    SOD22359   5.415   2.582   6.349  0.0031  0.2267  0.0576
  232SOD    SOD22360   3.182   3.085  11.975 -0.0323 -0.3564 -0.3743
  233SOD    SOD22361   3.417   4.775  11.784  0.5100  0.3612 -0.2790
  234SOD    SOD22362   2.705   3.860   1.733  0.3729 -0.3806 -0.1269
  235SOD    SOD22363   2.959   6.360  10.885  0.1956  0.5487 -0.7903
  236SOD    SOD22364   1.245   4.989   6.618 -0.1269  0.4714  0.4296
  237SOD    SOD22365   0.107   4.141  13.737 -0.1455  0.0364  0.1549
  238SOD    SOD22366   1.862   2.735   0.353 -0.3180  0.4116 -0.1159
  239SOD    SOD22367   5.898   1.841  14.099  0.3232 -0.1661 -0.0243
  240SOD    SOD22368   1.294   1.855  16.615 -0.5857 -0.0419 -0.4844
  241SOD    SOD22369   6.662   1.837  13.428  0.2730  0.1520  0.3724
  242SOD    SOD22370   5.613   1.572   1.783 -0.2912  0.1698 -0.2098
  243SOD    SOD22371   1.818   5.153   6.552 -0.1854  0.1504  0.3924
  244SOD    SOD22372   0.048   2.546  16.825  0.4130  0.4914  0.2724
  245SOD    SOD22373   2.923   0.682   3.436 -0.3296 -0.2092 -0.2132
  246SOD    SOD22374   2.076   1.865   5.889  0.3066 -0.8658  0.0666
  247SOD    SOD22375   5.434   4.632   2.840 -0.4813  0.1364  0.1470
  248SOD    SOD22376   3.172   2.015   5.632  0.2671 -0.1480 -0.0137
  249SOD    SOD22377   0.104   4.336   4.328  0.0544 -0.1676  0.1171
  250SOD    SOD22378   0.099   2.190   4.680 -0.0076  0.4429 -0.1214
  251SOD    SOD22379   4.725   2.536   4.508 -0.4792 -0.2262  0.4484
  252SOD    SOD22380   0.501   0.387  14.495  0.1975 -0.0618  0.4333
  253SOD    SOD22381   5.475   6.397  16.333  0.5087  0.0718 -0.0382
  254SOD    SOD22382   0.979   6.049  16.484  0.3034  0.8297  0.1146
  255SOD    SOD22383   0.552   4.281   0.696  0.1096  0.2067  0.2312
  256SOD    SOD22384   0.866   3.598  11.812  0.4554 -0.4800 -0.4412
  257SOD    SOD22385   6.666   2.700   5.804  0.0012 -0.0064 -0.0613
  258SOD    SOD22386   4.297   0.220  11.047  0.0607 -0.2694 -0.1884
  259SOD    SOD22387   6.065   5.741  11.214  0.8524  0.1278  0.2485
  260SOD    SOD22388   2.208   4.290  16.657 -0.3973 -0.1007 -0.3293
  261SOD    SOD22389   2.487   1.137  15.007 -0.2069 -0.2217  0.0445
  262SOD    SOD22390   2.470   4.144  12.631  0.1744  0.1200 -0.2990
  263SOD    SOD22391   1.298   5.926   0.240  0.3475 -0.6629  0.4994
  264SOD    SOD22392   0.371   5.657   0.222  0.4852 -0.4400 -0.2534
  265SOD    SOD22393   1.509   2.840   4.193 -0.0299  0.3131  0.7832
  266CLA    CLA22394   2.541   1.862  15.953  0.2245  0.2938  0.2562
  267CLA    CLA22395   4.398   1.594  16.209 -0.3181 -0.0510 -0.0376
  268CLA    CLA22396   4.782   3.256   5.049  0.0245 -0.3017 -0.1732
  269CLA    CLA22397   4.108   6.373   0.129  0.3298  0.0876  0.2107
  270CLA    CLA22398   3.371   2.805  13.115  0.2895 -0.2033 -0.0304
  271CLA    CLA22399   6.475   0.270  13.972  0.1943  0.4176  0.0203
  272CLA    CLA22400   5.004   4.396   3.439  0.0096  0.4251  0.2506
  273CLA    CLA22401   2.189   0.966   5.364  0.1315  0.4464 -0.1142
  274CLA    CLA22402   4.948   1.209   1.810 -0.6549  0.1935  0.0763
  275CLA    CLA22403   0.005   2.902   2.159  0.0372  0.0539  0.0817
  276CLA    CLA22404   6.011   2.138  14.606 -0.2386  0.3832 -0.2237
  277CLA    CLA22405   3.529   5.300   2.945 -0.6178  0.3862  0.2671
  278CLA    CLA22406   6.365   0.150   1.164 -0.1376 -0.1556 -0.4768
  279CLA    CLA22407   4.984   2.384  14.269 -0.0077  0.1759  0.3485
  280CLA    CLA22408   5.036   4.507  15.948  0.4836 -0.0516  0.4649
  281CLA    CLA22409   3.135   5.475  11.337  0.2912 -0.0932 -0.3049
  282CLA    CLA22410   5.200   5.211  11.902  0.0993 -0.4731 -0.0914
  283CLA    CLA22411   6.174   2.765   0.191  0.5214 -0.0253 -0.3040
  284CLA    CLA22412   5.442   6.406   4.558 -0.2542  0.3363 -0.1234
  285CLA    CLA22413   5.947   4.482   0.739  0.0238 -0.0251 -0.5568
  286CLA    CLA22414   1.216   0.613  14.289 -0.2917  0.2684 -0.1345
  287CLA    CLA22415   1.280   5.470  14.500 -0.1438  0.3516  0.0673
  288CLA    CLA22416   5.667   1.650  15.443 -0.0721 -0.2429  0.4163
  289CLA    CLA22417   6.521   0.326  16.633  0.1360 -0.4474  0.0560
  290CLA    CLA22418   6.457   2.436   4.718 -0.1924  0.0561 -0.0705
  291CLA    CLA22419   6.137   4.537  13.240  0.5275 -0.3813  0.3008
  292CLA    CLA22420   6.508   6.535   1.826  0.2991  0.6826 -0.2336
  293CLA    CLA22421   3.214   4.880  13.458  0.2373  0.0461  0.2292
  294CLA    CLA22422   0.686   6.091   3.531  0.1980 -0.2052  0.0918
  295CLA    CLA22423   1.371   0.114   2.754 -0.0276 -0.3204  0.2123
  296CLA    CLA22424   1.991   1.861  14.422  0.4064  0.0082  0.3360
  297CLA    CLA22425   5.763   4.300  13.858  0.4925  0.0309  0.2119
  298CLA    CLA22426   2.975   5.119  12.538  0.4296  0.0512 -0.1378
  299CLA    CLA22427   1.107   1.932  16.285  0.2191 -0.2851 -0.1885
  300CLA    CLA22428   6.737   1.570  14.369 -0.0067 -0.4870  0.2347
  301CLA    CLA22429   6.530   2.891  13.404 -0.5659 -0.2446 -0.2464
  302CLA    CLA22430   4.678   3.000   4.655  0.2943 -0.2322 -0.2445
  303CLA    CLA22431   6.349   5.212  14.498 -0.1445  0.5587 -0.2853
  304CLA    CLA22432   1.195   2.472   5.189 -0.3327 -0.3080 -0.7835
  305CLA    CLA22433   4.663   5.951  14.162 -0.2059 -0.4732  0.1880
  306CLA    CLA22434   4.370   0.679  14.788  0.1912  0.4140 -0.2246
  307CLA    CLA22435   3.072   4.207   1.443  0.2121  0.1827  0.1526
  308CLA    CLA22436   5.254   1.047  12.534 -0.2396  0.3169  0.1240
  309CLA    CLA22437   0.988   1.448   0.402  0.1738 -0.0823 -0.0025
  310CLA    CLA22438   0.839   5.617  12.821 -0.3508 -0.0187  0.3441
  311CLA    CLA22439   5.445   3.209   3.373 -0.0662  0.5064  0.3515
  312CLA    CLA22440   0.483   2.700  11.676  0.3996  0.4411 -0.0218
  313CLA    CLA22441   5.642   4.517   5.052 -0.1042  0.2248  0.2027
  314CLA    CLA22442   5.900   2.400  12.186  0.0416  0.2030 -0.0561
  315CLA    CLA22443   4.867   3.441   2.030 -0.0109  0.0023 -0.0546
  316CLA    CLA22444   3.234   0.858  16.968  0.5302 -0.0792 -0.0714
  317CLA    CLA22445   0.278   5.063   2.123  0.2250  0.4475 -0.0432
  318CLA    CLA22446   1.660   2.305  16.888 -0.0067 -0.1269  0.0301
  319TIP3   OH222447   1.566   6.570   1.160 -0.4022  0.0470 -0.0076
  319TIP3    H122448   1.491   6.629   1.171  0.0516  0.2658  2.1313
  319TIP3    H222449   1.583   6.536   1.248  0.8455 -1.4487 -0.7946
  320TIP3   OH222450   5.286   3.970  16.683 -0.1399 -0.2077 -0.0501
  320TIP3    H122451   5.215   3.993  16.623 -0.5434 -0.4939  0.3164
  320TIP3    H222452   5.364   3.969  16.628 -0.6060 -1.1072 -0.7037
  321TIP3   OH222453   4.691   4.704   0.194 -0.3176 -0.6362  0.9712
  321TIP3    H122454   4.708   4.610   0.191 -2.4481 -1.0131 -0.1131
  321TIP3    H222455   4.666   4.727   0.105 -0.8725  0.7418  1.4739
  322TIP3   OH222456   3.042   3.513   1.675  0.2965  0.2774  0.1265
  322TIP3    H122457   3.123   3.466   1.652 -0.2885 -0.6702 -0.0353
  322TIP3    H222458   2.995   3.521   1.592 -0.2290 -0.0691  0.3859
  323TIP3   OH222459   6.629   4.125  14.622 -0.1389 -0.2856 -0.6389
  323TIP3    H122460   6.546   4.133  14.575 -0.2628 -1.3768 -0.6272
  323TIP3    H222461   6.687   4.187  14.579  0.0583 -2.0142 -2.9787
  324TIP3   OH222462   0.584   3.707  14.399  0.1679  0.3803  0.2224
  324TIP3    H122463   0.641   3.783  14.394  0.0006  0.5499  0.8559
  324TIP3    H222464   0.513   3.734  14.457 -0.3367  0.0304 -0.2255
  325TIP3   OH222465   4.024   0.598  17.101 -0.4866 -0.1050  0.1549
  325TIP3    H122466   4.007   0.557  17.016 -0.3280  1.8448 -0.8365
  325TIP3    H222467   3.950   0.572  17.156 -1.6699  0.3610 -1.2131
  326TIP3   OH222468   2.647   4.048   1.591 -0.3116  0.3910  0.1899
  326TIP3    H122469   2.553   4.037   1.576  0.0884 -2.0430 -0.6671
  326TIP3    H222470   2.681   4.076   1.507  0.0163 -0.5836  0.0000
  327TIP3   OH222471   6.358   2.228  12.772  0.2171 -0.1422 -0.4249
  327TIP3    H122472   6.444   2.191  12.754 -0.2409 -1.3666 -0.1530
  327TIP3    H222473   6.372   2.323  12.775  1.8448 -0.3998  1.0921
  328TIP3   OH222474   3.110   2.444   1.130 -0.2009 -0.7921 -0.2939
  328TIP3    H122475   3.136   2.353   1.120 -0.1726 -0.9606  1.1059
  328TIP3    H222476   3.053   2.445   1.207 -0.7583  0.2609 -0.7058
  329TIP3   OH222477   0.623   6.375  16.504  0.6340 -0.4894  0.3376
  329TIP3    H122478   0.599   6.309  16.440  1.9299 -0.9870  0.3398
  329TIP3    H222479   0.696   6.423  16.463  0.6610 -0.0164  0.9261
  330TIP3   OH222480   1.380   4.767  14.425  0.3773 -0.1252  0.0558
  330TIP3    H122481   1.368   4.859  14.448  2.3198 -0.3192  2.0782
  330TIP3    H222482   1.294   4.728  14.438  0.5155  0.5401  3.6870
  331TIP3   OH222483   3.460   2.081  13.714 -0.1788 -0.0374 -0.0180
  331TIP3    H122484   3.541   2.035  13.736  0.8225  1.2766 -0.9108
  331TIP3    H222485   3.425   2.110  13.798  0.9648  0.5343  0.2615
  332TIP3   OH222486   6.548   5.241  15.240  0.7823 -0.5574  0.5627
  332TIP3    H122487   6.494   5.200  15.173  1.5115  1.2576 -1.1811
  332TIP3    H222488   6.491   5.247  15.317 -0.4675 -1.5430 -0.2767
  333TIP3   OH222489   0.062   5.133  14.815  0.7283 -0.1932 -0.3342
  333TIP3    H122490   0.145   5.146  14.770 -0.1331  0.5476 -1.7424
  333TIP3    H222491   0.038   5.220  14.847  0.4402 -0.3800 -0.0338
  334TIP3   OH222492   3.018   1.834  10.952  0.2466 -0.4694  0.0099
  334TIP3    H122493   3.004   1.838  10.857  0.7070 -1.6368 -0.1260
  334TIP3    H222494   3.016   1.740  10.972 -1.3483 -0.1534  1.4010
  335TIP3   OH222495   6.816   3.767  14.692 -0.0158  0.0712 -0.4494
  335TIP3    H122496   6.890   3.788  14.634 -1.6119  0.2449 -2.4652
  335TIP3    H222497   6.856   3.723  14.767  2.2016  0.7189 -1.2149
  336TIP3   OH222498   2.855   3.140   0.748 -0.2396  0.4538 -0.1501
  336TIP3    H122499   2.932   3.147   0.805 -0.5679  1.7325  0.1443
  336TIP3    H222500   2.827   3.049   0.757  0.4032  0.3419  0.8267
  337TIP3   OH222501   1.331   0.471   3.106  0.1314  0.2719  0.4777
  337TIP3    H122502   1.377   0.548   3.073 -1.1982  0.8641 -0.0315
  337TIP3    H222503   1.371   0.397   3.060  0.7206  0.7612  0.2111
  338TIP3   OH222504   1.169   2.451  11.740 -0.1763  0.0258  0.4550
  338TIP3    H122505   1.225   2.527  11.723  0.6788 -0.4489  1.1542
  338TIP3    H222506   1.087   2.489  11.774 -0.0731  0.6811 -0.0202
  339TIP3   OH222507   6.635   1.853   3.385  0.0017  0.1128  0.3220
  339TIP3    H122508   6.627   1.940   3.425 -1.8346 -0.2441  0.7664
  339TIP3    H222509   6.702   1.864   3.318  1.9760  1.1298  2.3831
  340TIP3   OH222510   5.526   1.728  14.205 -0.2291 -0.3650 -0.6394
  340TIP3    H122511   5.521   1.728  14.110  1.0691 -1.2172 -0.7221
  340TIP3    H222512   5.436   1.715  14.234 -0.3370 -2.3917 -1.7891
  341TIP3   OH222513   0.438   4.286  15.733  0.2104 -0.4100  0.1278
  341TIP3    H122514   0.429   4.380  15.745 -1.3318 -0.6675  1.0563
  341TIP3    H222515   0.527   4.275  15.698  0.5101  1.3474  0.2958
  342TIP3   OH222516   3.891   5.999  13.991 -0.1763 -0.8765 -0.1593
  342TIP3    H122517   3.825   6.041  13.936  2.3301 -0.0511 -2.6448
  342TIP3    H222518   3.933   6.072  14.037 -0.3080 -1.3069  0.6590
  343TIP3   OH222519   4.704   4.159  11.535  0.1491  0.6595 -0.2520
  343TIP3    H122520   4.772   4.100  11.567  2.1244  1.7650 -2.3302
  343TIP3    H222521   4.732   4.246  11.564 -1.5156  0.8938  0.7296
  344TIP3   OH222522   6.558   1.618  17.107  0.6362 -0.5925 -0.4326
  344TIP3    H122523   6.527   1.566  17.181 -0.2040 -0.1089 -0.4387
  344TIP3    H222524   6.479   1.662  17.073  1.2699  0.3995 -0.6479
  345TIP3   OH222525   2.647   4.839  12.471 -0.2620  0.0255 -0.7848
  345TIP3    H122526   2.606   4.906  12.417 -0.8880 -0.4568 -0.9232
  345TIP3    H222527   2.619   4.860  12.561 -0.8227 -0.2930 -0.8775
  346TIP3   OH222528   2.877   4.715  12.524 -0.3202 -0.0481  0.2048
  346TIP3    H122529   2.788   4.748  12.513 -0.1418  0.4309  0.1890
  346TIP3    H222530   2.866   4.621  12.537 -0.8407  0.0361  0.3900
  347TIP3   OH222531   0.138   5.656  16.295 -0.5573  0.0262 -0.2042
  347TIP3    H122532   0.184   5.652  16.379  0.5238  1.1119 -0.7295
  347TIP3    H222533   0.056   5.701  16.315 -0.5445 -0.1886  0.3637
  348TIP3   OH222534   5.582   0.427   4.997 -0.2720  0.6507  0.4044
  348TIP3    H122535   5.571   0.378   5.078  1.6821 -1.6743 -0.6558
  348TIP3    H222536   5.673   0.456   4.999 -0.4033  1.1570 -0.6514
  349TIP3   OH222537   1.587   5.093   6.231 -0.5196  0.3743  0.6689
  349TIP3    H122538   1.556   5.078   6.141 -0.1995 -0.3322  0.6728
  349TIP3    H222539   1.628   5.180   6.228  0.4306 -0.0913 -0.1300
  350TIP3   OH222540   4.941   0.815   0.499 -0.1815 -0.2035  0.0826
  350TIP3    H122541   4.927   0.722   0.516 -1.0808  0.1325  1.2324
  350TIP3    H222542   4.981   0.848   0.579  1.2234  0.1725 -0.7532
  351TIP3   OH222543   5.293   4.734  16.295 -0.3409 -0.6696 -0.0847
  351TIP3    H122544   5.220   4.778  16.251  0.5073  2.9984  2.0128
  351TIP3    H222545   5.279   4.752  16.388  2.2190 -1.4944  0.4919
  352TIP3   OH222546   4.670   2.140  14.027  0.0624  0.2311 -0.3770
  352TIP3    H122547   4.638   2.134  13.936  2.3382  1.3227 -1.2841
  352TIP3    H222548   4.605   2.194  14.071 -2.2279 -2.0889 -0.7809
  353TIP3   OH222549   3.470   1.820  16.333  0.0138 -0.6177  0.2851
  353TIP3    H122550   3.395   1.809  16.275 -1.6685 -1.3754  2.5349
  353TIP3    H222551   3.483   1.735  16.374  1.7783 -0.3627  0.3381
  354TIP3   OH222552   3.107   2.537   0.733 -0.8870 -0.5111 -0.1397
  354TIP3    H122553   3.065   2.623   0.736 -2.9336 -1.5090  0.6922
  354TIP3    H222554   3.039   2.476   0.763  0.4585 -2.4430 -0.9314
  355TIP3   OH222555   0.637   4.335  16.286  0.0566  0.0646  0.0533
  355TIP3    H122556   0.601   4.280  16.356 -0.3961 -1.2629 -1.2049
  355TIP3    H222557   0.580   4.319  16.211  2.4533 -1.0592 -1.5937
  356TIP3   OH222558   6.030   4.223   2.551 -0.5740  0.0874 -0.0906
  356TIP3    H122559   6.124   4.231   2.531 -0.7701 -0.5924 -1.3951
  356TIP3    H222560   6.024   4.237   2.645  0.6845  1.4497 -0.1852
  357TIP3   OH222561   6.596   2.712  15.569 -0.3330  0.1508 -0.2437
  357TIP3    H122562   6.641   2.705  15.653  0.3460 -0.1491 -0.6294
  357TIP3    H222563   6.507   2.738  15.592 -0.3976 -0.7895  0.6318
  358TIP3   OH222564   0.223   0.568  16.664  0.2347 -0.2654  0.1668
  358TIP3    H122565   0.278   0.641  16.695  0.0645  0.0020 -0.1624
  358TIP3    H222566   0.168   0.547  16.740 -0.0444  0.2630  0.1182
  359TIP3   OH222567   1.369   5.383  12.103 -0.7653 -0.6045 -0.5200
  359TIP3    H122568   1.287   5.384  12.054 -1.3431  1.2131  0.4105
  359TIP3    H222569   1.375   5.471  12.141  1.8131 -0.5835 -0.8698
  360TIP3   OH222570   0.857   6.071   6.090 -0.7420 -0.0310 -0.3869
  360TIP3    H122571   0.908   6.131   6.144  0.6631  0.0452 -1.7500
  360TIP3    H222572   0.782   6.048   6.144  0.0292  0.9364  1.1433
  361TIP3   OH222573   4.181   3.687   0.483 -0.6195  0.0479  0.0273
  361TIP3    H122574   4.135   3.663   0.563 -1.3550 -0.8172 -0.6401
  361TIP3    H222575   4.188   3.783   0.487 -1.6113  0.1008  0.6180
  362TIP3   OH222576   4.586   1.412   2.861 -0.2333 -0.1328 -0.5915
  362TIP3    H122577   4.668   1.407   2.910  0.1589  0.5737 -1.1804
  362TIP3    H222578   4.520   1.381   2.923  0.4319 -0.4179 -0.0187
  363TIP3   OH222579   2.810   6.505   6.558  0.2679 -0.1404 -0.8296
  363TIP3    H122580   2.730   6.460   6.586  0.3719 -0.0960 -0.4547
  363TIP3    H222581   2.780   6.593   6.533  0.2317 -0.0471 -0.4623
  364TIP3   OH222582   3.254   5.790  13.406  0.0705 -0.1097  0.2381
  364TIP3    H122583   3.315   5.733  13.452 -0.8354 -0.2035  1.3301
  364TIP3    H222584   3.177   5.794  13.462 -0.3011  1.3259 -0.3371
  365TIP3   OH222585   1.148   0.970   5.598  0.1616 -0.1428  0.3004
  365TIP3    H122586   1.091   0.893   5.603  1.7904 -1.5444 -1.7668
  365TIP3    H222587   1.233   0.939   5.628  0.9652  0.6714 -1.0702
  366TIP3   OH222588   2.522   0.771  17.193 -0.3506 -0.0381  0.4583
  366TIP3    H122589   2.589   0.714  17.154  0.0881 -0.5204  1.8618
  366TIP3    H222590   2.572   0.841  17.235 -0.8663  1.0706 -0.7777
  367TIP3   OH222591   6.399   1.325  10.703  0.3936  0.6406  0.1438
  367TIP3    H122592   6.355   1.408  10.683  0.0048  0.6692  1.0738
  367TIP3    H222593   6.370   1.265  10.635  1.8768  1.6684 -1.4412
  368TIP3   OH222594   6.305   3.587   4.451  0.3520  0.4766 -0.0553
  368TIP3    H122595   6.254   3.506   4.443  0.2632  0.6719 -1.5241
  368TIP3    H222596   6.296   3.612   4.544  0.3035 -1.1296  0.3833
  369TIP3   OH222597   0.269   6.487   4.034 -0.2179  0.5607 -0.3878
  369TIP3    H122598   0.262   6.540   4.113 -1.5870  0.5606 -0.4947
  369TIP3    H222599   0.354   6.509   3.997  0.7139  0.0710  1.4351
  370TIP3   OH222600   1.796   1.481   0.220  0.0950 -0.3997 -0.0081
  370TIP3    H122601   1.828   1.467   0.309 -0.3417 -1.8486 -0.0710
  370TIP3    H222602   1.726   1.546   0.230 -0.0830 -0.6967  0.7350
  371TIP3   OH222603   5.213   5.719   2.611  1.0199 -0.3592  0.9007
  371TIP3    H122604   5.207   5.763   2.695  2.4259  1.2054  0.2139
  371TIP3    H222605   5.124   5.717   2.578  0.4696 -0.9534  2.4012
  372TIP3   OH222606   5.303   5.779  13.336 -0.6942 -0.2201  0.0564
  372TIP3    H122607   5.299   5.699  13.283  1.5755  0.2360 -0.8461
  372TIP3    H222608   5.212   5.796  13.359 -1.3870 -2.2020 -1.0370
  373TIP3   OH222609   6.566   6.592  15.927 -0.6170 -0.3497 -0.3604
  373TIP3    H122610   6.515   6.673  15.925  1.1711  0.9192  2.3163
  373TIP3    H222611   6.651   6.617  15.892 -1.3015 -2.1389 -3.5147
  374TIP3   OH222612   2.647   2.373  11.418  0.0677  1.4359  0.4970
  374TIP3    H122613   2.727   2.406  11.460  0.7253  1.0631 -0.4439
  374TIP3    H222614   2.661   2.388  11.325  0.3658 -1.3701  0.0209
  375TIP3   OH222615   0.214   3.693  12.126  0.0786 -0.7861 -0.6030
  375TIP3    H122616   0.156   3.622  12.153 -0.5107  0.2934  1.0183
  375TIP3    H222617   0.295   3.648  12.099 -1.7487 -2.3424 -3.7092
  376TIP3   OH222618   2.593   2.777  11.971 -0.9242  0.1232 -0.1935
  376TIP3    H122619   2.538   2.855  11.970 -0.9109  0.1323 -0.2499
  376TIP3    H222620   2.663   2.797  11.908  0.4321  1.0215  1.5683
  377TIP3   OH222621   5.241   1.837   4.847 -0.1308 -0.8371 -0.0575
  377TIP3    H122622   5.326   1.794   4.837  1.9286  2.9121  0.7818
  377TIP3    H222623   5.211   1.810   4.934  0.4266 -1.7142 -0.1249
  378TIP3   OH222624   0.577   2.820  12.762  0.3745 -0.3594  0.0593
  378TIP3    H122625   0.523   2.743  12.746  1.6149 -1.5062  1.1728
  378TIP3    H222626   0.561   2.877  12.687  0.9584 -2.5905 -1.8198
  379TIP3   OH222627   3.894   2.602  13.605  0.0587  0.0469  0.4158
  379TIP3    H122628   3.858   2.656  13.534 -0.4931 -0.5756  0.2110
  379TIP3    H222629   3.978   2.571  13.571 -0.7615 -1.2472 -0.4690
  380TIP3   OH222630   3.861   3.825  17.031  0.1939  0.1587  0.0545
  380TIP3    H122631   3.914   3.840  17.109  0.8076 -1.7124  0.0150
  380TIP3    H222632   3.784   3.777  17.062 -1.2752  2.3977  0.0268
  381TIP3   OH222633   4.748   0.065   2.779  0.0693 -0.0988 -0.1773
  381TIP3    H122634   4.788   0.139   2.734  0.0015  1.4054  2.1653
  381TIP3    H222635   4.654   0.085   2.779 -0.0004 -0.4201  0.0235
  382TIP3   OH222636   2.245   0.951   3.317 -0.1616  0.0199 -0.5065
  382TIP3    H122637   2.215   0.873   3.269 -3.5049  1.6897 -1.2260
  382TIP3    H222638   2.217   1.025   3.264  2.6043  1.7869  0.3864
  383TIP3   OH222639   4.116   1.625   0.020  0.1063  0.4358 -0.1702
  383TIP3    H122640   4.140   1.659   0.106 -2.8320  3.6805 -0.5305
  383TIP3    H222641   4.024   1.649   0.010 -0.0861 -1.4324 -3.5200
  384TIP3   OH222642   5.123   4.537  13.862 -0.5862 -0.2952 -0.1727
  384TIP3    H122643   5.093   4.573  13.946  0.8423  0.9509 -0.1626
  384TIP3    H222644   5.195   4.479  13.886 -0.7168 -0.5712 -0.4565
  385TIP3   OH222645   5.398   6.223   3.755 -0.2467 -0.0214 -1.0933
  385TIP3    H122646   5.486   6.191   3.774 -1.1633 -1.2488  1.3377
  385TIP3    H222647   5.342   6.178   3.819 -2.7483  0.1663 -3.0859
  386TIP3   OH222648   6.268   3.850  12.534 -0.2077  0.4777 -0.2788
  386TIP3    H122649   6.261   3.760  12.567  1.6092  1.0732  1.8625
  386TIP3    H222650   6.349   3.850  12.482  0.6597  1.2212  1.0330
  387TIP3   OH222651   1.323   3.795   1.932  0.2514 -0.2106 -0.4594
  387TIP3    H122652   1.289   3.866   1.986 -0.8866 -0.4509 -0.8509
  387TIP3    H222653   1.412   3.822   1.910 -0.2382  1.1817 -0.7603
  388TIP3   OH222654   4.430   6.559  15.712  0.0038 -0.7308  0.5155
  388TIP3    H122655   4.337   6.563  15.733 -0.1274  0.0338 -0.1505
  388TIP3    H222656   4.461   6.648  15.728 -0.2321  0.0894 -3.0160
  389TIP3   OH222657   1.964   1.507  15.020 -0.3325  0.0900 -0.0583
  389TIP3    H122658   1.893   1.569  15.039 -0.1430 -0.3502  2.2245
  389TIP3    H222659   1.929   1.422  15.046  1.1857 -0.0725  1.5319
  390TIP3   OH222660   0.306   2.949   3.024  0.0327  0.0903  0.3585
  390TIP3    H122661   0.266   2.875   3.069  1.5220 -0.3691  0.9473
  390TIP3    H222662   0.245   3.022   3.040 -0.4946 -0.5522  1.3645
  391TIP3   OH222663   4.960   6.173  16.041  0.1389  0.4105  0.3995
  391TIP3    H122664   4.884   6.153  15.986  0.2636 -2.2766  1.0957
  391TIP3    H222665   5.035   6.138  15.993  0.8901  2.4902  0.0057
  392TIP3   OH222666   1.814   1.485   3.508 -0.3395  0.0663 -0.2608
  392TIP3    H122667   1.770   1.513   3.588 -1.4654  0.1764 -0.9130
  392TIP3    H222668   1.873   1.415   3.536 -1.8170 -0.9184  0.4123
  393TIP3   OH222669   2.628   4.202  16.461 -0.1256 -0.0440 -0.2981
  393TIP3    H122670   2.697   4.251  16.416  1.0327 -1.6480 -0.3379
  393TIP3    H222671   2.614   4.249  16.543  2.6173 -0.9358  0.7313
  394TIP3   OH222672   6.406   5.547   5.012 -0.4472  0.5783 -0.4411
  394TIP3    H122673   6.325   5.537   4.961 -1.6795 -1.2798  1.7920
  394TIP3    H222674   6.380   5.525   5.101  2.7022 -0.6153  0.2069
  395TIP3   OH222675   4.905   0.351   0.176  0.4742 -0.0799 -0.0180
  395TIP3    H122676   4.938   0.440   0.183 -0.1602  0.2139 -0.6931
  395TIP3    H222677   4.841   0.344   0.246 -1.5847  0.9522 -1.7214
  396TIP3   OH222678   0.160   3.189  14.462  0.1782  0.3455  0.1515
  396TIP3    H122679   0.238   3.175  14.409  0.8418  2.6283  0.4878
  396TIP3    H222680   0.095   3.224  14.400  0.0108  0.2138  0.2501
  397TIP3   OH222681   4.040   4.078   4.107 -0.2103 -0.4171 -0.2783
  397TIP3    H122682   4.108   4.136   4.073 -0.5597  0.3361  0.3051
  397TIP3    H222683   4.086   3.999   4.132  0.5894  0.4554  1.0112
  398TIP3   OH222684   5.694   5.626   1.841 -0.1682  0.2738 -0.5832
  398TIP3    H122685   5.739   5.553   1.883  0.6697  0.5743 -0.9473
  398TIP3    H222686   5.605   5.623   1.876 -1.0415 -2.7639 -2.8618
  399TIP3   OH222687   5.889   2.068   4.622  0.0051  0.2853 -0.3511
  399TIP3    H122688   5.934   2.065   4.537  0.0460 -2.6082 -0.2915
  399TIP3    H222689   5.952   2.031   4.683 -0.3152  1.6521  0.8131
  400TIP3   OH222690   0.711   5.137  13.781  0.2474 -0.7030  0.0808
  400TIP3    H122691   0.734   5.218  13.735 -1.6825 -0.5227 -0.6156
  400TIP3    H222692   0.667   5.166  13.860  0.9113 -1.0613  0.5852
  401TIP3   OH222693   5.322   4.076   6.400 -0.0760  0.0062 -0.1230
  401TIP3    H122694   5.239   4.104   6.438 -1.0468  0.3550 -2.4460
  401TIP3    H222695   5.383   4.147   6.420 -0.7034  0.4139  0.3487
  402TIP3   OH222696   4.699   3.130  16.912 -0.3646  0.2378  0.2210
  402TIP3    H122697   4.717   3.148  16.820 -1.7779 -2.9034 -0.7573
  402TIP3    H222698   4.672   3.214  16.948 -0.9865  1.2990 -2.5584
  403TIP3   OH222699   0.344   6.133  14.803  0.1324  0.2649  0.2862
  403TIP3    H122700   0.262   6.180  14.817 -0.7339 -1.2185  0.2758
  403TIP3    H222701   0.328   6.079  14.726  0.3674 -1.7371  1.6176
  404TIP3   OH222702   4.332   6.346  14.025 -0.2247 -0.8673  0.2011
  404TIP3    H122703   4.410   6.302  14.060  0.0649 -0.4075  0.1294
  404TIP3    H222704   4.259   6.308  14.074 -0.2223 -3.1796 -1.4935
  405TIP3   OH222705   1.348   3.457   1.117  0.2355 -0.0051  0.2616
  405TIP3    H122706   1.417   3.392   1.103 -0.5266 -0.9080  0.6213
  405TIP3    H222707   1.284   3.439   1.049  0.0445  0.4078  0.3330
  406TIP3   OH222708   5.785   4.210  12.096  0.0997  0.3233  0.0735
  406TIP3    H122709   5.754   4.238  12.010 -0.6162  0.6582  0.4383
  406TIP3    H222710   5.834   4.285  12.129  1.1065 -0.1131 -0.3924
  407TIP3   OH222711   1.068   2.770   0.525 -0.2837  0.1361  0.2688
  407TIP3    H122712   1.094   2.727   0.443 -0.6068  1.7628 -0.7044
  407TIP3    H222713   1.017   2.703   0.572  0.1966 -0.9233 -0.7009
  408TIP3   OH222714   3.600   6.671  12.201  0.1640 -0.0907 -0.2299
  408TIP3    H122715   3.514   6.632  12.222 -0.1037  0.9501  0.6579
  408TIP3    H222716   3.656   6.645  12.274  0.0916  0.8241  0.1623
  409TIP3   OH222717   2.586   0.774   4.281  0.0209 -0.1473 -0.8938
  409TIP3    H122718   2.662   0.719   4.302 -1.7744 -2.8204 -1.1066
  409TIP3    H222719   2.513   0.731   4.325 -1.7353  1.1347 -2.4904
  410TIP3   OH222720   4.053   6.746  16.795  0.3399 -0.0477  0.4722
  410TIP3    H122721   3.963   6.773  16.812 -0.2961 -1.2799 -0.7682
  410TIP3    H222722   4.064   6.666  16.847  0.7538  0.1770  0.7240
  411TIP3   OH222723   4.270   5.898  11.560  0.5384  0.2120 -0.1422
  411TIP3    H122724   4.274   5.892  11.465  0.5589  3.1125 -0.3831
  411TIP3    H222725   4.341   5.841  11.591  1.1672  0.0153 -1.8990
  412TIP3   OH222726   4.842   2.659  13.041 -0.1258 -0.1700  0.2340
  412TIP3    H122727   4.813   2.589  12.983  1.5931 -0.8365  0.1475
  412TIP3    H222728   4.857   2.616  13.125 -1.5311  0.5838  0.8883
  413TIP3   OH222729   2.433   6.491   0.048  0.0665  0.3530 -0.6633
  413TIP3    H122730   2.420   6.476  -0.046 -0.1078 -1.2518 -0.3917
  413TIP3    H222731   2.525   6.467   0.063  0.2853  1.2568 -0.5515
  414TIP3   OH222732   3.512   6.238  12.542  0.2551 -0.1320 -0.3240
  414TIP3    H122733   3.506   6.306  12.474 -1.3015 -1.3322 -1.4433
  414TIP3    H222734   3.433   6.249  12.594  0.4233 -0.5254  0.0182
  415TIP3   OH222735   1.551   4.350  13.591  0.0234 -0.3303  0.2806
  415TIP3    H122736   1.600   4.433  13.587  0.4059 -0.5212  0.9233
  415TIP3    H222737   1.596   4.300  13.658 -0.9242 -0.6043  0.7066
  416TIP3   OH222738   5.618   4.754  12.812  0.0821  1.1857  0.2509
  416TIP3    H122739   5.533   4.768  12.854  0.2517  1.4782  0.4976
  416TIP3    H222740   5.654   4.842  12.801  0.5828  1.0265  0.6282
  417TIP3   OH222741   3.969   0.380   4.321  0.2286  0.5431 -0.8136
  417TIP3    H122742   3.943   0.418   4.238 -1.4953  0.0299 -0.5275
  417TIP3    H222743   4.045   0.432   4.349  1.2590  0.2787 -3.0128
  418TIP3   OH222744   5.824   0.921   5.128  0.5354  0.7954 -0.3271
  418TIP3    H122745   5.904   0.973   5.125  0.2619  1.2571  0.2980
  418TIP3    H222746   5.756   0.979   5.094 -0.0748  1.4310  1.9215
  419TIP3   OH222747   5.963   1.929  15.602 -0.0155  0.0478  0.5515
  419TIP3    H122748   5.997   1.880  15.527  1.4781  2.0205 -0.1097
  419TIP3    H222749   5.870   1.906  15.606 -0.2703  0.4170 -2.3503
  420TIP3   OH222750   4.658   2.916   3.096  0.1923 -0.1589 -0.0341
  420TIP3    H122751   4.749   2.944   3.083 -0.1671  0.7474 -0.6346
  420TIP3    H222752   4.612   2.996   3.122 -0.6367 -0.4024 -0.7477
  421TIP3   OH222753   4.095   2.116  15.100  0.4836 -0.3156 -0.2964
  421TIP3    H122754   4.187   2.132  15.079  0.5059  0.2785  0.2512
  421TIP3    H222755   4.078   2.167  15.179 -1.1209  1.9601 -2.0454
  422TIP3   OH222756   5.602   6.633   2.818 -0.2103 -0.2990  0.2446
  422TIP3    H122757   5.625   6.552   2.772  0.2842 -0.4965  0.8314
  422TIP3    H222758   5.671   6.643   2.884 -0.3383  0.5358  0.2572
  423TIP3   OH222759   0.070   4.498  14.060  0.1141 -0.1391  1.0745
  423TIP3    H122760   0.134   4.569  14.056  1.8966 -1.6929  1.3616
  423TIP3    H222761   0.067   4.474  14.153  2.4091 -2.9609  0.4921
  424TIP3   OH222762   4.452   4.672  10.252 -0.0036  0.4848  0.1146
  424TIP3    H122763   4.538   4.649  10.218  1.0827 -0.7022  3.4657
  424TIP3    H222764   4.398   4.594  10.240  0.0798  0.4219  0.1541
  425TIP3   OH222765   4.367   4.958  15.383  0.2429  0.0150 -0.4837
  425TIP3    H122766   4.440   5.020  15.380  0.6310 -0.2490  2.2342
  425TIP3    H222767   4.403   4.877  15.346  0.1874  0.9279 -2.6171
  426TIP3   OH222768   6.509   2.817   0.134 -0.0313 -0.4754 -0.4093
  426TIP3    H122769   6.429   2.837   0.181 -0.7162 -1.3308 -1.1949
  426TIP3    H222770   6.480   2.782   0.050  1.1618  0.3088 -1.1737
  427TIP3   OH222771   4.516   0.775   4.806  0.7928 -0.1664 -0.0649
  427TIP3    H122772   4.436   0.812   4.842  0.0821  0.2438 -2.0021
  427TIP3    H222773   4.507   0.785   4.711  2.9472 -0.4994 -0.3378
  428TIP3   OH222774   5.966   2.303  13.135  0.1517 -0.2338  0.4097
  428TIP3    H122775   5.949   2.217  13.098 -0.4687  0.0819 -0.0547
  428TIP3    H222776   6.020   2.348  13.070 -0.9175  0.3124 -0.1179
  429TIP3   OH222777   2.218   5.187  12.437 -0.3906 -0.1532  1.2419
  429TIP3    H122778   2.123   5.200  12.439 -0.5445 -1.2025  1.2379
  429TIP3    H222779   2.254   5.265  12.479 -1.0864  1.8368 -1.6382
  430TIP3   OH222780   2.225   6.395  12.515 -0.1075 -0.6138 -0.2919
  430TIP3    H122781   2.261   6.310  12.540  0.5631  0.0487  1.1034
  430TIP3    H222782   2.169   6.419  12.589 -1.1511 -0.3427 -1.1746
  431TIP3   OH222783   4.302   4.455   2.982 -0.2734 -0.4652 -0.2090
  431TIP3    H122784   4.210   4.438   2.958 -0.7686  0.6215  0.8445
  431TIP3    H222785   4.296   4.526   3.046  1.4088  0.7588 -1.3760
  432TIP3   OH222786   4.922   1.184  13.300  0.3560  0.5047  0.1309
  432TIP3    H122787   4.958   1.179  13.389 -0.1414  3.8317  0.5843
  432TIP3    H222788   4.975   1.252  13.257 -0.2541 -0.1681 -1.7218
  433TIP3   OH222789   0.433   1.003   5.169  0.2944  0.1434 -0.0360
  433TIP3    H122790   0.377   1.075   5.198 -0.8488  0.5202 -3.0369
  433TIP3    H222791   0.372   0.933   5.146  1.3801 -1.7174  2.4447
  434TIP3   OH222792   2.183   3.671   5.930  0.0840 -0.1229  0.4021
  434TIP3    H122793   2.261   3.721   5.907 -0.6767  0.6791 -0.4489
  434TIP3    H222794   2.110   3.729   5.910 -0.7676 -1.1719  0.4037
  435TIP3   OH222795   3.531   0.833  13.405 -0.1065  0.7774 -0.8199
  435TIP3    H122796   3.531   0.893  13.331  0.5577 -0.3048 -1.7007
  435TIP3    H222797   3.601   0.770  13.386 -0.7439 -0.2368  0.1105
  436TIP3   OH222798   2.910   4.841  15.268 -0.2295 -0.1058 -0.0449
  436TIP3    H122799   2.890   4.750  15.289  0.2625  0.0162  0.9651
  436TIP3    H222800   2.941   4.879  15.350  2.9011  0.0502 -1.2237
  437TIP3   OH222801   5.894   5.960  16.793  0.3348 -0.8197 -0.0023
  437TIP3    H122802   5.812   5.967  16.742  1.6571  0.7876 -1.9709
  437TIP3    H222803   5.877   6.010  16.872 -0.6753 -0.7285 -0.2575
  438TIP3   OH222804   6.023   0.994   3.455  0.1562 -0.3144  0.5968
  438TIP3    H122805   6.117   0.980   3.466  0.3719  0.2898 -0.4762
  438TIP3    H222806   5.996   1.039   3.535  0.5486 -1.5484  1.4431
  439TIP3   OH222807   0.126   4.969   0.123  0.2345  0.2823 -0.2237
  439TIP3    H122808   0.158   5.030   0.191 -0.0487  0.3900 -0.1857
  439TIP3    H222809   0.033   4.961   0.141  0.5775 -1.5109  0.8266
  440TIP3   OH222810   2.712   2.938  15.125 -0.0623 -0.1362 -0.1620
  440TIP3    H122811   2.776   2.980  15.067 -0.2365  1.3374  0.6688
  440TIP3    H222812   2.631   2.987  15.109 -0.6850 -1.2368 -0.3662
  441TIP3   OH222813   2.278   5.697  15.749  0.4728 -0.2197 -0.2800
  441TIP3    H122814   2.314   5.732  15.668 -2.7281 -0.1974 -1.7543
  441TIP3    H222815   2.201   5.751  15.767 -1.0533 -2.6242  0.7084
  442TIP3   OH222816   3.253   1.701   2.476 -0.0309  0.2038 -0.1309
  442TIP3    H122817   3.201   1.726   2.400 -0.8585 -0.3591  0.2417
  442TIP3    H222818   3.340   1.682   2.441 -0.0848  1.1020 -0.7657
  443TIP3   OH222819   4.310   5.620  17.251  0.5650 -0.0051 -0.2524
  443TIP3    H122820   4.237   5.673  17.281  0.9412  0.2374  0.2450
  443TIP3    H222821   4.300   5.617  17.156 -0.1325 -0.0455 -0.1790
  444TIP3   OH222822   0.038   4.784   4.096 -0.1516  0.3694  0.6783
  444TIP3    H122823   0.046   4.713   4.031  2.7810  0.6913  0.6029
  444TIP3    H222824  -0.021   4.847   4.055 -1.9790 -1.5291  0.3049
  445TIP3   OH222825   2.799   6.625  13.257 -0.1543  0.2236  0.1097
  445TIP3    H122826   2.829   6.713  13.281 -0.5485  0.5865 -0.6966
  445TIP3    H222827   2.879   6.575  13.243  0.0777  0.8728 -0.9308
  446TIP3   OH222828   5.975   3.035   5.091 -0.4290  0.6146  0.1446
  446TIP3    H122829   5.897   3.066   5.137 -0.3654  0.9323  0.0433
  446TIP3    H222830   6.003   3.111   5.039  0.4083  0.7479  0.7916
  447TIP3   OH222831   1.594   1.604   2.734  0.1999  0.0169  0.2827
  447TIP3    H122832   1.583   1.696   2.709  1.0354  0.6269  2.0261
  447TIP3    H222833   1.518   1.559   2.697  0.6613  1.0872 -2.0417
  448TIP3   OH222834   3.434   1.783   2.154 -0.1144  0.6826  0.3849
  448TIP3    H122835   3.411   1.692   2.173  0.3082  0.4229 -0.2957
  448TIP3    H222836   3.356   1.819   2.111  0.5956 -0.1105 -1.6559
  449TIP3   OH222837   3.591   6.373   5.406 -0.2854 -0.2936 -0.1740
  449TIP3    H122838   3.565   6.446   5.461 -0.2741  0.2939 -0.9339
  449TIP3    H222839   3.542   6.298   5.440  0.0966 -0.0436  0.9295
  450TIP3   OH222840   1.083   2.596  13.968  0.3901  0.2114  0.2986
  450TIP3    H122841   1.165   2.629  14.005  0.0581  0.8325  0.4795
  450TIP3    H222842   1.015   2.625  14.029 -0.0589  0.4267 -0.2973
  451TIP3   OH222843   0.739   3.284   5.204  0.3641  0.0348  0.0949
  451TIP3    H122844   0.830   3.312   5.218  0.5312 -0.8313  0.8093
  451TIP3    H222845   0.744   3.189   5.202 -0.5187 -0.0095  0.0536
  452TIP3   OH222846   2.013   3.308  14.917  0.1127 -0.2335  0.2803
  452TIP3    H122847   2.073   3.383  14.922  0.1133 -0.1737 -0.6173
  452TIP3    H222848   1.954   3.321  14.991  1.2294 -0.3161  1.2144
  453TIP3   OH222849   3.580   1.706  11.282  0.1170 -0.5983 -0.4841
  453TIP3    H122850   3.506   1.662  11.241 -1.1072  0.7325  0.2475
  453TIP3    H222851   3.633   1.635  11.317 -1.9995 -1.5226  0.9794
  454TIP3   OH222852   2.659   1.928   3.288 -0.1349  0.6411  1.1719
  454TIP3    H122853   2.586   1.867   3.284 -0.6793  1.2709  1.3478
  454TIP3    H222854   2.623   2.007   3.329  0.5900  1.0303  1.0863
  455TIP3   OH222855   0.969   3.748  15.150 -0.3864  0.5206  0.5264
  455TIP3    H122856   0.906   3.710  15.089  0.2138  0.2854  0.0523
  455TIP3    H222857   0.970   3.841  15.127  1.8292  0.0188 -1.6508
  456TIP3   OH222858   5.639   0.951  15.532  0.5958 -0.3826 -0.2417
  456TIP3    H122859   5.597   0.948  15.618  0.4912 -0.7345 -0.3069
  456TIP3    H222860   5.580   0.904  15.474  0.6473 -0.1117 -0.5178
  457TIP3   OH222861   0.105   4.192  16.973  0.5336  0.2149 -0.6363
  457TIP3    H122862   0.096   4.100  16.994  1.4722  0.4883  1.0379
  457TIP3    H222863   0.185   4.198  16.920  0.7570  0.1302 -0.3079
  458TIP3   OH222864   4.107   1.133   5.143 -0.2126  0.1844 -0.2320
  458TIP3    H122865   4.028   1.080   5.145 -1.4341  1.9792  1.1846
  458TIP3    H222866   4.110   1.174   5.230  1.9687  0.5971 -0.4671
  459TIP3   OH222867   5.316   3.003   3.081  0.1828  0.6825 -0.0209
  459TIP3    H122868   5.294   2.923   3.033  0.2492  0.1612  0.8143
  459TIP3    H222869   5.244   3.014   3.143 -1.5013  3.0311 -2.2530
  460TIP3   OH222870   4.849   4.124  14.095 -0.6654  0.5962 -0.0301
  460TIP3    H122871   4.782   4.123  14.026 -0.7874 -1.1523  0.0920
  460TIP3    H222872   4.919   4.069  14.060 -0.9096 -0.6576  1.3937
  461TIP3   OH222873   2.312   0.686  13.945  0.1255  0.3022 -0.0835
  461TIP3    H122874   2.383   0.645  13.995  0.1832 -1.5062 -1.5895
  461TIP3    H222875   2.351   0.706  13.860 -0.4980  1.5852 -0.0798
  462TIP3   OH222876   4.635   1.038  16.942 -0.6365  0.2823  0.0702
  462TIP3    H122877   4.545   1.068  16.951 -0.8023  0.6090 -2.3801
  462TIP3    H222878   4.629   0.961  16.886  0.5788  0.0391  0.2497
  463TIP3   OH222879   6.460   2.842   2.086 -0.7304 -0.1462  0.2849
  463TIP3    H122880   6.517   2.910   2.122  2.3445 -2.1914 -0.4607
  463TIP3    H222881   6.480   2.764   2.138 -2.4679 -1.0488 -0.3630
  464TIP3   OH222882   1.172   1.610   2.792  0.0362  0.1122  0.0824
  464TIP3    H122883   1.230   1.546   2.751 -0.8229 -1.0510  0.6233
  464TIP3    H222884   1.231   1.670   2.837  0.9140  0.4856 -1.5379
  465TIP3   OH222885   4.132   1.023  13.734 -0.0831 -0.4557 -0.1885
  465TIP3    H122886   4.227   1.023  13.746 -0.2275  0.5951  1.0505
  465TIP3    H222887   4.114   0.942  13.686  1.6111  0.1414 -1.9023
  466TIP3   OH222888   2.597   6.194  15.212 -0.6512  0.5234  0.8220
  466TIP3    H122889   2.660   6.256  15.177 -0.1589 -1.0760 -1.2900
  466TIP3    H222890   2.636   6.161  15.293  1.5429 -0.8532 -0.7420
  467TIP3   OH222891   3.998   2.278  10.430  0.2566  0.0659 -0.2112
  467TIP3    H122892   4.081   2.240  10.460 -0.9649 -2.0646  0.6336
  467TIP3    H222893   3.941   2.274  10.507 -1.9030 -2.3922 -1.8287
  468TIP3   OH222894   6.024   0.563   1.705  0.3708 -0.4749 -0.5298
  468TIP3    H122895   6.036   0.641   1.759 -0.2140  0.3262 -1.5559
  468TIP3    H222896   5.936   0.532   1.727  1.2904 -1.9054  1.2317
  469TIP3   OH222897   5.661   0.772  13.547 -0.6068  0.5699  0.1052
  469TIP3    H122898   5.647   0.733  13.461 -0.2345 -1.9608  1.1414
  469TIP3    H222899   5.756   0.778  13.556 -0.6035 -0.6907  0.9818
  470TIP3   OH222900   3.919   6.580  12.154 -0.2640 -0.7957  0.6164
  470TIP3    H122901   3.942   6.667  12.189 -2.0157 -0.8607  1.9597
  470TIP3    H222902   3.877   6.599  12.070  0.8826 -0.4579  0.0985
  471TIP3   OH222903   4.928   5.407   1.374  0.1362 -0.1177  0.1535
  471TIP3    H122904   4.840   5.431   1.344 -0.1000 -0.2352  0.7588
  471TIP3    H222905   4.967   5.490   1.402 -0.2520 -0.2572  1.1182
  472TIP3   OH222906   4.429   1.175   0.969  0.0831 -0.2660  0.0115
  472TIP3    H122907   4.428   1.231   1.047  1.0584 -0.5461  0.2295
  472TIP3    H222908   4.378   1.224   0.905  0.0038  0.3741  0.5482
  473TIP3   OH222909   1.280   4.043   1.580  0.3444  0.3524 -0.2408
  473TIP3    H122910   1.227   4.013   1.654 -1.0860  0.8989 -1.0235
  473TIP3    H222911   1.362   4.072   1.619 -0.6798  1.3233  1.2218
  474TIP3   OH222912   2.631   0.306  12.102 -0.0723  0.3062  0.4706
  474TIP3    H122913   2.672   0.328  12.018 -2.3085  0.7106 -0.5608
  474TIP3    H222914   2.577   0.382  12.123 -4.0205 -2.0273 -0.6491
  475TIP3   OH222915   4.841   5.373   3.451  0.1004  0.5696  0.1466
  475TIP3    H122916   4.843   5.279   3.467 -1.5115  0.4698 -0.2204
  475TIP3    H222917   4.798   5.410   3.528  1.1359  1.0711  0.5015
  476TIP3   OH222918   3.532   2.761  15.772 -0.1079 -0.1898  0.2558
  476TIP3    H122919   3.507   2.671  15.751  0.0492  0.2731 -2.0696
  476TIP3    H222920   3.545   2.761  15.867  1.7975 -3.1196  0.0618
  477TIP3   OH222921   1.423   0.640  16.973 -0.3000  0.7933  0.4096
  477TIP3    H122922   1.474   0.619  17.051 -0.0606 -0.8843 -0.1800
  477TIP3    H222923   1.478   0.700  16.923  0.8120 -0.4390  0.1260
  478TIP3   OH222924   3.553   5.953  16.475 -1.0220  0.0392 -0.0076
  478TIP3    H122925   3.636   5.919  16.508 -1.4324 -0.0973  0.8925
  478TIP3    H222926   3.578   6.016  16.408 -0.1752  0.2532  0.5051
  479TIP3   OH222927   3.733   0.145   1.585  0.1487 -0.0393  0.3672
  479TIP3    H122928   3.756   0.113   1.672  0.7520  1.0430  0.6088
  479TIP3    H222929   3.809   0.195   1.557  0.4282 -1.3499 -1.2749
  480TIP3   OH222930   4.114   6.187   5.154 -0.1498 -0.2551 -0.0989
  480TIP3    H122931   4.180   6.221   5.093  0.8750 -0.9144  0.6261
  480TIP3    H222932   4.034   6.235   5.132  0.8606  1.4215 -0.2062
  481TIP3   OH222933   2.899   4.954  11.890 -0.1069  0.0941  0.0842
  481TIP3    H122934   2.946   4.896  11.831  0.2367 -0.7266  1.1617
  481TIP3    H222935   2.901   4.910  11.975 -3.5645 -0.4072 -0.0195
  482TIP3   OH222936   4.615   6.092  11.993 -0.2408  0.0146 -0.7003
  482TIP3    H122937   4.672   6.026  11.952 -1.3864 -0.3331 -1.7653
  482TIP3    H222938   4.624   6.169  11.936  1.7658  1.1129  1.0149
  483TIP3   OH222939   0.534   2.030  12.078  0.1812 -0.5311  0.4428
  483TIP3    H122940   0.578   1.958  12.125  0.5202 -1.1464 -0.7942
  483TIP3    H222941   0.582   2.037  11.995  0.8543  1.8679  0.9916
  484TIP3   OH222942   0.942   1.886  12.056  0.0619  0.0210  0.0321
  484TIP3    H122943   0.910   1.974  12.076 -1.1550 -0.3325 -0.2834
  484TIP3    H222944   0.931   1.877  11.962  0.5602 -0.3258  0.0039
  485TIP3   OH222945   1.155   2.561  17.057  0.1948  0.1578  0.5001
  485TIP3    H122946   1.119   2.554  16.968 -1.2269  2.0698  0.9087
  485TIP3    H222947   1.209   2.640  17.056  1.1702 -0.4921  1.0091
  486TIP3   OH222948   2.160   4.701  12.388  0.1886 -0.7225  0.1958
  486TIP3    H122949   2.195   4.614  12.368 -0.0568 -0.6086 -0.7611
  486TIP3    H222950   2.227   4.742  12.444  1.0862 -0.9099 -0.7223
  487TIP3   OH222951   2.598   4.793   4.782  0.1640 -0.4420 -0.1262
  487TIP3    H122952   2.590   4.701   4.808  0.7141 -0.3842  0.2523
  487TIP3    H222953   2.521   4.836   4.821 -0.2851 -0.8076 -0.6086
  488TIP3   OH222954   3.270   2.361   5.061  0.1726 -0.0703 -0.3806
  488TIP3    H122955   3.217   2.295   5.107 -0.8593 -0.0081 -1.4783
  488TIP3    H222956   3.273   2.330   4.971  0.3052  1.0168 -0.7433
  489TIP3   OH222957   5.098   5.628  10.557  0.1029 -0.3085 -0.4047
  489TIP3    H122958   5.162   5.647  10.488  0.5026  1.4502  0.4325
  489TIP3    H222959   5.024   5.589  10.510  0.6534  0.2040 -1.7356
  490TIP3   OH222960   1.330   5.688   3.354 -0.0880 -0.0690 -0.0327
  490TIP3    H122961   1.342   5.741   3.433  0.2127  2.4873 -1.7246
  490TIP3    H222962   1.419   5.674   3.321 -0.2367 -0.7192 -0.1507
  491TIP3   OH222963   1.989   1.106   1.525  0.5889 -0.4496  0.1716
  491TIP3    H122964   1.951   1.064   1.602  0.9019  1.7338  1.5904
  491TIP3    H222965   1.915   1.147   1.481  0.8417  1.1844  1.2253
  492TIP3   OH222966   4.140   3.320   5.667 -0.3213 -0.4755 -0.2763
  492TIP3    H122967   4.055   3.292   5.634  0.0964 -1.6678 -0.3506
  492TIP3    H222968   4.197   3.324   5.590 -0.3674  0.5852 -0.2704
  493TIP3   OH222969   3.660   4.186   0.403  0.0776 -0.6462  0.1547
  493TIP3    H122970   3.739   4.240   0.404  0.4897 -1.2411  0.5877
  493TIP3    H222971   3.602   4.229   0.341  0.6775 -0.1032 -0.0372
  494TIP3   OH222972   5.103   4.484  12.295 -0.5540 -0.3929  0.1466
  494TIP3    H122973   5.019   4.449  12.265 -0.8477 -0.3360  0.8881
  494TIP3    H222974   5.101   4.576  12.270  0.0588 -0.8109 -1.4641
  495TIP3   OH222975   2.359   4.774  10.840 -0.2597  0.6519  0.5495
  495TIP3    H122976   2.284   4.716  10.822 -0.0447 -0.2630  2.4811
  495TIP3    H222977   2.330   4.860  10.810 -1.1786 -0.1306 -0.9161
  496TIP3   OH222978   5.539   2.124   2.374  0.5580  0.6006 -0.0214
  496TIP3    H122979   5.480   2.177   2.320  0.6623 -0.0347 -0.7603
  496TIP3    H222980   5.487   2.047   2.396  1.1648 -0.0362 -0.8066
  497TIP3   OH222981   1.752   1.009  16.310  0.4559  0.0957  0.2333
  497TIP3    H122982   1.722   0.922  16.287  0.9304  0.0886 -0.3989
  497TIP3    H222983   1.766   1.006  16.404  0.0498 -0.3792  0.2812
  498TIP3   OH222984   2.404   2.976   5.325 -0.5078 -0.3425 -0.0877
  498TIP3    H122985   2.315   3.008   5.309  0.2953  1.3077 -1.2555
  498TIP3    H222986   2.460   3.030   5.270  1.4944  0.2960  2.4551
  499TIP3   OH222987   3.728   3.613  17.188  0.5296  0.3139  0.5281
  499TIP3    H122988   3.725   3.530  17.139 -0.1195  1.1455 -0.8582
  499TIP3    H222989   3.805   3.605  17.244  0.1742 -1.4463  0.8085
  500TIP3   OH222990   3.644   0.003   2.267  0.3854 -0.2900  0.2730
  500TIP3    H122991   3.707  -0.068   2.259  0.3333 -0.2143 -0.9442
  500TIP3    H222992   3.559  -0.040   2.274  0.2098 -0.3473 -1.9119
  501TIP3   OH222993   0.994   6.214   0.337 -0.3310  0.2386 -0.3169
  501TIP3    H122994   0.972   6.147   0.401 -0.9310 -0.7781 -1.5573
  501TIP3    H222995   0.909   6.249   0.309 -0.1781 -0.4172 -1.6710
  502TIP3   OH222996   1.651   1.819   2.012 -0.2249 -0.4147 -0.1648
  502TIP3    H122997   1.577   1.790   2.065  1.2413 -0.2479  2.0370
  502TIP3    H222998   1.714   1.747   2.015  1.0263  0.6678  0.6204
  503TIP3   OH222999   3.299   5.928  11.272 -0.3796 -0.2740 -0.3491
  503TIP3    H123000   3.378   5.963  11.312 -0.8952  0.2044  0.2623
  503TIP3    H223001   3.302   5.834  11.290  0.4404 -0.3732 -1.0095
  504TIP3   OH223002   4.748   4.509   5.410  0.0965  0.2855  0.9931
  504TIP3    H123003   4.772   4.571   5.341 -0.8825  1.2284  1.4901
  504TIP3    H223004   4.831   4.471   5.438  0.4895 -0.3015 -0.8770
  505TIP3   OH223005   1.272   1.258  17.075 -0.6398  0.0370 -0.3401
  505TIP3    H123006   1.186   1.236  17.113  0.4030 -1.5620  1.1846
  505TIP3    H223007   1.318   1.174  17.072  0.9627  0.9296 -0.9732
  506TIP3   OH223008   1.228   3.972   1.102  0.4356 -0.1816  0.0978
  506TIP3    H123009   1.323   3.984   1.109  0.4844  0.9983 -2.1576
  506TIP3    H223010   1.196   3.978   1.192  2.5204 -0.8557  0.9122
  507TIP3   OH223011   3.726   0.792  17.046  0.4893  0.1029 -0.2644
  507TIP3    H123012   3.746   0.812  16.954  1.2114 -0.9365 -0.3484
  507TIP3    H223013   3.807   0.812  17.093  1.3514 -2.7682 -0.3969
  508TIP3   OH223014   0.610   1.750   2.686  0.0313 -0.3730 -0.2413
  508TIP3    H123015   0.690   1.796   2.661 -0.7101 -0.1622 -2.3379
  508TIP3    H223016   0.542   1.817   2.684 -0.0766 -0.3760  2.3463
  509TIP3   OH223017   0.914   6.602  15.518  0.6364 -0.2360 -0.4293
  509TIP3    H123018   0.961   6.682  15.495 -0.4461  0.3784 -0.5185
  509TIP3    H223019   0.822   6.622  15.500  0.3112 -1.3443 -0.0246
  510TIP3   OH223020   4.710   5.931   5.525  0.1889  0.0679 -0.3158
  510TIP3    H123021   4.690   5.849   5.569 -0.3672  1.4568  2.1174
  510TIP3    H223022   4.803   5.926   5.503  0.1988 -1.1129  0.0056
  511TIP3   OH223023   6.718   1.152   5.982 -0.6590  0.1725 -0.0952
  511TIP3    H123024   6.717   1.057   5.983  0.6029  0.1481 -0.3782
  511TIP3    H223025   6.770   1.177   6.059  2.2616  0.5203 -2.0951
  512TIP3   OH223026   3.495   4.991  15.690 -0.3561 -0.3040 -0.1648
  512TIP3    H123027   3.499   4.908  15.643  0.4628 -0.2521 -0.2031
  512TIP3    H223028   3.483   5.057  15.621 -0.1189 -0.3147 -0.2174
  513TIP3   OH223029   4.994   5.966  16.239 -0.2262 -0.1756 -0.0155
  513TIP3    H123030   5.018   5.990  16.149 -1.4744  0.4182 -0.1998
  513TIP3    H223031   4.960   6.046  16.277  0.2267 -0.4457  0.9858
  514TIP3   OH223032   2.177   0.927  13.748  0.1146 -0.3861 -0.8557
  514TIP3    H123033   2.240   0.858  13.727  0.0776 -1.7704  3.1423
  514TIP3    H223034   2.093   0.881  13.757 -0.3915  0.5779 -0.5930
  515TIP3   OH223035   1.446   2.921   1.032 -0.1407  0.4594  0.2183
  515TIP3    H123036   1.411   2.832   1.023  1.4289 -0.3167  1.6807
  515TIP3    H223037   1.446   2.955   0.942 -2.5377 -0.3080 -0.1116
  516TIP3   OH223038   2.691   5.076   3.391 -0.1198 -0.4648  0.2030
  516TIP3    H123039   2.635   5.109   3.461 -1.6044 -1.0657 -0.6751
  516TIP3    H223040   2.634   5.021   3.338  1.3380 -1.1889 -0.6623
  517TIP3   OH223041   4.896   2.595  14.494 -0.2705  0.0344  0.1265
  517TIP3    H123042   4.905   2.533  14.421  0.6710 -1.5694  1.5647
  517TIP3    H223043   4.833   2.660  14.462  3.4306  1.9642 -3.8110
  518TIP3   OH223044   5.390   2.333   3.032 -0.2663 -0.0830 -0.2781
  518TIP3    H123045   5.337   2.412   3.027 -0.2064 -0.0173  0.1016
  518TIP3    H223046   5.429   2.324   2.945 -2.6755 -1.3822 -1.2668
  519TIP3   OH223047   2.956   3.990   2.472  0.4838 -0.5133  0.0208
  519TIP3    H123048   2.991   4.010   2.559 -0.0171 -0.2780  0.1680
  519TIP3    H223049   3.027   4.014   2.412  0.4245  0.3562  0.2957
  520TIP3   OH223050   6.476   4.222   5.668 -0.4412 -0.4779 -0.4305
  520TIP3    H123051   6.510   4.141   5.630 -2.7366 -1.6305 -0.1216
  520TIP3    H223052   6.515   4.226   5.755  1.6760  0.0790 -1.3885
  521TIP3   OH223053   0.601   6.452   0.043  0.6522  0.3139  0.3651
  521TIP3    H123054   0.507   6.429   0.041  0.9175 -0.6924 -1.9435
  521TIP3    H223055   0.645   6.368   0.052  1.3354  0.9172  3.2231
  522TIP3   OH223056   3.271   5.687  12.688  0.1449  0.2688  0.1986
  522TIP3    H123057   3.242   5.721  12.772  0.2562 -0.1103  0.3930
  522TIP3    H223058   3.335   5.619  12.710  2.0728  1.8711 -0.2486
  523TIP3   OH223059   0.339   5.979   5.734 -0.1450  0.4613 -0.1544
  523TIP3    H123060   0.320   5.934   5.652 -0.8989 -0.3709  0.4593
  523TIP3    H223061   0.429   6.009   5.725 -0.4769  1.0709 -1.5916
  524TIP3   OH223062   0.602   4.184   0.491  0.5610 -0.4555  0.4099
  524TIP3    H123063   0.611   4.238   0.413  2.0032  1.4143  1.8195
  524TIP3    H223064   0.563   4.102   0.460 -2.2997  1.6180 -1.7000
  525TIP3   OH223065   4.708   0.286   4.506  0.0101 -0.1672  0.0413
  525TIP3    H123066   4.759   0.206   4.521 -1.4375 -1.1735 -0.2976
  525TIP3    H223067   4.650   0.292   4.583  0.8299  1.1262  0.5673
  526TIP3   OH223068   2.672   5.500  16.190 -0.1575 -0.0417  0.3251
  526TIP3    H123069   2.759   5.472  16.218 -0.6716 -0.6127  1.3925
  526TIP3    H223070   2.679   5.510  16.095  1.9261  3.0671  0.7363
  527TIP3   OH223071   1.768   0.696  12.103  0.3979 -0.3805 -0.1575
  527TIP3    H123072   1.682   0.705  12.061  0.0004 -1.3559  0.4358
  527TIP3    H223073   1.760   0.746  12.185  0.0051 -1.4278  0.4565
  528TIP3   OH223074   4.069   0.580   0.366  0.2207  0.4979 -0.3121
  528TIP3    H123075   4.060   0.632   0.286 -0.5784  0.8554  0.0054
  528TIP3    H223076   3.979   0.561   0.393  0.4448  1.4508  1.1801
  529TIP3   OH223077   2.273   5.771  12.372  0.1533  0.0184  0.2948
  529TIP3    H123078   2.364   5.756  12.398  0.8906 -1.2500 -2.8257
  529TIP3    H223079   2.279   5.826  12.294 -1.6520 -1.2240 -0.7724
  530TIP3   OH223080   3.936   3.407  17.055 -0.0330 -0.3837  0.5001
  530TIP3    H123081   3.902   3.324  17.089  0.6673 -0.6404  0.5992
  530TIP3    H223082   4.028   3.387  17.034  0.2816  0.5036  1.0046
  531TIP3   OH223083   3.354   0.161  13.179 -0.1753  0.6334  0.5845
  531TIP3    H123084   3.271   0.208  13.186  0.4469  1.8707 -0.2633
  531TIP3    H223085   3.420   0.229  13.164  0.5159 -0.6136 -2.4022
  532TIP3   OH223086   4.418   4.990   1.248 -0.7734 -0.6083  0.4161
  532TIP3    H123087   4.331   5.023   1.272 -0.2271  0.2796  1.2348
  532TIP3    H223088   4.436   5.030   1.163 -1.0456 -0.5451  0.3870
  533TIP3   OH223089   4.038   3.178  11.844  0.3392  0.0753  0.5901
  533TIP3    H123090   4.016   3.203  11.933  0.9681  2.4420  0.1282
  533TIP3    H223091   4.125   3.139  11.851 -0.7908 -2.4168  1.3688
  534TIP3   OH223092   4.391   6.387   2.361  0.2742  0.4322 -0.3137
  534TIP3    H123093   4.426   6.394   2.272 -0.7374  0.1952 -0.7345
  534TIP3    H223094   4.387   6.293   2.378  1.9028  0.5175  0.5593
  535TIP3   OH223095   5.349   1.326  15.307  0.1178  0.4232 -0.1316
  535TIP3    H123096   5.257   1.353  15.302  0.1686  0.4166 -1.3471
  535TIP3    H223097   5.398   1.403  15.277  0.4827  0.2954  0.1335
  536TIP3   OH223098   1.570   5.296   3.894  0.1787  0.3928  0.5776
  536TIP3    H123099   1.509   5.222   3.901 -0.6094  0.7217 -2.2362
  536TIP3    H223100   1.513   5.372   3.882  1.0670  1.0144  0.2752
  537TIP3   OH223101   0.457   1.425   1.477 -0.3482  0.2166 -0.1921
  537TIP3    H123102   0.444   1.519   1.489  1.2651  0.2624  1.3454
  537TIP3    H223103   0.448   1.412   1.382  0.7433  2.1450 -0.5956
  538TIP3   OH223104   1.016   4.007   2.053  0.9701  0.1303 -0.0886
  538TIP3    H123105   1.051   4.083   2.100 -0.2313  0.7518 -0.1810
  538TIP3    H223106   1.022   3.936   2.116  0.9517  0.5751  0.4229
  539TIP3   OH223107   2.714   3.769   2.925 -0.1675 -0.1189  0.6895
  539TIP3    H123108   2.678   3.858   2.918  1.5006  0.4233 -1.9173
  539TIP3    H223109   2.696   3.742   3.015 -1.8862  2.3484  1.1317
  540TIP3   OH223110   3.716   5.193   2.244 -0.6394  0.0690  0.6791
  540TIP3    H123111   3.778   5.196   2.171 -0.5007  0.5575  0.8140
  540TIP3    H223112   3.738   5.113   2.291  1.1042  1.1472  1.7783
  541TIP3   OH223113   4.718   6.759   4.221 -0.1167 -0.1133  0.2689
  541TIP3    H123114   4.792   6.705   4.247 -1.2417 -2.5143 -1.2995
  541TIP3    H223115   4.662   6.762   4.299 -0.7008 -2.4243 -0.0207
  542TIP3   OH223116   1.385   3.214  15.943  0.0600 -0.2430 -0.2176
  542TIP3    H123117   1.330   3.161  16.000 -0.1379  0.2339  0.0362
  542TIP3    H223118   1.357   3.192  15.854  0.5579 -1.1908 -0.1403
  543TIP3   OH223119   2.129   5.951  17.162 -0.2055 -0.3257  0.2096
  543TIP3    H123120   2.217   5.914  17.157  0.1933  0.9216 -3.5826
  543TIP3    H223121   2.141   6.035  17.206  0.6515  0.2260 -1.0609
  544TIP3   OH223122   1.774   5.877  10.782 -0.0520 -0.1577  0.1555
  544TIP3    H123123   1.845   5.941  10.790 -0.5232  0.5524 -1.1772
  544TIP3    H223124   1.695   5.927  10.802 -0.1320 -1.1491  2.4987
  545TIP3   OH223125   3.808   2.179   5.984 -0.3029 -0.5518  0.3359
  545TIP3    H123126   3.715   2.183   5.964  0.0303 -1.2100 -1.4785
  545TIP3    H223127   3.851   2.205   5.902  1.1075 -0.2828  1.1387
  546TIP3   OH223128   3.083   5.578  13.947 -0.4910  0.1924  0.7529
  546TIP3    H123129   3.002   5.533  13.924  0.0195  0.1304 -1.0244
  546TIP3    H223130   3.096   5.560  14.040 -1.2275 -1.8529  0.4887
  547TIP3   OH223131   2.287   1.288  12.089 -0.1824  0.6178 -0.6154
  547TIP3    H123132   2.303   1.199  12.057 -1.2690  0.0749  0.2778
  547TIP3    H223133   2.195   1.305  12.066  0.0071  1.4978 -0.7398
  548TIP3   OH223134   2.002   0.676   2.623  0.0932  0.2919  0.1906
  548TIP3    H123135   1.915   0.641   2.605 -0.0080 -0.5695  2.3197
  548TIP3    H223136   1.988   0.771   2.632 -0.1776  0.4972 -2.0547
  549TIP3   OH223137   0.613   0.957  12.197  0.3262  0.8168  0.1707
  549TIP3    H123138   0.633   1.050  12.190 -0.2724  0.8368 -1.4095
  549TIP3    H223139   0.697   0.913  12.179  0.0021  1.0022 -1.8816
  550TIP3   OH223140   1.854   0.185   3.556 -0.1686 -0.3446 -0.5338
  550TIP3    H123141   1.885   0.246   3.489  1.0234  0.9721  1.1432
  550TIP3    H223142   1.787   0.234   3.604  0.0967 -0.6979  0.2108
  551TIP3   OH223143   1.753   2.144  11.629 -0.4675  1.0176  0.1874
  551TIP3    H123144   1.834   2.105  11.596 -0.7657 -0.4726  1.1628
  551TIP3    H223145   1.704   2.167  11.550  0.3097  0.6308 -0.4151
  552TIP3   OH223146   4.411   2.041   3.915  0.3084  0.2870  0.0738
  552TIP3    H123147   4.371   2.127   3.930  0.3047  0.4847 -1.0763
  552TIP3    H223148   4.456   2.050   3.831 -1.1136 -1.3601 -0.8905
  553TIP3   OH223149   5.405   2.287  12.924 -0.0654 -0.3645 -0.6189
  553TIP3    H123150   5.398   2.271  12.830  0.6350  0.7885 -0.8857
  553TIP3    H223151   5.495   2.317  12.937 -1.0452  2.5140 -0.0737
  554TIP3   OH223152   3.405   2.644  14.761  0.2100 -0.1067 -0.2416
  554TIP3    H123153   3.448   2.656  14.846 -1.0304 -1.4185  0.6068
  554TIP3    H223154   3.415   2.728  14.717  1.5851  0.3386  0.8788
  555TIP3   OH223155   2.264   2.339  12.095  0.4760  0.0964 -0.1935
  555TIP3    H123156   2.325   2.319  12.024  1.5343 -0.9382  0.9969
  555TIP3    H223157   2.308   2.310  12.174 -1.6555 -0.9079  0.6723
  556TIP3   OH223158   5.226   5.627  17.110 -1.0573  0.1073  0.5889
  556TIP3    H123159   5.305   5.618  17.164 -0.0786  1.3635 -0.5714
  556TIP3    H223160   5.172   5.690  17.157 -1.0361 -0.1976  1.0245
  557TIP3   OH223161   6.269   1.474  11.291  0.0082  0.6731  0.9594
  557TIP3    H123162   6.271   1.504  11.201 -3.3716  0.7606  0.8413
  557TIP3    H223163   6.359   1.486  11.323  1.1871  0.8677 -2.2688
  558TIP3   OH223164   5.702   3.447   2.887  0.2744 -0.0671 -0.2475
  558TIP3    H123165   5.618   3.410   2.914 -0.3024  0.3917 -1.3441
  558TIP3    H223166   5.766   3.379   2.906 -0.2356 -0.1259  1.3063
  559TIP3   OH223167   0.912   0.183   0.135  0.5349 -0.5537 -0.0307
  559TIP3    H123168   0.931   0.149   0.222  0.8580  1.2026  0.6183
  559TIP3    H223169   0.948   0.118   0.075  1.7613 -1.0056  1.1684
  560TIP3   OH223170   0.954   4.592   3.681 -0.9182  0.2307  0.0267
  560TIP3    H123171   1.035   4.629   3.645 -0.8248  0.9907  0.9859
  560TIP3    H223172   0.979   4.505   3.712 -0.3851  0.5971  0.6335
  561TIP3   OH223173   2.438   1.808  13.533 -0.5893  0.2588  0.0708
  561TIP3    H123174   2.383   1.810  13.455 -0.6081  0.9406  0.1021
  561TIP3    H223175   2.521   1.771  13.503 -1.3244 -1.5482  0.2000
  562TIP3   OH223176   2.073   4.406  13.784 -0.1559  0.2870 -0.8350
  562TIP3    H123177   2.118   4.487  13.809  0.8704 -0.5132 -0.0124
  562TIP3    H223178   2.050   4.418  13.692  1.1780  0.9901 -1.0868
  563TIP3   OH223179   2.388   4.563   5.119 -0.0354 -0.6407  0.1718
  563TIP3    H123180   2.428   4.649   5.133 -2.9024  1.1073 -1.9423
  563TIP3    H223181   2.308   4.564   5.171 -0.6853 -1.5895 -0.7860
  564TIP3   OH223182   1.676   3.246  11.062 -0.5000 -0.1416  0.5897
  564TIP3    H123183   1.581   3.255  11.061 -0.5559 -0.6918 -0.1492
  564TIP3    H223184   1.709   3.333  11.086 -1.1591  0.4107 -0.4594
  565TIP3   OH223185   3.783   0.751  11.341  0.5291 -0.2306  0.4267
  565TIP3    H123186   3.750   0.837  11.314 -0.9055 -0.8550  0.1083
  565TIP3    H223187   3.744   0.737  11.427  0.1790 -0.8776  0.1611
  566TIP3   OH223188   0.513   2.865   3.202  0.3206 -0.1303  0.0111
  566TIP3    H123189   0.466   2.910   3.131  0.9520  0.7878  0.1670
  566TIP3    H223190   0.447   2.853   3.270 -0.2028 -0.6930 -0.5791
  567TIP3   OH223191   4.929   6.085   0.779 -0.1941  0.3467 -0.4509
  567TIP3    H123192   5.021   6.093   0.753  0.1652  0.0029  0.7000
  567TIP3    H223193   4.900   6.002   0.741  0.0564  0.3106 -0.5601
  568TIP3   OH223194   4.114   1.390  16.004 -0.2197  0.3311  0.1076
  568TIP3    H123195   4.178   1.451  15.968  0.2165  1.3235  2.4397
  568TIP3    H223196   4.151   1.303  15.988  1.3549  0.8693  0.7221
  569TIP3   OH223197   1.011   1.998  15.971 -0.4832  0.1592 -0.5240
  569TIP3    H123198   1.019   1.902  15.974  1.9793  0.3515 -0.0339
  569TIP3    H223199   0.993   2.024  16.061  0.6163  0.2899 -0.3391
  570TIP3   OH223200   0.442   6.678  11.442 -0.4713  0.4840 -0.5514
  570TIP3    H123201   0.481   6.758  11.407 -2.2668  1.3303 -0.6947
  570TIP3    H223202   0.455   6.613  11.372 -1.2288  1.3266 -1.5007
  571TIP3   OH223203   3.198   4.017  13.171 -0.2920 -0.5234 -0.3770
  571TIP3    H123204   3.219   3.925  13.188 -2.4610 -0.4313  3.2135
  571TIP3    H223205   3.225   4.063  13.250  1.6484  2.1784 -2.4763
  572TIP3   OH223206   5.510   6.222   4.301  0.0187  0.4597 -0.0553
  572TIP3    H123207   5.462   6.292   4.344  0.7212  1.3976 -0.7778
  572TIP3    H223208   5.460   6.203   4.223 -1.6765 -1.7738  1.5120
  573TIP3   OH223209   4.761   2.461  12.874 -0.0682  0.6525 -0.0747
  573TIP3    H123210   4.751   2.477  12.781  1.6896  0.6458 -0.2829
  573TIP3    H223211   4.773   2.366  12.881 -2.2515  0.3871  0.3692
  574TIP3   OH223212   0.142   2.603   1.053  0.2312 -0.0514  0.7836
  574TIP3    H123213   0.194   2.664   1.106  1.7483 -1.0208  0.4395
  574TIP3    H223214   0.097   2.548   1.118 -2.1639  2.2127  1.1215
  575TIP3   OH223215   5.892   4.052  16.364  0.7076 -0.9100 -0.0957
  575TIP3    H123216   5.802   4.083  16.375  0.5717 -1.6154  0.7943
  575TIP3    H223217   5.931   4.113  16.301 -0.3040 -0.4255 -0.2550
  576TIP3   OH223218   5.680   5.859  17.136 -0.0627  0.3310  0.0334
  576TIP3    H123219   5.757   5.818  17.096  0.0866  0.0989  0.5573
  576TIP3    H223220   5.646   5.917  17.068  1.6449  1.8283  0.4175
  577TIP3   OH223221   6.094   3.449  16.426  0.3021  0.0953 -0.8146
  577TIP3    H123222   6.011   3.429  16.384  0.4940 -0.2109 -1.0458
  577TIP3    H223223   6.082   3.537  16.463 -0.8887 -0.8371  1.0798
  578TIP3   OH223224   0.077   6.340   3.389 -0.1882 -0.3571 -0.2830
  578TIP3    H123225   0.028   6.412   3.428  0.7915  0.6712 -0.9151
  578TIP3    H223226   0.116   6.293   3.463  1.0285  1.1194  0.0375
  579TIP3   OH223227   0.468   6.375  15.166  0.4031 -0.6693 -0.0933
  579TIP3    H123228   0.474   6.471  15.164 -4.1677 -0.2893 -0.9106
  579TIP3    H223229   0.499   6.348  15.079  3.1568 -0.1304  0.6602
  580TIP3   OH223230   5.230   0.062   1.931  0.5015 -0.1864  0.1638
  580TIP3    H123231   5.325   0.065   1.946  0.8646 -0.4479 -1.9197
  580TIP3    H223232   5.198   0.147   1.962  1.2913 -0.3877  1.5734
  581TIP3   OH223233   2.716   5.893   0.123  0.8048  0.2402 -0.0028
  581TIP3    H123234   2.636   5.869   0.075  0.4482  0.7687  0.3317
  581TIP3    H223235   2.787   5.856   0.070  0.3308 -0.3814 -0.2133
  582TIP3   OH223236   4.082   5.252  14.099 -0.0970  0.0408  0.0376
  582TIP3    H123237   4.056   5.343  14.081 -1.7000 -0.3592  0.2745
  582TIP3    H223238   4.039   5.230  14.181  0.5559 -0.8374  0.1543
  583TIP3   OH223239   0.812   2.800   1.257 -0.3939  0.4158  0.1179
  583TIP3    H123240   0.895   2.757   1.236 -0.9619 -0.6831  0.0548
  583TIP3    H223241   0.837   2.876   1.309  0.5642 -0.8747  1.6021
  584TIP3   OH223242   2.211   0.860  14.886 -0.0032 -0.3138  0.1300
  584TIP3    H123243   2.256   0.888  14.806 -0.6589 -0.2055 -0.2115
  584TIP3    H223244   2.228   0.930  14.949 -0.1794  0.0092 -0.1787
  585TIP3   OH223245   2.224   2.878  13.151  0.0265 -0.4004  0.1919
  585TIP3    H123246   2.210   2.966  13.184 -0.2164 -0.7474  1.0185
  585TIP3    H223247   2.291   2.841  13.208 -1.9180 -1.7403  1.6764
  586TIP3   OH223248   5.451   1.637  13.085 -0.0226 -0.0677 -0.2453
  586TIP3    H123249   5.446   1.554  13.132  2.2376  0.2266  0.5928
  586TIP3    H223250   5.392   1.695  13.134 -0.9792 -0.9424 -0.3474
  587TIP3   OH223251   4.481   5.638   1.826 -0.0982 -0.2936 -0.1388
  587TIP3    H123252   4.405   5.695   1.810  0.8157  0.4922 -1.8348
  587TIP3    H223253   4.459   5.591   1.907 -2.1456  0.3185 -0.3045
  588TIP3   OH223254   4.210   5.182   0.535 -0.4126  0.1710 -0.2416
  588TIP3    H123255   4.152   5.107   0.546 -1.3722  0.8679 -0.4777
  588TIP3    H223256   4.153   5.259   0.546  1.0076  0.8919  2.4028
  589TIP3   OH223257   1.899   1.762  16.741 -0.3389  0.0660  0.3205
  589TIP3    H123258   1.831   1.746  16.806  0.5637 -0.0186  1.2601
  589TIP3    H223259   1.902   1.857  16.732  0.6791  0.1789  1.6684
  590TIP3   OH223260   4.229   4.240  17.056  0.2763 -0.4438 -0.5017
  590TIP3    H123261   4.244   4.308  16.991  0.9746  0.5172  0.6486
  590TIP3    H223262   4.137   4.250  17.081  0.5343  0.4802  0.1039
  591TIP3   OH223263   4.710   0.622   2.186  0.1895 -0.2365 -0.7578
  591TIP3    H123264   4.694   0.694   2.126  0.8064  1.1028  0.6744
  591TIP3    H223265   4.630   0.616   2.238  0.7603  0.4625  0.2039
  592TIP3   OH223266   4.210   6.779  11.386 -0.1900  0.2910  0.3416
  592TIP3    H123267   4.157   6.853  11.358  0.7450 -0.1463 -2.7013
  592TIP3    H223268   4.297   6.797  11.351  0.8509 -0.6862  2.3398
  593TIP3   OH223269   2.704   5.781  12.295  0.0999  0.0493  0.0704
  593TIP3    H123270   2.731   5.835  12.368  1.1378 -1.9122  1.1822
  593TIP3    H223271   2.781   5.728  12.274 -0.7381 -0.6666 -1.2893
  594TIP3   OH223272   2.819   5.046   2.279  0.3080 -0.2863 -0.1938
  594TIP3    H123273   2.743   5.088   2.320  1.8443 -0.3211  2.8060
  594TIP3    H223274   2.790   4.956   2.262 -0.3686 -0.2546  0.7917
  595TIP3   OH223275   3.303   6.528  12.912 -0.1973 -0.6254 -0.4079
  595TIP3    H123276   3.264   6.601  12.960  0.7029 -2.4214  3.1938
  595TIP3    H223277   3.233   6.498  12.853 -1.6031  1.1180  0.3336
  596TIP3   OH223278   5.342   4.142  15.998  0.1337  0.0662 -0.3966
  596TIP3    H123279   5.427   4.162  15.957 -0.3836 -1.7966 -2.5253
  596TIP3    H223280   5.279   4.148  15.926 -0.8207 -3.2647  0.0747
  597TIP3   OH223281   2.141   1.996  16.282  0.1936 -0.9259 -0.6401
  597TIP3    H123282   2.145   1.958  16.194 -0.6237 -1.3109 -0.5233
  597TIP3    H223283   2.055   2.038  16.286  0.1107 -1.1593  0.0735
  598TIP3   OH223284   2.817   3.578  16.865 -0.4164  0.5438 -0.0868
  598TIP3    H123285   2.775   3.570  16.779 -0.0742 -0.3188 -0.1762
  598TIP3    H223286   2.909   3.556  16.849 -0.3898  0.2028  0.5293
  599TIP3   OH223287   0.644   5.401   4.879 -0.2221  0.0348  0.0228
  599TIP3    H123288   0.647   5.316   4.922  0.3394  0.2279  0.3600
  599TIP3    H223289   0.678   5.462   4.944  0.7697  0.3053 -0.7538
  600TIP3   OH223290   0.589   3.037  17.121 -0.2680  0.3735  0.1802
  600TIP3    H123291   0.506   3.056  17.078 -0.8964  0.5907  1.4503
  600TIP3    H223292   0.618   2.954  17.083 -0.2893  1.0708 -1.3744
  601TIP3   OH223293   2.817   3.338  14.871 -0.1131 -0.0532  0.1164
  601TIP3    H123294   2.867   3.420  14.864  1.3697 -0.9592 -0.1391
  601TIP3    H223295   2.730   3.361  14.839  0.3540  1.3759 -0.1894
  602TIP3   OH223296   1.914   5.176   5.288  0.1411  0.0580  0.2257
  602TIP3    H123297   1.865   5.243   5.239  0.0996  0.3845  0.7051
  602TIP3    H223298   1.991   5.158   5.233 -0.5101 -0.4622 -0.5355
  603TIP3   OH223299   5.001   5.746  15.611  0.2967 -0.5285 -0.5471
  603TIP3    H123300   4.955   5.754  15.695  0.8855 -0.9854 -0.1776
  603TIP3    H223301   4.969   5.820  15.560 -0.6247 -0.6723 -0.1896
  604TIP3   OH223302   1.343   4.081  12.381  0.5164 -0.0041  0.3250
  604TIP3    H123303   1.360   4.149  12.446 -0.5920 -0.2124  0.8463
  604TIP3    H223304   1.426   4.034  12.373  1.6143  2.0738 -0.8381
  605TIP3   OH223305   3.814   4.234  14.605  0.1541 -0.1866 -0.5510
  605TIP3    H123306   3.899   4.252  14.644 -0.7579 -1.1041  1.9574
  605TIP3    H223307   3.816   4.140  14.586 -1.0651 -0.6404  1.4912
  606TIP3   OH223308   2.664   3.212  11.294  0.7243  0.3090  0.0912
  606TIP3    H123309   2.710   3.147  11.241  0.4092 -0.7244  1.0914
  606TIP3    H223310   2.732   3.274  11.320  1.0302  0.3678 -0.8307
  607TIP3   OH223311   6.263   2.452   2.469  0.4084  0.2333 -0.3975
  607TIP3    H123312   6.207   2.389   2.515 -1.1471  0.1317 -2.3398
  607TIP3    H223313   6.207   2.487   2.400  2.7879 -0.0092 -2.5416
  608TIP3   OH223314   2.779   6.707   0.159 -0.1172 -0.8087 -0.3796
  608TIP3    H123315   2.704   6.746   0.202 -1.1535 -1.5840 -1.4573
  608TIP3    H223316   2.750   6.619   0.133  1.1823 -1.1617 -0.7029
  609TIP3   OH223317   1.559   1.764   4.867  0.1764 -0.7614 -0.3347
  609TIP3    H123318   1.465   1.750   4.859  0.2057 -1.5854  0.6157
  609TIP3    H223319   1.598   1.697   4.810  0.1673  0.2090 -1.4816
  610TIP3   OH223320   6.297   6.405  14.809 -0.0202  0.1219  0.0686
  610TIP3    H123321   6.213   6.361  14.814  0.6522 -1.1535  0.4843
  610TIP3    H223322   6.337   6.390  14.895  1.0914 -0.2633 -0.5037
  611TIP3   OH223323   3.637   5.784   0.293  0.2694  0.1917 -0.0333
  611TIP3    H123324   3.634   5.698   0.252  0.6979  0.2500 -0.1901
  611TIP3    H223325   3.551   5.794   0.335 -0.1075  0.0584 -0.7632
  612TIP3   OH223326   0.393   5.076  10.373  0.3654 -0.4148  0.0365
  612TIP3    H123327   0.448   5.100  10.447 -0.2408  1.1164  0.0108
  612TIP3    H223328   0.431   5.121  10.298  0.1847 -0.8738 -0.3393
  613TIP3   OH223329   5.514   4.041   4.561  0.6542 -0.2535 -0.0076
  613TIP3    H123330   5.583   4.101   4.533  0.6654  0.1898  0.9344
  613TIP3    H223331   5.534   4.023   4.653 -0.8001  0.3334  0.4347
  614TIP3   OH223332   6.486   2.814  10.713 -0.1707  0.4391  0.1532
  614TIP3    H123333   6.520   2.735  10.670  0.5752  1.1629 -0.6050
  614TIP3    H223334   6.449   2.783  10.796 -1.4564 -0.9644 -0.9088
  615TIP3   OH223335   1.163   0.903  12.956 -0.1083 -0.1836  0.1483
  615TIP3    H123336   1.197   0.815  12.941 -0.5700 -0.1425 -1.1201
  615TIP3    H223337   1.074   0.902  12.921  0.0422  0.9156 -0.3038
  616TIP3   OH223338   3.511   2.464  16.608  0.1908 -0.4354  0.5598
  616TIP3    H123339   3.418   2.455  16.630  0.0021 -0.2351 -0.1427
  616TIP3    H223340   3.556   2.466  16.692 -0.6110  1.3947  0.9701
  617TIP3   OH223341   1.184   1.149  13.909 -0.7885 -0.1989 -0.1923
  617TIP3    H123342   1.223   1.236  13.897 -1.7595  0.1087 -1.3115
  617TIP3    H223343   1.240   1.091  13.858  0.2091 -0.3389  1.0435
  618TIP3   OH223344   1.533   4.235  16.731  0.3127  0.1325  0.0393
  618TIP3    H123345   1.483   4.276  16.661 -0.2808 -2.0378 -0.8524
  618TIP3    H223346   1.480   4.248  16.809 -1.1014 -1.1410 -0.6946
  619TIP3   OH223347   5.330   2.494   4.830 -0.1656 -0.0884 -0.1023
  619TIP3    H123348   5.385   2.463   4.902  0.4945  0.5755 -0.3164
  619TIP3    H223349   5.253   2.532   4.872  0.3735  0.6030  0.2662
  620TIP3   OH223350   1.394   2.877  13.717  0.0018  0.0083  0.1721
  620TIP3    H123351   1.350   2.940  13.773  0.9481  0.1755  0.7352
  620TIP3    H223352   1.323   2.835  13.668 -0.6061  1.7725 -0.4948
  621TIP3   OH223353   1.897   6.493  14.467  0.2387 -0.1863  0.2147
  621TIP3    H123354   1.880   6.450  14.550  1.4855  0.6008  0.8914
  621TIP3    H223355   1.959   6.435  14.422  1.3684  0.5391  0.8253
  622TIP3   OH223356   5.807   0.225  15.051  0.5203  0.0439 -0.0370
  622TIP3    H123357   5.835   0.261  14.966 -0.9260  2.1126  0.3103
  622TIP3    H223358   5.717   0.258  15.061 -0.1270 -2.0684  1.2607
  623TIP3   OH223359   5.923   6.245  17.210  1.1927 -0.3664 -0.0630
  623TIP3    H123360   5.961   6.331  17.195 -0.0251 -0.0625 -1.4670
  623TIP3    H223361   5.897   6.246  17.302 -0.1815  1.3297 -0.4468
  624TIP3   OH223362   0.870   2.871  13.722  0.1063  0.2836 -0.5064
  624TIP3    H123363   0.872   2.852  13.816 -1.8764  0.2507 -0.4538
  624TIP3    H223364   0.947   2.925  13.707 -1.1932  2.8894  1.7283
  625TIP3   OH223365   4.349   3.543   1.570  0.1258  0.2590  0.3856
  625TIP3    H123366   4.270   3.509   1.612  0.7216 -0.1877  1.1446
  625TIP3    H223367   4.328   3.544   1.476 -0.9829  0.6855  0.6354
  626TIP3   OH223368   4.981   0.633   2.472  0.3256  0.3300 -0.1837
  626TIP3    H123369   5.012   0.709   2.522 -0.6651  1.2713 -0.9919
  626TIP3    H223370   4.935   0.580   2.537  0.8268  0.5222  0.3409
  627TIP3   OH223371   5.978   4.926  14.053  0.3649  0.3325  0.1984
  627TIP3    H123372   6.061   4.959  14.089 -0.1130  0.7246  0.9451
  627TIP3    H223373   6.005   4.870  13.980  1.2755  0.7964  0.1594
  628TIP3   OH223374   6.186   3.198  16.344  0.3490  0.2831  0.7497
  628TIP3    H123375   6.142   3.260  16.402  0.6775  0.6526  0.6087
  628TIP3    H223376   6.160   3.225  16.256 -0.7456 -0.7302  0.7390
  629TIP3   OH223377   3.368   4.351  16.602 -0.1642 -0.2285 -0.2182
  629TIP3    H123378   3.383   4.300  16.682 -1.0620 -2.2743 -1.2948
  629TIP3    H223379   3.322   4.290  16.544 -0.8908  1.7054 -1.7330
  630TIP3   OH223380   0.933   5.951  12.562  0.2643 -0.1101 -0.3099
  630TIP3    H123381   0.965   5.984  12.477 -1.2172 -0.4897 -1.0390
  630TIP3    H223382   1.011   5.943  12.616  1.2820 -0.1860 -1.7626
  631TIP3   OH223383   3.400   2.281   2.292  0.1255  0.1172  0.2748
  631TIP3    H123384   3.435   2.197   2.262 -2.3652 -0.9959  0.3607
  631TIP3    H223385   3.439   2.294   2.379  1.5292 -0.2796 -0.2760
  632TIP3   OH223386   6.453   1.837  13.534  0.4356  0.1133 -0.3022
  632TIP3    H123387   6.378   1.792  13.573  0.8178 -0.0891  0.2022
  632TIP3    H223388   6.434   1.930  13.546  0.0957  0.0668 -0.4924
  633TIP3   OH223389   1.520   4.225  14.420  0.2279 -0.3699 -0.2389
  633TIP3    H123390   1.546   4.311  14.451  1.0148 -0.7131  0.0703
  633TIP3    H223391   1.600   4.173  14.424 -0.4128 -1.3280  0.3109
  634TIP3   OH223392   6.302   3.102   1.897 -0.2266  0.3615  0.0506
  634TIP3    H123393   6.371   3.045   1.931  0.0992 -1.6444 -3.5881
  634TIP3    H223394   6.344   3.187   1.885  1.2803 -0.4654 -0.7801
  635TIP3   OH223395   3.023   1.649   6.753  0.0982  0.2217 -0.2676
  635TIP3    H123396   3.106   1.667   6.711  1.3889 -1.6780  1.3594
  635TIP3    H223397   3.002   1.559   6.727 -1.1130  0.4629 -0.1546
  636TIP3   OH223398   0.769   2.957  14.988  0.6156 -0.1379  0.0234
  636TIP3    H123399   0.756   2.894  14.917  0.5972 -0.3487  0.2106
  636TIP3    H223400   0.862   2.980  14.982  0.7778 -0.6883  0.3641
  637TIP3   OH223401   6.820   5.400  14.862  0.2130  0.2729 -0.1561
  637TIP3    H123402   6.738   5.356  14.839  0.5461  0.2078 -1.2502
  637TIP3    H223403   6.826   5.473  14.801  0.4225  0.9443  0.6565
  638TIP3   OH223404   6.389   3.538   6.469 -0.4821  0.3294  0.3907
  638TIP3    H123405   6.444   3.612   6.443 -0.6818  0.1959 -0.4060
  638TIP3    H223406   6.444   3.489   6.531  0.1675  0.3947 -0.1264
  639TIP3   OH223407   3.141   3.548   5.725 -0.3043 -0.6480  0.7486
  639TIP3    H123408   3.196   3.597   5.785  0.3742 -1.9036  1.1807
  639TIP3    H223409   3.056   3.591   5.729  0.8905  2.0210 -0.7708
  640TIP3   OH223410   3.342   0.939  10.869  0.0696  0.9578  0.6460
  640TIP3    H123411   3.287   0.874  10.825 -1.5360  2.2288  0.7627
  640TIP3    H223412   3.399   0.972  10.799  0.8410 -0.4788  0.5630
  641TIP3   OH223413   6.689   3.039   0.230  0.4925  0.1575 -0.0137
  641TIP3    H123414   6.620   3.026   0.296  0.0423  0.2855 -0.4569
  641TIP3    H223415   6.690   2.957   0.180  1.0835 -0.0807  0.3755
  642TIP3   OH223416   5.960   3.123  14.521 -0.7228 -0.4028  0.1098
  642TIP3    H123417   5.952   3.034  14.555  0.1060  0.0073  1.4491
  642TIP3    H223418   6.054   3.143  14.529 -0.5261 -0.2028 -2.2744
  643TIP3   OH223419   5.997   6.066   2.149  0.1252  0.1162  0.0139
  643TIP3    H123420   6.020   6.159   2.143 -0.6344  0.3460  0.5555
  643TIP3    H223421   6.073   6.025   2.190  0.5690  0.4583 -0.4699
  644TIP3   OH223422   5.589   4.828  14.742  0.2009 -0.3603 -0.0701
  644TIP3    H123423   5.624   4.811  14.655  1.0398  0.5735  0.0728
  644TIP3    H223424   5.643   4.899  14.776 -1.4669  0.7406  0.3834
  645TIP3   OH223425   4.701   1.288   3.434 -0.5528  0.3075 -0.2775
  645TIP3    H123426   4.697   1.326   3.522 -1.9462 -0.0971 -0.1533
  645TIP3    H223427   4.636   1.337   3.384  0.4704  0.7537 -1.1717
  646TIP3   OH223428   5.231   4.224   2.934  0.0425  0.3666  0.3979
  646TIP3    H123429   5.229   4.135   2.967  0.6273  1.0553  2.3931
  646TIP3    H223430   5.296   4.269   2.988 -0.5090  2.1036 -0.3104
  647TIP3   OH223431   0.201   1.180   2.356 -0.0385  0.2691  0.3973
  647TIP3    H123432   0.266   1.234   2.312 -1.3198 -0.6640 -2.8089
  647TIP3    H223433   0.130   1.240   2.379 -0.4062  0.3682 -0.9944
  648TIP3   OH223434   3.672   5.442  15.622  0.6829  0.1885 -0.2783
  648TIP3    H123435   3.682   5.495  15.544 -0.9309 -0.1702 -0.7456
  648TIP3    H223436   3.668   5.352  15.590  2.4785 -0.1693  0.4324
  649TIP3   OH223437   4.143   6.539  11.928 -0.5273  0.3425  0.2351
  649TIP3    H123438   4.175   6.622  11.963  0.1329  0.0200  0.4133
  649TIP3    H223439   4.151   6.478  12.001 -0.7404  0.0569  0.0195
  650TIP3   OH223440   3.010   0.896   3.546 -0.1297 -0.3993  0.2417
  650TIP3    H123441   3.031   0.986   3.520 -0.2258 -0.4793 -0.1097
  650TIP3    H223442   2.967   0.906   3.631 -0.7329 -0.0552 -0.0916
  651TIP3   OH223443   6.248   0.235   1.981  0.6445  0.3146 -0.6527
  651TIP3    H123444   6.324   0.188   1.947  0.9520  1.4048 -1.5346
  651TIP3    H223445   6.190   0.244   1.905 -0.6871 -1.1141  0.1766
  652TIP3   OH223446   4.797   0.357  16.151  0.9878  0.2204  0.2317
  652TIP3    H123447   4.850   0.436  16.145 -1.1189  1.8252  1.8457
  652TIP3    H223448   4.829   0.313  16.230  0.4870  0.7391  0.7226
  653TIP3   OH223449   5.340   3.826  12.462 -0.2256  0.0857 -0.0065
  653TIP3    H123450   5.346   3.886  12.387  0.1189  0.3719  0.2485
  653TIP3    H223451   5.426   3.783  12.464  0.0975  0.7426  0.7722
  654TIP3   OH223452   2.269   1.011  12.863  0.0715  0.4432 -0.1094
  654TIP3    H123453   2.336   0.970  12.917  0.7055  2.2637  0.5124
  654TIP3    H223454   2.286   1.105  12.870 -0.8459  0.8018 -2.1604
  655TIP3   OH223455   0.586   4.566   1.579  0.6779 -0.2575 -0.1241
  655TIP3    H123456   0.645   4.621   1.631  2.4840  0.8727 -3.2485
  655TIP3    H223457   0.498   4.594   1.605  1.5625  2.2231  0.2800
  656TIP3   OH223458   0.887   4.669   0.815 -0.0585  0.6902  0.6554
  656TIP3    H123459   0.853   4.668   0.905 -0.4014  0.5059  0.5264
  656TIP3    H223460   0.930   4.754   0.806 -4.0678  2.6959 -0.4866
  657TIP3   OH223461   0.740   0.728  16.357 -0.0942  0.4594  0.1305
  657TIP3    H123462   0.760   0.818  16.383 -1.5634  0.2743  2.0693
  657TIP3    H223463   0.756   0.677  16.437  0.9833 -1.0517 -1.0276
  658TIP3   OH223464   0.830   6.174  16.648  0.2472  0.2595  0.3697
  658TIP3    H123465   0.759   6.225  16.688  0.1924  0.6308 -0.1905
  658TIP3    H223466   0.806   6.083  16.664 -0.3507  0.3846  0.2008
  659TIP3   OH223467   5.358   2.840  11.197 -0.1758  0.5113 -0.1912
  659TIP3    H123468   5.363   2.891  11.116  0.0421  1.2279  0.2716
  659TIP3    H223469   5.322   2.755  11.170  0.5626  0.4964 -1.1566
  660TIP3   OH223470   2.858   5.232  14.319  0.3970 -0.5773 -0.2098
  660TIP3    H123471   2.809   5.313  14.335 -1.1647 -1.1250 -1.9952
  660TIP3    H223472   2.882   5.201  14.406 -0.7690  0.7315  0.6042
  661TIP3   OH223473   5.438   5.125   5.060 -0.3731 -0.5168  0.0018
  661TIP3    H123474   5.510   5.187   5.052 -0.2095 -0.9514 -2.2884
  661TIP3    H223475   5.479   5.045   5.094  0.7289 -1.4900 -3.3867
  662TIP3   OH223476   1.191   1.037   3.886 -0.1406  0.0792 -0.3264
  662TIP3    H123477   1.180   0.946   3.858 -1.0568  0.3161 -0.7571
  662TIP3    H223478   1.239   1.031   3.968 -0.0168 -0.7823 -0.4514
  663TIP3   OH223479   0.898   2.224  10.784 -0.2331  0.2340 -0.0405
  663TIP3    H123480   0.819   2.210  10.732 -0.2754 -0.7408  0.2775
  663TIP3    H223481   0.956   2.152  10.759 -0.6828 -0.9068  2.0641
  664TIP3   OH223482   3.358   5.923  14.746 -0.0322 -0.2358 -0.5747
  664TIP3    H123483   3.319   5.871  14.816  1.3716 -1.6713 -0.8327
  664TIP3    H223484   3.292   5.923  14.677 -0.8999  0.1228  0.2460
  665TIP3   OH223485   5.598   2.542   5.577 -0.0960 -1.0029  0.5987
  665TIP3    H123486   5.664   2.570   5.514 -1.2470 -0.8084 -0.5487
  665TIP3    H223487   5.545   2.478   5.530 -0.9884 -0.8391  1.3526
  666TIP3   OH223488   2.147   3.422   1.432  0.1595 -0.3795  0.3763
  666TIP3    H123489   2.060   3.435   1.395  0.0091 -1.2734  0.4005
  666TIP3    H223490   2.159   3.495   1.492 -0.1596  0.3155 -0.3864
  667TIP3   OH223491   5.815   3.887  13.704 -0.4436 -0.2366 -0.0079
  667TIP3    H123492   5.831   3.822  13.635  0.1516  0.5333 -0.6009
  667TIP3    H223493   5.847   3.969  13.667 -0.7231  0.2995  0.9424
  668TIP3   OH223494   5.395   6.337  17.195  0.5096 -0.7418 -0.2738
  668TIP3    H123495   5.445   6.418  17.179 -3.0479  1.3759 -1.2660
  668TIP3    H223496   5.416   6.281  17.121 -0.2107  0.9883 -1.8366
  669TIP3   OH223497   4.408   2.996  14.579 -0.2333  0.2891 -0.5825
  669TIP3    H123498   4.484   2.949  14.544 -0.7562 -0.9139 -0.1550
  669TIP3    H223499   4.392   3.067  14.518 -0.2685 -0.9313 -2.0114
  670TIP3   OH223500   5.122   0.533  16.383  0.2350 -0.2293  0.0489
  670TIP3    H123501   5.215   0.534  16.362  0.8228  0.8564  2.4583
  670TIP3    H223502   5.089   0.453  16.344  1.9112 -0.0042 -1.9041
  671TIP3   OH223503   4.309   1.794  15.567  0.2611  0.2037 -0.2281
  671TIP3    H123504   4.302   1.792  15.471  0.8008  1.9105 -0.3139
  671TIP3    H223505   4.218   1.792  15.597  0.0777  0.0045 -0.7856
  672TIP3   OH223506   4.040   6.569  14.497  0.3698 -0.4713  0.0712
  672TIP3    H123507   3.986   6.647  14.483  1.7634  0.6618  0.8110
  672TIP3    H223508   4.030   6.549  14.590  1.5983  0.0535  0.3299
  673TIP3   OH223509   2.868   1.191   1.926  0.0405  0.0080  0.1102
  673TIP3    H123510   2.891   1.275   1.885  0.3289 -0.4046 -0.5756
  673TIP3    H223511   2.807   1.215   1.996  0.2182  0.8054 -0.0005
  674TIP3   OH223512   2.165   3.431  12.254  0.5286  0.2744  0.5218
  674TIP3    H123513   2.072   3.414  12.269 -0.2999  3.3660 -0.6331
  674TIP3    H223514   2.170   3.458  12.162  2.8807 -1.6927  0.0261
  675TIP3   OH223515   3.226   5.308   5.355  0.3594  0.2875 -0.8937
  675TIP3    H123516   3.292   5.246   5.325  0.5648  0.9757 -1.8615
  675TIP3    H223517   3.226   5.298   5.451  1.7280  0.1552 -0.9004
  676TIP3   OH223518   5.271   4.696   4.351 -0.1715  0.3211 -0.0287
  676TIP3    H123519   5.240   4.605   4.348  0.8314 -0.0551  0.7866
  676TIP3    H223520   5.346   4.694   4.410  0.9344  1.3700 -1.3840
  677TIP3   OH223521   6.162   4.589   1.937 -0.1088 -0.7346  0.1856
  677TIP3    H123522   6.113   4.627   1.864  0.8270  3.1627  1.4672
  677TIP3    H223523   6.117   4.620   2.015  1.9608 -0.5602  1.3370
  678TIP3   OH223524   2.868   5.448   0.966 -0.4442 -0.4292 -0.1331
  678TIP3    H123525   2.817   5.388   0.910 -1.3829 -1.3895  1.7155
  678TIP3    H223526   2.827   5.534   0.952 -0.9521 -0.7413 -0.5741
  679TIP3   OH223527   5.419   5.247   0.337  0.1420  0.3396 -0.4167
  679TIP3    H123528   5.362   5.173   0.358  1.5068 -0.4620  0.5557
  679TIP3    H223529   5.409   5.306   0.412  0.4489  0.2866 -0.3354
  680TIP3   OH223530   2.962   4.214   1.748 -0.0607  0.6184 -0.6810
  680TIP3    H123531   3.032   4.262   1.793 -0.0671  0.5630 -0.6130
  680TIP3    H223532   2.977   4.232   1.655  0.8099 -0.4375 -0.7500
  681TIP3   OH223533   4.289   0.782  17.134  0.5382 -0.3581 -0.1545
  681TIP3    H123534   4.363   0.811  17.186  0.4594  1.0351 -0.8129
  681TIP3    H223535   4.231   0.739  17.197  1.9359 -1.5481  0.3436
  682TIP3   OH223536   3.268   5.964  15.621 -0.2448  0.2840 -0.0290
  682TIP3    H123537   3.248   5.878  15.585  2.4261 -0.4835  0.2178
  682TIP3    H223538   3.206   5.975  15.694 -0.3605 -1.5626  0.1627
  683TIP3   OH223539   0.719   2.066   1.113 -0.0205  0.1450 -0.4709
  683TIP3    H123540   0.691   2.131   1.048 -0.6749  1.5094  1.1155
  683TIP3    H223541   0.802   2.100   1.147 -0.7859  0.6476  0.9730
  684TIP3   OH223542   0.810   3.914  12.994  0.6026 -0.4174 -0.2241
  684TIP3    H123543   0.861   3.839  12.964 -0.7407 -1.8847  1.0641
  684TIP3    H223544   0.828   3.983  12.930  4.0918 -0.9121  0.1591
  685TIP3   OH223545   4.494   0.873   3.997  0.2628 -0.4342  0.1127
  685TIP3    H123546   4.428   0.868   3.928 -1.6523  1.2354  1.7563
  685TIP3    H223547   4.532   0.960   3.987  1.8330 -1.1722 -0.4602
  686TIP3   OH223548   0.120   1.350  15.795  0.1049  0.4396 -0.2859
  686TIP3    H123549   0.120   1.283  15.864  0.7817  0.8842  0.1550
  686TIP3    H223550   0.146   1.430  15.840 -1.5001  1.1787 -0.6560
  687TIP3   OH223551   1.950   0.774  16.923  0.1545 -0.1271 -0.4000
  687TIP3    H123552   1.945   0.868  16.907 -0.3172 -0.5014 -2.6304
  687TIP3    H223553   2.025   0.745  16.871 -0.0734 -1.0862 -0.2033
  688TIP3   OH223554   2.330   6.147  14.883  0.3566  0.3396 -0.5225
  688TIP3    H123555   2.266   6.101  14.828  0.3370  0.2284 -0.4047
  688TIP3    H223556   2.281   6.220  14.919  0.1908  0.0340 -0.1229
  689TIP3   OH223557   0.307   6.064  15.103  0.0027  0.3036  0.0811
  689TIP3    H123558   0.339   6.112  15.026 -0.3588  0.0135 -0.2494
  689TIP3    H223559   0.251   5.995  15.067  1.3476 -1.0340  0.4869
  690TIP3   OH223560   1.066   5.374   0.903  0.3234 -0.3253 -0.0528
  690TIP3    H123561   1.001   5.311   0.870 -1.2324  1.9033 -1.4136
  690TIP3    H223562   1.013   5.442   0.945  1.8676  0.8614 -0.0100
  691TIP3   OH223563   1.199   1.661   3.405  0.6057 -0.4761  0.3788
  691TIP3    H123564   1.223   1.754   3.408 -0.7134 -0.1503  1.6458
  691TIP3    H223565   1.180   1.645   3.313 -1.5651  1.1813  0.4888
  692TIP3   OH223566   2.063   2.316   4.359  0.0294 -0.4314  0.4176
  692TIP3    H123567   2.081   2.399   4.402  0.1634 -0.6448  0.7820
  692TIP3    H223568   2.129   2.309   4.291 -0.1596 -0.1085  0.2040
  693TIP3   OH223569   1.449   2.886   3.935  0.0394 -0.0039  0.4879
  693TIP3    H123570   1.388   2.812   3.936  0.0912 -0.0523  0.0699
  693TIP3    H223571   1.503   2.872   3.858 -0.2118  0.6798  0.1800
  694TIP3   OH223572   5.581   1.647  16.527  0.1587  0.2396 -0.3953
  694TIP3    H123573   5.660   1.657  16.474  0.2525 -0.0268 -0.3035
  694TIP3    H223574   5.614   1.627  16.615 -0.0154 -0.1499 -0.4167
  695TIP3   OH223575   4.424   3.591  14.408  0.3159  0.5331  0.0688
  695TIP3    H123576   4.426   3.506  14.363  1.1373  0.5602  0.0354
  695TIP3    H223577   4.492   3.643  14.364  1.2430  0.5052  1.4266
  696TIP3   OH223578   3.845   2.990   1.436 -0.4339  0.2658 -0.5713
  696TIP3    H123579   3.839   2.918   1.499  0.0531 -0.6500 -1.5728
  696TIP3    H223580   3.915   3.046   1.470  0.0394 -0.3887 -0.4646
  697TIP3   OH223581   2.914   1.390  17.075  0.0322 -0.0795 -0.5842
  697TIP3    H123582   2.843   1.418  17.132 -0.6844 -0.2193 -1.4161
  697TIP3    H223583   2.988   1.375  17.135 -0.3868  0.8632  0.1740
  698TIP3   OH223584   3.394   2.546  15.728  0.0801 -0.3665 -0.2511
  698TIP3    H123585   3.370   2.509  15.813 -2.1743 -0.7986 -1.0367
  698TIP3    H223586   3.433   2.474  15.680  0.4015 -0.3867  0.0379
  699TIP3   OH223587   4.807   3.076  14.456  0.5388  0.0118 -0.3454
  699TIP3    H123588   4.848   3.084  14.542 -0.1008  2.6300 -0.2379
  699TIP3    H223589   4.729   3.024  14.470  0.9884 -0.4509  0.4547
  700TIP3   OH223590   3.610   3.288   3.578  0.1977  0.3042 -0.0629
  700TIP3    H123591   3.625   3.247   3.493  0.6804  0.0865  0.1242
  700TIP3    H223592   3.697   3.317   3.606 -0.0302  0.7852  0.1467
  701TIP3   OH223593   3.011   0.900  15.854  0.3485 -0.1066  0.1374
  701TIP3    H123594   3.003   0.930  15.763  1.0924 -0.8454 -0.1720
  701TIP3    H223595   3.030   0.807  15.847  0.1574 -0.2196  1.0655
  702TIP3   OH223596   2.653   4.618   2.425 -0.3431 -0.2093  0.1102
  702TIP3    H123597   2.596   4.599   2.350  1.0271  1.5941 -1.4634
  702TIP3    H223598   2.684   4.707   2.408  1.6304 -0.5571  1.7795
  703TIP3   OH223599   1.873   4.666   5.092 -0.1119 -1.1459  0.2089
  703TIP3    H123600   1.876   4.723   5.015  1.0672 -0.1502  0.9585
  703TIP3    H223601   1.794   4.694   5.139 -0.2006 -0.9586 -0.0506
  704TIP3   OH223602   3.438   4.386   0.795  0.0947 -0.2457 -0.3752
  704TIP3    H123603   3.435   4.329   0.718 -0.7502 -0.4587 -0.1842
  704TIP3    H223604   3.362   4.442   0.786  0.5021  0.3454 -0.1613
  705TIP3   OH223605   5.632   3.216  14.082  0.7925 -0.1663  0.0029
  705TIP3    H123606   5.622   3.131  14.125  0.5471 -0.0660  0.1462
  705TIP3    H223607   5.616   3.280  14.151  2.4803  0.0102  0.2573
  706TIP3   OH223608   0.235   1.314  12.764 -0.3441  0.1322 -0.2867
  706TIP3    H123609   0.265   1.231  12.727 -0.7186  0.5385 -1.5244
  706TIP3    H223610   0.293   1.380  12.726  0.2702  0.3980  1.0760
  707TIP3   OH223611   4.006   1.241  14.851 -0.1475 -0.6432 -0.7699
  707TIP3    H123612   3.954   1.170  14.888 -0.4601  0.1261  0.2812
  707TIP3    H223613   4.014   1.305  14.922  1.3993 -0.3050 -1.2195
  708TIP3   OH223614   1.256   6.267   1.448  0.2062  0.2476 -0.1093
  708TIP3    H123615   1.174   6.298   1.485  1.2168  1.0385  1.5204
  708TIP3    H223616   1.236   6.250   1.356 -2.1213 -0.8911  0.5679
  709TIP3   OH223617   6.756   1.609   3.022 -0.5526 -0.1071 -0.1382
  709TIP3    H123618   6.769   1.564   3.106  0.0226  1.1326  0.4497
  709TIP3    H223619   6.661   1.613   3.012 -0.6577 -4.1597 -1.7107
  710TIP3   OH223620   3.507   2.685  17.100  0.8228  0.4184 -0.5722
  710TIP3    H123621   3.553   2.764  17.071  2.4121  0.1749  1.1719
  710TIP3    H223622   3.457   2.714  17.176  1.0529 -0.1440 -0.2066
  711TIP3   OH223623   0.451   5.652  12.726  0.3916 -0.3819 -0.2749
  711TIP3    H123624   0.406   5.718  12.674 -0.4107 -1.3290 -0.8040
  711TIP3    H223625   0.393   5.637  12.801  0.2804 -0.9193 -0.4672
  712TIP3   OH223626   4.230   0.740  14.291  0.2161 -0.0883 -0.0962
  712TIP3    H123627   4.141   0.752  14.324 -1.3779  0.7525 -4.3442
  712TIP3    H223628   4.265   0.829  14.286  0.4964 -0.2130 -0.3608
  713TIP3   OH223629   4.999   5.903  15.291  0.6245 -0.2507  0.1605
  713TIP3    H123630   5.029   5.836  15.229  0.0225  0.1829 -0.6084
  713TIP3    H223631   4.979   5.979  15.236 -0.3613 -0.0196  0.8379
  714TIP3   OH223632   0.644   4.072  16.932  0.2019  0.0967 -0.4606
  714TIP3    H123633   0.687   4.156  16.920 -0.5524  0.7593  1.3561
  714TIP3    H223634   0.694   4.029  17.002 -0.9988  0.1531  0.4506
  715TIP3   OH223635   2.821   1.015  13.179  0.1531 -0.9623  0.0429
  715TIP3    H123636   2.728   1.019  13.202 -0.5916  0.0851 -2.8797
  715TIP3    H223637   2.863   1.074  13.241 -1.3148 -0.5510  0.6808
  716TIP3   OH223638   0.422   2.843  16.850  0.4491 -0.1467 -0.3891
  716TIP3    H123639   0.399   2.846  16.757  2.2630  2.1232 -0.7950
  716TIP3    H223640   0.395   2.928  16.884  0.7330 -0.5769  0.9544
  717TIP3   OH223641   0.892   6.558  17.199 -0.6911 -0.0175  0.2905
  717TIP3    H123642   0.975   6.511  17.195 -0.5337  0.3866 -2.6255
  717TIP3    H223643   0.831   6.504  17.149 -1.3772  1.1533 -0.1726
  718TIP3   OH223644   4.892   1.022   5.016  0.0944 -0.4139 -0.1653
  718TIP3    H123645   4.945   0.943   5.025  0.5322  0.0195  1.2139
  718TIP3    H223646   4.803   0.990   5.000  0.3237 -1.1741  0.0828
  719TIP3   OH223647   0.737   6.350   2.375  0.8583  0.1748 -0.0840
  719TIP3    H123648   0.761   6.423   2.318 -0.7542 -0.7368 -1.9754
  719TIP3    H223649   0.737   6.273   2.319  0.7818 -1.0191  1.4940
  720TIP3   OH223650   5.769   3.322  15.088 -0.8029  0.0926 -0.3335
  720TIP3    H123651   5.807   3.244  15.127 -0.8406 -0.3724 -1.2233
  720TIP3    H223652   5.826   3.393  15.117 -0.5197 -0.3139  0.1182
  721TIP3   OH223653   0.843   5.143   4.173  0.6304  0.2646 -0.1627
  721TIP3    H123654   0.935   5.165   4.160  0.1705  1.8210 -0.9357
  721TIP3    H223655   0.814   5.202   4.241  0.1703 -0.1487  0.0023
  722TIP3   OH223656   1.352   3.408   5.085 -0.5199 -0.3403  0.2751
  722TIP3    H123657   1.348   3.315   5.063  1.7973 -0.1874 -0.9634
  722TIP3    H223658   1.387   3.410   5.175 -0.0167 -0.6621  0.0918
  723TIP3   OH223659   4.904   3.892  12.926 -0.3883 -0.0449  0.1131
  723TIP3    H123660   4.891   3.980  12.962  0.4085 -0.0726  0.4780
  723TIP3    H223661   4.998   3.875  12.938 -0.0848 -0.0177 -2.0496
  724TIP3   OH223662   3.395   3.503  16.084  0.0981  0.4276  0.2478
  724TIP3    H123663   3.466   3.439  16.094 -0.5443 -0.4505 -0.6646
  724TIP3    H223664   3.401   3.558  16.163  2.0945  0.6918 -0.0641
  725TIP3   OH223665   2.181   3.597  16.411  0.0052 -0.4965  0.3407
  725TIP3    H123666   2.130   3.672  16.379  0.0579 -0.9737 -0.8705
  725TIP3    H223667   2.240   3.635  16.477 -1.6482  0.1151  1.5062
  726TIP3   OH223668   6.045   5.556  12.224  0.0820  0.1403 -0.3080
  726TIP3    H123669   6.112   5.611  12.264 -0.0448  1.0080 -1.2851
  726TIP3    H223670   5.965   5.607  12.230 -0.8803 -1.5384  2.3189
  727TIP3   OH223671   6.588   1.105  16.299  0.6201  0.3413  0.2183
  727TIP3    H123672   6.655   1.161  16.262  0.2915  0.2011 -0.5989
  727TIP3    H223673   6.600   1.020  16.255 -1.6766  0.9972 -1.8443
  728TIP3   OH223674   5.812   1.014  13.735  0.3599 -0.5857  0.0669
  728TIP3    H123675   5.863   0.980  13.662  1.5008 -0.4516  0.7871
  728TIP3    H223676   5.792   1.104  13.711  0.1564 -0.7529 -0.3834
  729TIP3   OH223677   5.075   1.381   4.539 -0.0279 -0.1557  0.0539
  729TIP3    H123678   5.139   1.410   4.474 -2.0036 -1.3499 -2.4941
  729TIP3    H223679   5.101   1.290   4.558 -0.8291 -0.5804 -0.8447
  730TIP3   OH223680   5.771   4.748   2.092 -0.2223  0.0497  0.3842
  730TIP3    H123681   5.716   4.690   2.038  2.1585  0.5036 -2.6942
  730TIP3    H223682   5.729   4.834   2.086  0.7517  0.4063 -2.0033
  731TIP3   OH223683   1.400   1.890   4.559 -0.4853  0.2959  0.3367
  731TIP3    H123684   1.337   1.843   4.614 -1.2807  0.6841 -0.2320
  731TIP3    H223685   1.439   1.822   4.504 -0.3577  0.0434  0.7344
  732TIP3   OH223686   1.856   1.326   2.559 -0.1015 -0.1560  0.2079
  732TIP3    H123687   1.772   1.361   2.589 -0.4412 -2.1445  1.6364
  732TIP3    H223688   1.918   1.350   2.628 -0.0209 -0.9739  0.4226
  733TIP3   OH223689   1.439   5.058   3.916 -0.3280  0.1488 -0.2384
  733TIP3    H123690   1.371   4.992   3.905 -0.4383  0.2700 -0.2893
  733TIP3    H223691   1.476   5.040   4.002 -1.5445  1.0995  0.5163
  734TIP3   OH223692   5.437   2.129  16.639 -0.0047 -0.0822 -0.4187
  734TIP3    H123693   5.409   2.051  16.592  0.0124 -1.1732  1.3482
  734TIP3    H223694   5.365   2.147  16.700  1.2024 -0.3233  1.0808
  735TIP3   OH223695   2.394   1.111   0.478 -0.5224  0.1227 -0.9955
  735TIP3    H123696   2.300   1.097   0.489 -0.2308  0.7961  3.0040
  735TIP3    H223697   2.433   1.028   0.503  0.0539  0.8081  0.4576
  736TIP3   OH223698   1.167   0.225  13.536  0.2265  0.5769 -0.0760
  736TIP3    H123699   1.263   0.226  13.536  0.2265  1.2779  0.4947
  736TIP3    H223700   1.142   0.256  13.449  0.5203 -1.6744 -0.9837
  737TIP3   OH223701   5.509   2.142  13.761  0.1464 -0.3593  0.3083
  737TIP3    H123702   5.549   2.125  13.846  0.0514 -0.9194  0.2453
  737TIP3    H223703   5.496   2.236  13.759 -0.3080 -0.3957  1.1242
  738TIP3   OH223704   4.458   5.265   1.450 -1.1629 -0.3347  0.5691
  738TIP3    H123705   4.544   5.305   1.442 -1.6820  0.6986  0.1152
  738TIP3    H223706   4.454   5.233   1.540 -0.1750 -0.7180  0.4848
  739TIP3   OH223707   2.869   3.245   3.260 -0.4142  0.1457  0.3595
  739TIP3    H123708   2.961   3.238   3.285 -0.2657 -0.0957 -0.2735
  739TIP3    H223709   2.824   3.263   3.343  0.1837  0.1429  0.6886
  740TIP3   OH223710   5.742   5.589  16.769 -0.4138  0.4497 -0.3439
  740TIP3    H123711   5.699   5.622  16.690  0.7062 -1.3687 -1.7104
  740TIP3    H223712   5.687   5.516  16.798 -0.1972  0.3922 -0.0711
  741TIP3   OH223713   2.575   6.562   2.550 -0.4700  0.0119  0.0372
  741TIP3    H123714   2.641   6.623   2.582  1.1923 -1.4928 -0.4510
  741TIP3    H223715   2.549   6.512   2.628 -0.5152  0.1228  0.0931
  742TIP3   OH223716   2.835   3.247   4.629 -0.0847  0.4251 -0.1561
  742TIP3    H123717   2.916   3.196   4.636  0.3032  1.1437  0.7036
  742TIP3    H223718   2.836   3.281   4.539  0.3554  0.0793 -0.2864
  743TIP3   OH223719   0.980   6.500  11.721 -0.6263 -0.5318  0.1328
  743TIP3    H123720   0.992   6.583  11.675 -0.0354  0.0769  1.3552
  743TIP3    H223721   0.885   6.495  11.735 -0.8396 -0.8642 -1.3861
  744TIP3   OH223722   3.492   6.023   4.243  0.0547  0.4451  0.1501
  744TIP3    H123723   3.486   5.928   4.237 -0.1267  0.3938  1.1050
  744TIP3    H223724   3.577   6.044   4.205 -0.4124  0.0145 -1.1703
  745TIP3   OH223725   3.308   5.337  15.971 -0.2648 -0.7229 -0.1696
  745TIP3    H123726   3.286   5.376  16.056  1.9999  1.1675 -0.3669
  745TIP3    H223727   3.355   5.257  15.993 -2.0381 -1.6309  0.3189
  746TIP3   OH223728   5.021   3.978   3.657  0.0145 -0.3158  0.5550
  746TIP3    H123729   5.000   3.895   3.701 -1.0978 -0.7096 -0.6549
  746TIP3    H223730   5.103   3.961   3.612 -0.1179 -0.7191  0.4575
  747TIP3   OH223731   4.625   1.830   0.164 -0.0262 -0.4581 -0.1048
  747TIP3    H123732   4.688   1.780   0.113  0.5787  0.9537 -0.7883
  747TIP3    H223733   4.548   1.774   0.171  0.2511 -1.0458 -1.7495
  748TIP3   OH223734   0.708   4.286  15.240 -0.5993  0.0347 -0.2668
  748TIP3    H123735   0.678   4.369  15.202 -1.1749 -0.4903 -0.9568
  748TIP3    H223736   0.627   4.240  15.262 -0.2972 -1.0146 -1.3227
  749TIP3   OH223737   3.695   0.357  16.481 -0.0944 -0.0373  0.3175
  749TIP3    H123738   3.700   0.274  16.529 -0.7679  1.4450  3.0623
  749TIP3    H223739   3.773   0.358  16.426 -0.5929 -2.9420 -0.5260
  750TIP3   OH223740   3.051   0.753  11.387 -0.0389 -0.2988  0.4451
  750TIP3    H123741   3.068   0.679  11.446 -0.1213  0.5096  1.4933
  750TIP3    H223742   3.076   0.830  11.438  0.5512  0.3654 -0.8284
  751TIP3   OH223743   2.611   6.417   0.437 -0.0889 -0.1386  0.4248
  751TIP3    H123744   2.585   6.388   0.349  2.8191 -0.5747 -0.3437
  751TIP3    H223745   2.628   6.336   0.485  1.5280  0.1481  0.3560
  752TIP3   OH223746   0.586   5.051   4.676  0.3029  0.4389 -0.0976
  752TIP3    H123747   0.575   5.101   4.595 -0.6696 -0.8386 -0.7683
  752TIP3    H223748   0.642   4.978   4.651 -0.0250  0.0248  0.3844
  753TIP3   OH223749   6.293   0.374   4.683  0.2356 -0.2569 -0.2699
  753TIP3    H123750   6.212   0.326   4.662  0.2556 -0.4033 -0.0201
  753TIP3    H223751   6.354   0.351   4.613 -0.5540  1.3623 -1.5041
  754TIP3   OH223752   0.161   0.892  15.191 -0.1017 -0.5564 -0.1534
  754TIP3    H123753   0.196   0.902  15.103  0.4576  0.8088  0.2110
  754TIP3    H223754   0.216   0.947  15.246 -1.5334 -0.0077  0.7754
  755TIP3   OH223755   3.850   6.680   5.042 -0.5090  0.2795  0.7658
  755TIP3    H123756   3.798   6.659   4.965 -1.1245  0.8416  1.0201
  755TIP3    H223757   3.931   6.718   5.008 -0.5894  0.1099  0.3887
  756TIP3   OH223758   0.252   5.995   1.578 -0.0645  0.8009 -0.3506
  756TIP3    H123759   0.298   5.948   1.648 -0.0185  1.3347 -0.0219
  756TIP3    H223760   0.164   6.010   1.612  0.0034  1.1940 -0.3509
  757TIP3   OH223761   3.684   4.420   4.676  0.1706  0.3277 -0.1628
  757TIP3    H123762   3.673   4.483   4.747  1.5630  1.1994 -0.6907
  757TIP3    H223763   3.600   4.422   4.629 -0.2253  0.8589  0.5695
  758TIP3   OH223764   3.459   0.203   4.926 -0.2401  0.1931  0.2730
  758TIP3    H123765   3.435   0.134   4.864  0.0056  0.6491 -0.3374
  758TIP3    H223766   3.397   0.274   4.909 -0.6350  0.0425  1.0534
  759TIP3   OH223767   5.998   3.096  15.055  0.3456  0.9085  0.2591
  759TIP3    H123768   6.027   3.185  15.035 -1.0470  1.0259 -1.3587
  759TIP3    H223769   5.980   3.057  14.969 -0.8965 -0.3028  1.0552
  760TIP3   OH223770   6.293   5.458   5.256 -0.1137 -0.4317 -0.3631
  760TIP3    H123771   6.283   5.453   5.351 -0.6138  0.4864 -0.3623
  760TIP3    H223772   6.209   5.427   5.221 -0.3286  0.2640 -0.4795
  761TIP3   OH223773   5.240   3.533  11.806 -0.8275 -0.5306  0.6490
  761TIP3    H123774   5.166   3.529  11.867 -0.1140 -2.4160  1.4278
  761TIP3    H223775   5.234   3.451  11.756 -1.4032  0.9796 -1.8434
  762TIP3   OH223776   0.991   1.107   1.790  0.0029  0.7381  0.2573
  762TIP3    H123777   1.073   1.076   1.829  0.6672  1.3819 -0.6281
  762TIP3    H223778   0.964   1.180   1.845 -1.4169 -1.1495  2.1831
  763TIP3   OH223779   1.823   0.199  11.046 -0.0705 -0.0065  0.3309
  763TIP3    H123780   1.737   0.209  11.007  0.0819 -0.2149 -0.0665
  763TIP3    H223781   1.869   0.138  10.987  0.7189  0.9651 -0.0751
  764TIP3   OH223782   6.297   2.084   1.765  0.4001 -0.2150 -0.2195
  764TIP3    H123783   6.371   2.052   1.817  0.9829 -1.9672 -2.0727
  764TIP3    H223784   6.230   2.017   1.775 -0.0854  0.2355 -0.4234
  765TIP3   OH223785   1.660   0.825  15.037  0.0850  0.0504 -0.6352
  765TIP3    H123786   1.665   0.885  14.962  2.3605 -0.6139 -1.0741
  765TIP3    H223787   1.693   0.742  15.003 -0.3155 -0.6664  0.7162
  766TIP3   OH223788   3.195   0.872  12.567 -0.2495 -0.0418 -0.2576
  766TIP3    H123789   3.222   0.955  12.527  0.9958  0.4807  1.6251
  766TIP3    H223790   3.152   0.897  12.649 -2.4518 -1.1299 -1.0096
  767TIP3   OH223791   3.113   4.837  17.257 -0.1836 -0.9754  0.4081
  767TIP3    H123792   3.084   4.927  17.272  0.5055 -0.4236 -1.4492
  767TIP3    H223793   3.180   4.822  17.324 -0.5293 -0.2279  0.9291
  768TIP3   OH223794   1.583   2.294   4.428  0.5961 -0.2526  0.3553
  768TIP3    H123795   1.599   2.338   4.345 -1.9590  0.4077  0.1856
  768TIP3    H223796   1.665   2.247   4.446  1.0140 -0.8516 -2.7806
  769TIP3   OH223797   3.001   4.727   2.242 -0.0137 -0.1511  0.3505
  769TIP3    H123798   3.046   4.811   2.232  0.8604 -0.4813  1.3690
  769TIP3    H223799   2.977   4.724   2.335  1.0454 -1.5479  0.5957
  770TIP3   OH223800   5.854   2.603   4.076  0.1175 -0.3309 -0.2099
  770TIP3    H123801   5.771   2.607   4.029 -0.3623 -3.0443  0.2654
  770TIP3    H223802   5.913   2.661   4.028 -2.4461  2.8266  0.3398
  771TIP3   OH223803   5.105   6.324   1.011 -0.1055  0.2468 -0.5345
  771TIP3    H123804   5.168   6.285   1.071 -0.8435 -0.8313 -0.4448
  771TIP3    H223805   5.131   6.292   0.925 -0.7269 -0.4880 -0.4581
  772TIP3   OH223806   0.966   5.685   0.540 -0.0754  0.9303  0.1319
  772TIP3    H123807   0.884   5.713   0.579  0.3802 -0.0547  1.8220
  772TIP3    H223808   1.005   5.626   0.604  0.3484 -1.3013 -2.0808
  773TIP3   OH223809   4.532   6.174   4.263  0.3113  0.3495  0.5875
  773TIP3    H123810   4.530   6.270   4.264 -0.7865  0.3388  0.4502
  773TIP3    H223811   4.539   6.152   4.170 -1.0388  0.2917  0.4842
  774TIP3   OH223812   3.334   4.594  16.877  0.5118 -0.0068  0.0350
  774TIP3    H123813   3.338   4.616  16.783  0.3919  0.0448  0.0397
  774TIP3    H223814   3.311   4.677  16.920  1.2321  0.1261  0.1736
  775TIP3   OH223815   3.982   5.489  10.429  0.3461 -0.3318  0.4784
  775TIP3    H123816   3.931   5.524  10.501  0.1912 -0.5828  0.4918
  775TIP3    H223817   4.017   5.406  10.461  0.0747 -0.5633  0.1827
  776TIP3   OH223818   6.143   2.658   1.475 -0.4185 -0.6838  0.1652
  776TIP3    H123819   6.207   2.603   1.430  0.4099  1.6835 -1.6552
  776TIP3    H223820   6.191   2.695   1.549  0.0725  0.3875 -0.6825
  777TIP3   OH223821   1.440   6.065  15.506 -0.0327 -0.1686  0.0341
  777TIP3    H123822   1.477   6.066  15.418  1.1167 -0.2045  0.5190
  777TIP3    H223823   1.368   6.002  15.500  0.8942 -1.1984 -0.5396
  778TIP3   OH223824   6.051   0.872   0.941 -0.1024  0.3661  0.1003
  778TIP3    H123825   6.114   0.914   0.999 -0.2942 -1.0636  1.3601
  778TIP3    H223826   6.027   0.941   0.878  1.6673  1.3069  0.4390
  779TIP3   OH223827   5.484   5.606   3.534  0.1730  0.1834  0.3272
  779TIP3    H123828   5.515   5.598   3.625  0.1139  1.1126  0.4285
  779TIP3    H223829   5.389   5.600   3.541  0.1174  1.2224  0.4262
  780TIP3   OH223830   6.658   0.301   0.382 -0.1474 -0.1559  0.2489
  780TIP3    H123831   6.647   0.219   0.333  0.8891 -0.0481 -0.1689
  780TIP3    H223832   6.726   0.349   0.335 -0.2982  0.6732  0.8570
  781TIP3   OH223833   2.360   3.388  11.565  0.0084 -0.7980 -0.4133
  781TIP3    H123834   2.417   3.457  11.531 -1.5010  0.7942  0.1569
  781TIP3    H223835   2.319   3.351  11.486  0.7961 -1.0304 -0.7208
  782TIP3   OH223836   5.361   0.368  13.300  0.5146 -0.1572  0.5272
  782TIP3    H123837   5.324   0.393  13.385 -0.8722 -0.7605  0.1097
  782TIP3    H223838   5.285   0.347  13.246  1.4003  0.0868 -0.8329
  783TIP3   OH223839   6.436   1.065  16.780  0.1281 -0.3233 -0.5161
  783TIP3    H123840   6.358   1.093  16.827  1.9142  2.9672  0.6406
  783TIP3    H223841   6.438   1.119  16.701  1.1267 -0.5513 -0.6583
  784TIP3   OH223842   0.486   1.615  15.983  0.3340 -0.3909  0.2475
  784TIP3    H123843   0.511   1.532  16.024  3.9359 -0.0428 -1.0983
  784TIP3    H223844   0.549   1.679  16.016 -0.0140  0.9922 -1.6920
  785TIP3   OH223845   5.511   0.944   0.917  0.5210  0.1901 -0.5074
  785TIP3    H123846   5.516   0.849   0.908  0.1296  0.2311 -1.2277
  785TIP3    H223847   5.497   0.975   0.828  1.0399  0.9539 -0.3275
  786TIP3   OH223848   3.933   6.101   0.125  0.1151  0.1849 -0.8808
  786TIP3    H123849   3.968   6.069   0.208 -0.0960 -1.6961 -1.5031
  786TIP3    H223850   3.997   6.167   0.096  1.3442 -0.7458 -0.3233
  787TIP3   OH223851   2.118   6.238   5.173 -1.3095 -0.1839  0.0952
  787TIP3    H123852   2.117   6.332   5.187  0.6671  0.0117 -0.8976
  787TIP3    H223853   2.102   6.227   5.080 -0.2671 -0.7399 -0.0319
  788TIP3   OH223854   1.016   6.132  16.259 -0.0645  0.0261  0.1209
  788TIP3    H123855   1.002   6.225  16.276 -0.2550  0.0394 -0.1065
  788TIP3    H223856   1.096   6.129  16.206  0.0817  0.0424  0.3396
  789TIP3   OH223857   1.669   6.402  14.270 -0.5790 -0.1523  0.1727
  789TIP3    H123858   1.659   6.315  14.309  1.1008  0.3683  1.8756
  789TIP3    H223859   1.666   6.462  14.345 -0.8483  1.1859 -0.8872
  790TIP3   OH223860   2.832   6.503   4.430  0.1667  0.1373 -0.2672
  790TIP3    H123861   2.775   6.428   4.446 -0.2208  0.6071  0.5524
  790TIP3    H223862   2.913   6.482   4.476 -0.0475  0.3521  0.2115
  791TIP3   OH223863   5.909   1.428   1.318 -0.1547 -0.0252  0.5165
  791TIP3    H123864   5.975   1.458   1.381 -1.0399  2.1248  0.4640
  791TIP3    H223865   5.843   1.383   1.371 -1.8521  3.3868  1.4615
  792TIP3   OH223866   6.642   2.844  16.581  0.0385 -0.1208  0.3635
  792TIP3    H123867   6.633   2.844  16.677 -1.1878 -0.1356  0.2628
  792TIP3    H223868   6.653   2.937  16.558 -0.7409 -0.0054  0.4365
  793TIP3   OH223869   6.769   0.309   3.660  0.7695 -0.1101  0.2157
  793TIP3    H123870   6.713   0.386   3.649 -0.7797 -1.3804 -1.0017
  793TIP3    H223871   6.723   0.255   3.725  0.8728 -0.8851 -0.3489
  794TIP3   OH223872   2.337   3.119  16.411  0.1116 -0.5441  0.6643
  794TIP3    H123873   2.357   3.028  16.392  0.5719 -0.4915  0.8748
  794TIP3    H223874   2.420   3.165  16.398 -0.4598  0.0756 -0.8559
  795TIP3   OH223875   0.079   1.297  14.189  0.0938 -0.3032  0.4603
  795TIP3    H123876   0.071   1.392  14.181  0.1514 -0.3251  0.1527
  795TIP3    H223877   0.101   1.283  14.282 -0.7583 -0.0771  0.6958
  796TIP3   OH223878   3.538   2.150  16.971  0.4988 -0.3563  0.3290
  796TIP3    H123879   3.472   2.089  16.938 -0.0169 -0.4975  1.5868
  796TIP3    H223880   3.497   2.236  16.966  0.0814 -0.4890  1.4593
  797TIP3   OH223881   1.567   4.715   4.049 -0.4565  0.0353  0.1607
  797TIP3    H123882   1.582   4.664   3.969  0.9983  0.8942 -0.1317
  797TIP3    H223883   1.632   4.785   4.046 -2.7002  2.2199  0.3110
  798TIP3   OH223884   0.311   4.011  13.673  0.3280  0.0505 -0.0864
  798TIP3    H123885   0.368   3.960  13.731 -0.7802 -0.0819  0.8906
  798TIP3    H223886   0.349   3.998  13.586  1.4079 -0.5763  0.4638
  799TIP3   OH223887   6.466   0.161   5.787  0.4706 -0.8307 -0.2052
  799TIP3    H123888   6.467   0.176   5.692 -0.2689  1.6090  0.1267
  799TIP3    H223889   6.388   0.107   5.802  0.3769 -0.9036 -0.9353
  800TIP3   OH223890   1.527   3.866  15.511  0.2874 -0.3728 -0.0230
  800TIP3    H123891   1.618   3.889  15.492  0.7043 -1.3531  0.7466
  800TIP3    H223892   1.523   3.771  15.500 -0.7225 -0.3012 -0.3587
  801TIP3   OH223893   5.020   5.637  16.135  0.3284  0.6080  0.3675
  801TIP3    H123894   4.975   5.703  16.187 -1.4633  0.9776 -1.5967
  801TIP3    H223895   4.974   5.555  16.154 -1.3242  1.0046 -1.7186
  802TIP3   OH223896   1.271   0.371   0.649 -0.5150  0.6653 -0.4043
  802TIP3    H123897   1.205   0.410   0.592 -0.4419  1.4660  0.0473
  802TIP3    H223898   1.342   0.345   0.590 -1.2134 -0.1726 -0.8853
  803TIP3   OH223899   5.596   0.735  16.666  0.5176 -0.3850  0.4247
  803TIP3    H123900   5.586   0.748  16.572 -0.0700 -2.5057  0.1826
  803TIP3    H223901   5.689   0.717  16.679  0.5206 -0.5197  0.2068
  804TIP3   OH223902   3.732   6.012  12.555  0.2466 -0.0211 -0.3823
  804TIP3    H123903   3.678   5.968  12.621  1.0217  1.6498  1.4084
  804TIP3    H223904   3.679   6.085  12.526  1.1038  1.0232  0.6324
  805TIP3   OH223905   4.763   4.978  16.003  0.1060  0.1833 -0.4216
  805TIP3    H123906   4.813   4.910  15.957 -0.0723  0.3924 -0.9322
  805TIP3    H223907   4.676   4.940  16.014  0.6701 -0.6249  1.4743
  806TIP3   OH223908   4.010   1.252   2.697 -0.0867  0.0892  0.2948
  806TIP3    H123909   3.995   1.178   2.756 -2.2976  0.7048  0.5343
  806TIP3    H223910   3.931   1.257   2.643  0.5872  1.4685 -0.6037
  807TIP3   OH223911   2.544   3.281   5.964 -0.4110  0.1924  0.1330
  807TIP3    H123912   2.461   3.326   5.950 -0.2426  0.6008  0.4353
  807TIP3    H223913   2.542   3.257   6.057 -1.6346 -2.7063 -0.5824
  808TIP3   OH223914   0.732   2.758   1.579  0.0314  0.4836  0.1934
  808TIP3    H123915   0.802   2.699   1.550 -1.3216 -0.4389 -1.2509
  808TIP3    H223916   0.689   2.710   1.650  0.5938  0.8921  0.8246
  809TIP3   OH223917   1.459   2.943  16.608 -0.5614  0.3438 -0.0261
  809TIP3    H123918   1.530   2.973  16.665  0.7811  0.2345 -1.5828
  809TIP3    H223919   1.441   2.854  16.638  2.0712 -0.7571 -1.5023
  810TIP3   OH223920   1.664   4.409  15.973  0.4350  0.3987  0.2718
  810TIP3    H123921   1.588   4.352  15.955  2.4740 -1.7227 -2.0495
  810TIP3    H223922   1.670   4.410  16.069 -1.2113 -1.2076  0.4360
  811TIP3   OH223923   0.624   5.393   5.236  0.2515 -0.4312 -0.3699
  811TIP3    H123924   0.625   5.318   5.177 -1.6656 -0.2980 -0.5908
  811TIP3    H223925   0.637   5.469   5.179 -2.5521 -0.2196 -0.7998
  812TIP3   OH223926   4.812   2.218   3.116  0.7475 -0.3945 -0.5375
  812TIP3    H123927   4.821   2.313   3.120  1.1901 -0.4779  0.6349
  812TIP3    H223928   4.717   2.203   3.120  0.7083 -0.0303 -0.0403
  813TIP3   OH223929   1.220   5.438  11.332 -0.2681 -1.0585  0.1339
  813TIP3    H123930   1.127   5.460  11.325 -0.2468 -1.6837 -2.2665
  813TIP3    H223931   1.239   5.385  11.255  2.7579  1.4368 -0.9317
  814TIP3   OH223932   2.469   0.156  15.331 -0.2720  0.5122 -0.2401
  814TIP3    H123933   2.445   0.158  15.239 -1.0491  1.2308 -0.0342
  814TIP3    H223934   2.542   0.218  15.338  0.3037 -0.1377 -0.5130
  815TIP3   OH223935   5.541   4.002  16.596 -0.3099 -0.0887  0.1887
  815TIP3    H123936   5.630   3.996  16.633 -0.5828 -0.1133  0.8577
  815TIP3    H223937   5.553   3.987  16.503  0.4184  0.0932  0.2446
  816TIP3   OH223938   3.965   6.187   2.712  0.3544 -0.4061 -0.1352
  816TIP3    H123939   4.042   6.240   2.694 -0.3593  0.5610 -0.4056
  816TIP3    H223940   3.999   6.100   2.733  1.6274  0.5182  1.7400
  817TIP3   OH223941   5.335   0.836   4.608  0.4001 -0.0982 -0.2910
  817TIP3    H123942   5.352   0.816   4.516  0.9849  0.2849 -0.2640
  817TIP3    H223943   5.383   0.916   4.625 -2.0549  1.4613 -0.4349
  818TIP3   OH223944   4.376   2.854   6.333 -0.4321  0.7922 -0.6135
  818TIP3    H123945   4.323   2.838   6.255 -2.0698  0.1923  0.6147
  818TIP3    H223946   4.372   2.772   6.382  0.0749  1.3755  0.4157
  819TIP3   OH223947   2.303   0.056   2.290 -0.8371 -0.1318 -0.2365
  819TIP3    H123948   2.226   0.009   2.323 -1.2480  2.3300  2.5539
  819TIP3    H223949   2.377   0.016   2.335 -1.0359  0.9179  1.0330
  820TIP3   OH223950   4.060   3.801  12.430  0.2236  0.6151  0.2740
  820TIP3    H123951   4.044   3.749  12.351 -0.1034 -1.7316  1.8423
  820TIP3    H223952   3.972   3.823  12.462  0.3470  0.7477  0.5188
  821TIP3   OH223953   5.700   1.414   4.787  0.5904 -0.3996 -0.0653
  821TIP3    H123954   5.748   1.490   4.755  0.0853  0.1414  0.4642
  821TIP3    H223955   5.690   1.429   4.881 -1.4373 -0.0521 -0.3238
  822TIP3   OH223956   1.445   1.907   6.233 -0.7675 -0.3574  0.1490
  822TIP3    H123957   1.407   1.956   6.306  0.0552  0.2350  0.1780
  822TIP3    H223958   1.525   1.870   6.268 -1.2014 -1.4308  0.0182
  823TIP3   OH223959   2.696   2.668  15.221  0.0128  0.4005 -0.5189
  823TIP3    H123960   2.603   2.644  15.218 -0.0489  0.5694  0.1035
  823TIP3    H223961   2.698   2.759  15.191 -0.0754  0.5538 -0.0541
  824TIP3   OH223962   2.179   4.487   0.544 -0.6832 -0.3709  0.8725
  824TIP3    H123963   2.174   4.524   0.456  0.6406  2.0957  1.7753
  824TIP3    H223964   2.087   4.479   0.572 -1.1501 -1.9812 -1.0050
  825TIP3   OH223965   5.983   4.902  12.758 -0.1299 -0.4224  0.1777
  825TIP3    H123966   6.058   4.917  12.815  0.2099 -1.6230  0.0594
  825TIP3    H223967   6.020   4.868  12.677 -0.7392 -0.2936 -0.1620
  826TIP3   OH223968   3.869   5.334  13.176  0.6396 -0.8717 -0.3472
  826TIP3    H123969   3.944   5.357  13.121  0.8360 -3.2262 -1.0899
  826TIP3    H223970   3.793   5.357  13.123  0.8354 -2.0275 -1.1508
  827TIP3   OH223971   1.924   4.722   2.629  0.2359  0.1535  0.0742
  827TIP3    H123972   1.974   4.680   2.559 -0.2223  0.2659 -0.3289
  827TIP3    H223973   1.978   4.795   2.657  1.2008 -0.9070  1.0224
  828TIP3   OH223974   1.405   6.034  14.963  0.1791 -0.1382  0.2973
  828TIP3    H123975   1.317   6.048  14.998  0.3652 -0.1696  0.7829
  828TIP3    H223976   1.460   6.019  15.041  0.6071 -0.1420 -0.0021
  829TIP3   OH223977   4.195   3.428   1.833 -0.0223  0.3566  0.0063
  829TIP3    H123978   4.234   3.341   1.830 -1.2213 -0.2290  0.8409
  829TIP3    H223979   4.205   3.456   1.924 -1.9130  0.0033  0.3525
  830TIP3   OH223980   1.004   1.770   1.551  0.5216  0.2386  0.1374
  830TIP3    H123981   0.916   1.732   1.562 -0.2951  1.0693 -2.9435
  830TIP3    H223982   0.991   1.864   1.563  1.1182  0.2872  0.4030
  831TIP3   OH223983   4.775   2.528  12.603 -0.0762 -0.0322  0.1118
  831TIP3    H123984   4.715   2.540  12.529  0.4295 -1.9461 -0.6573
  831TIP3    H223985   4.858   2.503  12.562  0.1549 -1.3323  1.3404
  832TIP3   OH223986   0.284   0.882  14.930  0.5498  0.2387 -0.0573
  832TIP3    H123987   0.348   0.953  14.939  1.8971 -1.0215  0.5307
  832TIP3    H223988   0.203   0.926  14.904  1.4035  1.9719  0.1231
  833TIP3   OH223989   2.272   0.922  10.708 -0.2969 -0.2921 -0.1237
  833TIP3    H123990   2.242   0.839  10.745  0.8413 -0.7898 -0.3044
  833TIP3    H223991   2.273   0.906  10.613  0.9404 -0.4087 -0.0890
  834TIP3   OH223992   1.580   5.639   3.669 -0.2641  0.0212  0.1828
  834TIP3    H123993   1.624   5.561   3.635 -0.1620  0.7838 -1.4879
  834TIP3    H223994   1.634   5.666   3.743  0.9644 -0.2242 -0.5999
  835TIP3   OH223995   2.168   3.090   4.268 -0.6846  0.3097 -0.0588
  835TIP3    H123996   2.219   3.054   4.196  1.3968 -0.0476  1.5470
  835TIP3    H223997   2.081   3.103   4.231 -0.7727 -3.6800 -1.5268
  836TIP3   OH223998   4.822   5.249   3.982  0.3203 -0.5254 -0.0140
  836TIP3    H123999   4.800   5.228   3.891 -0.6576  1.0389 -0.1573
  836TIP3    H224000   4.782   5.335   3.997  2.6207  0.4051  1.1026
  837TIP3   OH224001   0.539   5.449   1.250  0.8035  0.2422  0.2592
  837TIP3    H124002   0.554   5.512   1.180  1.0237 -0.2719 -0.1585
  837TIP3    H224003   0.461   5.480   1.295  1.5306  1.4233  0.7287
  838TIP3   OH224004   1.153   0.475   4.951  0.0884 -0.2983 -0.3979
  838TIP3    H124005   1.106   0.559   4.955 -0.0689 -0.1667 -3.7461
  838TIP3    H224006   1.087   0.410   4.975  0.0106  0.4471  1.4768
  839TIP3   OH224007   2.975   5.013   4.398  0.2197 -0.1852  0.3661
  839TIP3    H124008   2.905   4.950   4.414 -1.1446  1.4323  0.9209
  839TIP3    H224009   3.018   5.024   4.483  0.5252 -0.4353  0.2464
  840TIP3   OH224010   6.724   5.091  15.411  0.1464  0.2164  0.2850
  840TIP3    H124011   6.683   5.126  15.332  1.4322  1.0867 -0.0127
  840TIP3    H224012   6.686   5.142  15.483  2.7596  3.0670 -0.2217
  841TIP3   OH224013   2.449   3.998  16.972 -0.2317  0.2687 -0.1429
  841TIP3    H124014   2.511   4.053  16.925  1.6540 -2.1214 -0.5664
  841TIP3    H224015   2.416   4.053  17.043  3.0412  1.3413  0.6251
  842TIP3   OH224016   4.877   2.257   4.186 -0.0589 -0.6685 -0.4204
  842TIP3    H124017   4.795   2.277   4.230 -1.1252 -0.2550 -2.5572
  842TIP3    H224018   4.926   2.340   4.188  0.1012 -0.7737  0.3651
  843TIP3   OH224019   0.361   6.725  13.879 -0.4385 -0.1003  0.2422
  843TIP3    H124020   0.366   6.684  13.966 -1.5463 -0.3457  0.2064
  843TIP3    H224021   0.270   6.711  13.852 -0.5738  1.5727 -0.1869
  844TIP3   OH224022   3.204   1.205   0.372  0.0968  0.2918 -0.1324
  844TIP3    H124023   3.123   1.170   0.408  0.8600 -0.3016  1.0298
  844TIP3    H224024   3.211   1.166   0.285  0.2040 -1.3295  0.5879
  845TIP3   OH224025   1.800   6.157   2.186 -0.4536 -0.1465 -0.4249
  845TIP3    H124026   1.870   6.222   2.191 -1.4221  0.8683  0.1084
  845TIP3    H224027   1.846   6.074   2.169  1.0149  0.1735  1.8153
  846TIP3   OH224028   1.458   1.341   1.246 -0.0137  0.1336 -0.1902
  846TIP3    H124029   1.533   1.383   1.288 -0.8385  0.7543  0.6850
  846TIP3    H224030   1.391   1.337   1.315 -0.6209 -0.8512 -0.8167
  847TIP3   OH224031   0.718   1.077  12.528 -0.3670 -0.0127 -0.1633
  847TIP3    H124032   0.763   1.131  12.463  0.5863 -0.2589  0.2878
  847TIP3    H224033   0.757   1.102  12.612  0.3534 -1.6683  0.0039
  848TIP3   OH224034   5.085   2.197  12.836  0.1798 -0.3252 -0.8283
  848TIP3    H124035   5.126   2.242  12.910 -1.6662 -0.7016  0.4519
  848TIP3    H224036   5.145   2.211  12.763  1.4609  1.0287  0.4624
  849TIP3   OH224037   4.017   3.752  12.757 -0.3217  0.3887  0.3308
  849TIP3    H124038   4.097   3.718  12.717  1.3688  2.4473  1.8414
  849TIP3    H224039   3.955   3.679  12.752  1.2923 -0.9038 -1.7934
  850TIP3   OH224040   1.056   4.114  10.655 -0.1280 -0.7486  0.2044
  850TIP3    H124041   1.101   4.049  10.708  0.8067  0.1885  0.5565
  850TIP3    H224042   1.094   4.105  10.567  0.6840 -0.0205  0.4802
  851TIP3   OH224043   1.108   4.185   2.652 -0.1200 -0.1966  0.6075
  851TIP3    H124044   1.050   4.229   2.589 -0.2844 -0.9217  0.2542
  851TIP3    H224045   1.100   4.092   2.631 -0.0247 -0.4255  1.5734
  852TIP3   OH224046   3.575   1.776   1.906 -0.3070 -0.1778  0.2438
  852TIP3    H124047   3.526   1.817   1.978  0.4994  2.2213 -0.5051
  852TIP3    H224048   3.560   1.834   1.831  1.5253 -0.8465 -0.6682
  853TIP3   OH224049   1.167   1.889  15.557  0.3736 -0.1666 -0.0804
  853TIP3    H124050   1.154   1.861  15.466  0.9570  1.3809 -0.6665
  853TIP3    H224051   1.100   1.955  15.571 -1.9612 -2.8094  1.7722
  854TIP3   OH224052   1.958   0.715   1.044 -0.3281  0.4521  0.2368
  854TIP3    H124053   1.925   0.804   1.036 -0.6262  0.4179  1.0277
  854TIP3    H224054   1.943   0.675   0.958 -0.6553  1.0043  0.0400
  855TIP3   OH224055   3.874   0.348   3.879  0.4883  0.0627  0.0760
  855TIP3    H124056   3.907   0.323   3.792  1.1560 -2.7282  1.0577
  855TIP3    H224057   3.793   0.299   3.888 -0.9705  2.3997  0.0176
  856TIP3   OH224058   2.587   6.463  15.786 -0.3150 -0.0674 -0.2725
  856TIP3    H124059   2.532   6.527  15.741  0.3478  1.3351  0.8453
  856TIP3    H224060   2.541   6.443  15.868 -0.2850 -0.6459 -0.3954
  857TIP3   OH224061   0.126   4.536  14.824  0.6793 -0.6113  0.5942
  857TIP3    H124062   0.149   4.520  14.733  2.1955 -0.4596  0.9494
  857TIP3    H224063   0.160   4.623  14.843 -1.9233  0.4690  0.5596
  858TIP3   OH224064   5.605   2.754   1.104 -0.3068  0.2056 -0.0715
  858TIP3    H124065   5.678   2.730   1.047 -0.0946 -0.0024  0.2880
  858TIP3    H224066   5.626   2.716   1.189 -0.9173 -0.0024 -0.0070
  859TIP3   OH224067   4.651   1.490  12.718  0.0121 -0.1295 -0.2535
  859TIP3    H124068   4.651   1.565  12.777  0.9819  0.2550 -0.7253
  859TIP3    H224069   4.610   1.420  12.769 -2.2931  1.1123 -0.3638
  860TIP3   OH224070   5.958   1.334  13.274  0.2071  0.1719  0.0029
  860TIP3    H124071   5.939   1.257  13.221  0.0274 -1.3936  2.3054
  860TIP3    H224072   5.881   1.389  13.265 -0.1336 -0.4117 -0.7369
  861TIP3   OH224073   4.220   6.587  14.005  0.0592 -0.0655 -0.1296
  861TIP3    H124074   4.273   6.509  13.989  1.3547  1.0595 -1.3576
  861TIP3    H224075   4.136   6.552  14.035  0.9872 -1.9022  0.4063
  862TIP3   OH224076   0.879   2.522  16.392  0.0172  0.1261  0.6894
  862TIP3    H124077   0.910   2.612  16.382  1.7769 -0.6737 -1.4303
  862TIP3    H224078   0.816   2.511  16.322 -0.6300 -0.1281  1.3069
  863TIP3   OH224079   1.807   3.666  15.073 -0.2289 -0.4066 -0.2390
  863TIP3    H124080   1.863   3.595  15.105  0.4422 -0.3652 -1.3009
  863TIP3    H224081   1.776   3.636  14.988  1.4755  1.3062 -1.5106
  864TIP3   OH224082   1.174   0.731  13.415  0.1783 -0.2269 -0.3195
  864TIP3    H124083   1.201   0.697  13.329 -1.1420 -3.3017  0.4077
  864TIP3    H224084   1.255   0.733  13.466  1.2636  3.1332 -2.0509
  865TIP3   OH224085   4.605   2.622  15.227 -0.6581 -0.7928 -0.0690
  865TIP3    H124086   4.518   2.633  15.266 -0.5924 -1.5371  0.2948
  865TIP3    H224087   4.590   2.628  15.133 -0.5739  2.7619  0.0699
  866TIP3   OH224088   6.545   5.154   2.104 -0.0817  0.6624  0.3041
  866TIP3    H124089   6.501   5.186   2.183 -1.3154 -0.8414  0.2413
  866TIP3    H224090   6.485   5.176   2.033  1.1201  2.1986 -0.2691
  867TIP3   OH224091   5.572   3.890   1.541 -0.2108  0.1459 -0.3048
  867TIP3    H124092   5.535   3.852   1.620  1.2317 -1.1781 -0.2304
  867TIP3    H224093   5.529   3.975   1.532 -0.8916  0.0056  1.5007
  868TIP3   OH224094   3.651   4.616  14.479  0.2551  0.3176 -0.1147
  868TIP3    H124095   3.654   4.708  14.506 -3.6983  0.5114 -0.0185
  868TIP3    H224096   3.606   4.572  14.551  1.0792 -1.5151 -0.6949
  869TIP3   OH224097   1.477   5.794   1.537  0.2059 -0.1498  0.2527
  869TIP3    H124098   1.496   5.733   1.465  0.0773  1.5157 -1.2364
  869TIP3    H224099   1.397   5.839   1.508  0.8339  1.3824  0.8890
  870TIP3   OH224100   2.275   5.328   3.866  0.6143 -0.7995  0.5648
  870TIP3    H124101   2.328   5.376   3.802  0.6552 -1.6268 -0.0339
  870TIP3    H224102   2.258   5.244   3.824  0.7832 -1.4187  1.7113
  871TIP3   OH224103   6.677   1.009   3.609  0.5724 -0.5891  0.2418
  871TIP3    H124104   6.624   1.032   3.684 -0.5067  1.3165 -1.0565
  871TIP3    H224105   6.760   1.055   3.623 -0.5649  1.9127 -0.9650
  872TIP3   OH224106   1.610   3.507  11.381  0.2440 -0.4350 -0.3429
  872TIP3    H124107   1.528   3.551  11.399  0.0073 -0.5377 -1.1523
  872TIP3    H224108   1.631   3.531  11.291  0.2960 -1.6656 -0.6682
  873TIP3   OH224109   0.870   5.416   0.459  0.0470 -0.0430 -0.3150
  873TIP3    H124110   0.904   5.503   0.478  0.1584 -0.4166  1.3313
  873TIP3    H224111   0.915   5.359   0.522  0.9611 -1.4889 -2.2507
  874TIP3   OH224112   1.168   2.827  15.757  0.4472  0.4469  0.2661
  874TIP3    H124113   1.109   2.754  15.778  0.9819 -0.2887 -0.7578
  874TIP3    H224114   1.117   2.905  15.779 -1.3870 -0.1349 -1.6961
  875TIP3   OH224115   3.923   4.629   5.283  0.1873 -0.3256  0.3428
  875TIP3    H124116   3.976   4.705   5.308 -0.8438  0.5302 -0.0339
  875TIP3    H224117   3.900   4.645   5.192  1.3758 -1.9346 -0.2498
  876TIP3   OH224118   6.337   4.940   2.159 -0.2850 -0.2308 -0.0617
  876TIP3    H124119   6.338   5.010   2.093 -0.0099  0.1414  0.3302
  876TIP3    H224120   6.253   4.950   2.203 -1.5697 -2.0431 -1.9891
  877TIP3   OH224121   1.592   6.612  11.995 -0.2027  0.9558  0.0134
  877TIP3    H124122   1.610   6.598  11.902 -0.7865  1.1629 -0.1337
  877TIP3    H224123   1.611   6.705  12.010  3.3965  0.1501  0.9305
  878TIP3   OH224124   3.454   1.186   1.914 -0.5782 -0.5865 -0.3646
  878TIP3    H124125   3.525   1.124   1.898  0.5665  0.6695 -0.2415
  878TIP3    H224126   3.405   1.148   1.988 -0.8330 -2.1150 -1.2984
  879TIP3   OH224127   0.765   0.156   4.866 -0.0521  0.1115 -0.4241
  879TIP3    H124128   0.763   0.251   4.854  1.8698  0.1543 -0.6168
  879TIP3    H224129   0.722   0.141   4.950  0.9739  1.3102  0.3438
  880TIP3   OH224130   3.137   3.979   0.317  0.3596 -0.4695 -0.2885
  880TIP3    H124131   3.097   4.033   0.385 -0.5216  1.3771 -2.2268
  880TIP3    H224132   3.065   3.926   0.282  0.0141  1.2506 -2.2602
  881TIP3   OH224133   3.775   4.016   3.088  0.2349  0.0781  0.0399
  881TIP3    H124134   3.853   3.982   3.132  0.2181 -0.7755 -0.5615
  881TIP3    H224135   3.761   3.955   3.015 -1.7029 -0.5280  0.8703
  882TIP3   OH224136   2.377   5.731   5.184  0.2415 -0.2106 -0.5996
  882TIP3    H124137   2.384   5.826   5.180  2.6742 -0.3382 -0.0146
  882TIP3    H224138   2.354   5.705   5.095  0.1368  0.8962 -0.8982
  883TIP3   OH224139   3.398   5.816  13.165 -0.1655  0.0814 -0.5172
  883TIP3    H124140   3.438   5.738  13.205  1.0984  1.0171  0.0839
  883TIP3    H224141   3.317   5.830  13.214 -0.7468 -1.2484 -1.0787
  884TIP3   OH224142   4.427   2.854  12.092 -0.7351  0.1451 -0.2531
  884TIP3    H124143   4.379   2.918  12.040 -1.6066 -0.5780 -0.3557
  884TIP3    H224144   4.446   2.898  12.175 -2.2906  0.1699  0.1026
  885TIP3   OH224145   1.002   1.352  15.209 -0.2603 -0.3222  0.0995
  885TIP3    H124146   1.039   1.425  15.159 -0.9248 -1.5078 -2.2207
  885TIP3    H224147   1.043   1.357  15.295  1.2415  1.5461 -0.7073
  886TIP3   OH224148   6.382   1.472   0.287  0.2002 -0.2811 -0.0124
  886TIP3    H124149   6.339   1.556   0.274 -1.3016 -0.9296  0.6766
  886TIP3    H224150   6.467   1.494   0.325  0.3832  0.9936 -1.1065
  887TIP3   OH224151   1.967   1.976   4.215  0.9502  0.5090  0.0664
  887TIP3    H124152   1.928   1.891   4.194 -0.5994  1.2307 -0.0813
  887TIP3    H224153   2.024   1.958   4.290 -0.7261 -0.3445  1.1655
  888TIP3   OH224154   1.878   5.905  11.119 -0.6173  0.2000  0.5596
  888TIP3    H124155   1.918   5.836  11.173  2.3680  1.5474  0.1807
  888TIP3    H224156   1.913   5.889  11.031 -2.4107  0.3352 -0.2020
  889TIP3   OH224157   3.022   6.026  14.919  0.7030 -0.0892  0.4831
  889TIP3    H124158   2.946   6.049  14.865  1.2081  1.3601  0.3623
  889TIP3    H224159   3.056   6.110  14.950  0.8858 -0.8670  2.4378
  890TIP3   OH224160   1.388   4.464  16.907 -0.2853  0.2648 -0.3126
  890TIP3    H124161   1.393   4.378  16.949  0.1918  0.6009  0.3132
  890TIP3    H224162   1.313   4.456  16.847 -0.8679 -0.2660  0.4635
  891TIP3   OH224163   1.993   6.764   5.380  0.1528 -0.2225 -0.3639
  891TIP3    H124164   2.027   6.757   5.469  1.5569 -1.0633 -0.9438
  891TIP3    H224165   2.030   6.688   5.334 -0.3258  0.3509 -1.7249
  892TIP3   OH224166   6.455   0.113  11.564  0.2648 -0.5531 -0.0774
  892TIP3    H124167   6.520   0.143  11.500 -0.2055 -0.7107 -0.6222
  892TIP3    H224168   6.444   0.020  11.546  1.2117 -0.9188  1.1758
  893TIP3   OH224169   1.351   2.446  13.068 -0.1014 -0.1706 -0.1246
  893TIP3    H124170   1.401   2.511  13.116  0.5758  0.9517 -2.2850
  893TIP3    H224171   1.282   2.495  13.023  0.7168 -0.8234 -2.1766
  894TIP3   OH224172   5.786   2.538  15.905 -0.0885 -0.1718  0.7287
  894TIP3    H124173   5.801   2.446  15.885  0.4100 -0.1243  0.8918
  894TIP3    H224174   5.873   2.576  15.916 -0.3283 -0.0823  2.4926
  895TIP3   OH224175   4.524   0.549   5.377 -0.5276  0.4817  0.1386
  895TIP3    H124176   4.446   0.504   5.408  0.1894 -1.4609 -0.7819
  895TIP3    H224177   4.573   0.570   5.457 -1.7536  1.2744  0.6818
  896TIP3   OH224178   6.340   2.908   0.420 -0.1005 -0.2899 -0.6771
  896TIP3    H124179   6.307   2.995   0.441  0.7282 -0.4092  1.2587
  896TIP3    H224180   6.270   2.867   0.369 -1.2834  0.8440  0.0194
  897TIP3   OH224181   2.679   5.918   2.797 -0.0137  0.0681 -0.2302
  897TIP3    H124182   2.674   5.864   2.719 -0.3456  0.3036 -0.3776
  897TIP3    H224183   2.764   5.898   2.835 -0.7450 -1.6555  0.5297
  898TIP3   OH224184   3.565   4.150  16.822 -0.2920  0.0700  0.2318
  898TIP3    H124185   3.617   4.070  16.814  0.3609  0.8201 -4.5415
  898TIP3    H224186   3.480   4.127  16.783 -0.5113  1.3252 -0.0459
  899TIP3   OH224187   4.453   2.496   1.401  0.5291 -0.5947  0.4296
  899TIP3    H124188   4.381   2.474   1.460  0.8551  0.3166  1.1869
  899TIP3    H224189   4.498   2.413   1.387  0.9526 -0.6907  2.1627
  900TIP3   OH224190   1.177   5.584  13.617 -0.1109 -0.1324 -0.0538
  900TIP3    H124191   1.200   5.553  13.705 -2.1533 -1.0427  0.1890
  900TIP3    H224192   1.229   5.530  13.558 -1.9035 -2.5317  0.4596
  901TIP3   OH224193   1.845   5.688  15.342 -0.6382  0.5848  0.0509
  901TIP3    H124194   1.787   5.673  15.267 -2.2589 -2.2967  1.7698
  901TIP3    H224195   1.930   5.657  15.312 -0.3928  2.9084 -1.8050
  902TIP3   OH224196   3.058   2.466  12.324  0.2519 -0.2954 -0.3706
  902TIP3    H124197   3.129   2.475  12.387 -1.1504  0.3358  1.1490
  902TIP3    H224198   3.003   2.397  12.360 -0.0860 -0.5490 -1.3669
  903TIP3   OH224199   1.664   5.779  11.247  0.0314  0.4952  0.1836
  903TIP3    H124200   1.660   5.759  11.154  0.7185 -0.4882  0.3607
  903TIP3    H224201   1.723   5.854  11.254  1.8749 -0.9208  0.0582
  904TIP3   OH224202   4.814   3.359   6.164  0.3318 -0.4797  0.2499
  904TIP3    H124203   4.891   3.382   6.216 -0.3129  0.9921  0.6038
  904TIP3    H224204   4.747   3.337   6.229  0.5150 -1.9492 -0.0588
  905TIP3   OH224205   5.887   3.185  15.644 -0.3851  0.4694  0.8568
  905TIP3    H124206   5.843   3.120  15.589 -0.2053  0.4577  0.7260
  905TIP3    H224207   5.886   3.265  15.591 -0.3235  0.4903  0.8866
  906TIP3   OH224208   5.104   2.554   3.907 -0.4522  0.1996 -0.2977
  906TIP3    H124209   5.172   2.581   3.845 -0.7854  0.2781 -0.6239
  906TIP3    H224210   5.114   2.459   3.912  2.1785  0.5401  2.5231
  907TIP3   OH224211   2.157   0.017   4.356 -1.0169 -0.6481 -0.0185
  907TIP3    H124212   2.108   0.046   4.279 -1.6382  0.9389  0.9322
  907TIP3    H224213   2.219  -0.047   4.322 -0.8532  0.4790 -1.9534
  908TIP3   OH224214   3.953   0.915   3.919 -0.1546  0.0589  0.3134
  908TIP3    H124215   3.972   0.865   3.840 -0.1493 -0.0021  0.3539
  908TIP3    H224216   3.921   0.851   3.982  0.2823  0.0359  0.5145
  909TIP3   OH224217   1.760   0.494   5.798  0.3546 -0.2646  0.0966
  909TIP3    H124218   1.797   0.463   5.716 -0.6279 -2.5870  0.4841
  909TIP3    H224219   1.835   0.508   5.856  0.8246 -1.9081 -0.1134
  910TIP3   OH224220   4.076   3.179  13.137  0.0394  0.4449  0.6672
  910TIP3    H124221   4.098   3.217  13.223  0.1789 -1.0800  1.3168
  910TIP3    H224222   4.010   3.239  13.101  1.1805  2.0190  1.1067
  911TIP3   OH224223   6.538   1.926  14.037 -0.6406  0.0387 -0.2230
  911TIP3    H124224   6.574   1.938  14.125 -2.4211 -0.5335  0.6009
  911TIP3    H224225   6.465   1.988  14.033 -0.8338 -0.2500 -1.1475
  912TIP3   OH224226   3.072   0.076  16.015  0.6212  0.2883 -0.2205
  912TIP3    H124227   3.154   0.081  16.065  1.3474  0.2295 -1.3711
  912TIP3    H224228   3.100   0.054  15.926 -0.6135  0.7797 -0.7430
  913TIP3   OH224229   2.864   0.437   2.971  0.1607  0.2233  0.1490
  913TIP3    H124230   2.846   0.444   3.065  0.2039  0.9934  0.1049
  913TIP3    H224231   2.894   0.347   2.959 -1.4479 -0.3842  0.5848
  914TIP3   OH224232   1.077   5.858  15.000  0.2889 -0.4481  0.4216
  914TIP3    H124233   1.060   5.828  14.911  0.5274 -1.0179  0.5688
  914TIP3    H224234   1.167   5.831  15.017  0.9736  1.4885  0.0736
  915TIP3   OH224235   1.146   6.363  12.342  0.3676  0.0524 -0.4143
  915TIP3    H124236   1.086   6.423  12.386  0.3412  0.9362 -1.6028
  915TIP3    H224237   1.206   6.421  12.295  0.6089 -0.8516 -1.2306
  916TIP3   OH224238   5.797   1.150  12.653 -0.1569  0.0695  0.0632
  916TIP3    H124239   5.873   1.110  12.610 -1.3264  1.2656 -3.3381
  916TIP3    H224240   5.722   1.117  12.604 -1.7487 -0.0870  2.5505
  917TIP3   OH224241   5.574   2.894   5.531 -0.1669 -0.2014 -0.5967
  917TIP3    H124242   5.617   2.811   5.511 -1.3877 -0.6100 -1.5878
  917TIP3    H224243   5.645   2.958   5.530  0.5328 -0.9665 -1.5216
  918TIP3   OH224244   6.692   0.258   4.313  0.6783  0.2879 -0.3246
  918TIP3    H124245   6.744   0.281   4.390  2.1605 -0.7528 -0.9920
  918TIP3    H224246   6.749   0.199   4.263 -1.2214 -1.0600 -0.9509
  919TIP3   OH224247   6.129   3.679   2.487  0.4376 -0.4237 -0.3104
  919TIP3    H124248   6.092   3.667   2.575 -0.2257 -1.4971 -0.7287
  919TIP3    H224249   6.179   3.600   2.471 -0.2474 -0.6726 -1.2881
  920TIP3   OH224250   1.544   1.762   2.400 -0.6741  0.0734  0.5275
  920TIP3    H124251   1.508   1.803   2.321  2.7087  1.4416 -0.3923
  920TIP3    H224252   1.545   1.668   2.379 -0.1831  0.3881 -0.9224
  921TIP3   OH224253   1.676   5.015   1.747  0.4099 -0.1401  0.6477
  921TIP3    H124254   1.644   4.929   1.775  0.1126 -0.3844 -0.3985
  921TIP3    H224255   1.604   5.075   1.767  0.8911 -0.0079  2.0259
  922TIP3   OH224256   4.682   5.601  15.284 -0.2439 -0.0520  0.0582
  922TIP3    H124257   4.700   5.641  15.369 -0.3074  0.0532  0.0203
  922TIP3    H224258   4.732   5.519  15.286  1.0179  0.6854 -0.4038
  923TIP3   OH224259   0.146   1.248  16.933  0.6186 -0.0349  0.5488
  923TIP3    H124260   0.168   1.220  16.844 -0.9720  1.5639 -0.3811
  923TIP3    H224261   0.067   1.199  16.956 -1.6033  2.8311 -0.7087
  924TIP3   OH224262   0.435   1.488  13.196 -0.5946  0.0405 -0.0955
  924TIP3    H124263   0.498   1.560  13.186  0.3620 -0.9567 -1.2883
  924TIP3    H224264   0.483   1.422  13.246  0.2393 -1.8205 -3.2601
  925TIP3   OH224265   0.671   2.360   1.322 -0.1757  0.4220  0.2495
  925TIP3    H124266   0.624   2.276   1.321  0.5205  0.0281  0.0098
  925TIP3    H224267   0.615   2.419   1.272 -0.5394  0.0258  0.1814
  926TIP3   OH224268   0.561   5.297  16.955 -0.2551  0.1931  0.2412
  926TIP3    H124269   0.530   5.206  16.953 -0.5285  0.2917 -0.3300
  926TIP3    H224270   0.619   5.301  17.031 -0.3874 -0.4104  0.3825
  927TIP3   OH224271   4.095   1.783   2.149  0.0729 -0.2471 -0.4061
  927TIP3    H124272   4.097   1.687   2.148  2.2980 -0.2215 -0.4417
  927TIP3    H224273   4.103   1.808   2.057  0.4906 -0.0234 -0.3092
  928TIP3   OH224274   3.036   1.750   2.693 -0.2319  0.2879  0.3608
  928TIP3    H124275   3.019   1.657   2.706 -0.0694 -0.0030 -1.3072
  928TIP3    H224276   2.967   1.778   2.633 -0.0395  1.1441  0.5409
  929TIP3   OH224277   0.784   0.079   3.655 -0.7407 -0.3885 -0.1913
  929TIP3    H124278   0.776   0.032   3.738  1.3993  0.1608  0.3744
  929TIP3    H224279   0.696   0.079   3.619 -1.6696 -0.8553  1.9637
  930TIP3   OH224280   3.548   3.691   2.062  0.3516  0.5778  0.3628
  930TIP3    H124281   3.584   3.602   2.059  0.6209  0.5539  3.1478
  930TIP3    H224282   3.453   3.679   2.066  0.4491  0.3633  2.1636
  931TIP3   OH224283   1.596   5.020  15.044  0.3959 -0.4801  0.0972
  931TIP3    H124284   1.545   5.093  15.010  0.6783 -0.2548  0.1514
  931TIP3    H224285   1.635   5.054  15.125  0.3183 -0.7717  0.2578
  932TIP3   OH224286   1.345   3.673  13.615 -0.0616  0.8499  0.1342
  932TIP3    H124287   1.400   3.608  13.572  2.0117  1.7168  1.3693
  932TIP3    H224288   1.296   3.714  13.544 -0.4666 -1.1762 -0.7975
  933TIP3   OH224289   2.673   0.642  16.749  0.4368 -0.3682 -0.5324
  933TIP3    H124290   2.665   0.680  16.662  0.8753 -3.2728 -1.9174
  933TIP3    H224291   2.763   0.661  16.776  1.2007 -1.8287 -1.9417
  934TIP3   OH224292   6.198   5.435  12.014 -0.1673  0.0142 -0.2628
  934TIP3    H124293   6.141   5.461  12.086  1.7897  0.6895  1.0944
  934TIP3    H224294   6.231   5.348  12.039  1.2864  0.6672  0.1862
  935TIP3   OH224295   1.995   6.365   2.867 -0.4462  0.5219 -0.2109
  935TIP3    H124296   1.981   6.435   2.804  1.2659 -0.3359 -1.5879
  935TIP3    H224297   1.974   6.285   2.819 -1.3671  0.0102  1.0223
  936TIP3   OH224298   4.327   0.832  13.885  0.2820 -1.0340 -0.6565
  936TIP3    H124299   4.274   0.762  13.847 -2.5590  0.6205  0.1185
  936TIP3    H224300   4.379   0.789  13.952 -1.0422 -2.4868 -0.5337
  937TIP3   OH224301   5.738   3.153   5.203 -0.4031  0.3005 -0.4371
  937TIP3    H124302   5.661   3.163   5.258 -0.5416 -1.0074 -0.3957
  937TIP3    H224303   5.722   3.212   5.129 -1.4209  0.0648 -0.4083
  938TIP3   OH224304   0.501   0.110  13.669 -0.0034  0.3082  0.0645
  938TIP3    H124305   0.568   0.046  13.647 -0.3671 -0.3207  0.7708
  938TIP3    H224306   0.469   0.141  13.584 -0.2640 -0.8997 -0.2833
  939TIP3   OH224307   6.080   4.957  11.287  0.3942 -0.6349  0.4490
  939TIP3    H124308   6.077   5.049  11.259 -0.8329 -1.1246 -1.1410
  939TIP3    H224309   6.165   4.925  11.258  0.5321 -0.1959  0.3658
  940TIP3   OH224310   3.271   6.127   2.054 -0.2060 -0.2241  0.4513
  940TIP3    H124311   3.252   6.124   1.960 -0.2709 -1.4374  0.4847
  940TIP3    H224312   3.250   6.038   2.085  0.2507  0.0332  1.5256
  941TIP3   OH224313   5.031   3.855   5.888 -0.1622 -0.1573  0.2251
  941TIP3    H124314   4.978   3.926   5.923 -0.0918  0.2177 -0.4214
  941TIP3    H224315   5.052   3.801   5.964 -0.1969  0.5249  0.7220
  942TIP3   OH224316   6.379   2.418   2.065  0.2397 -0.7260 -0.4225
  942TIP3    H124317   6.288   2.394   2.082 -0.0389 -0.4273 -1.4715
  942TIP3    H224318   6.376   2.472   1.986  1.0328  1.5532  1.0557
  943TIP3   OH224319   4.308   1.321   0.793 -0.3227  0.1523 -0.4721
  943TIP3    H124320   4.287   1.409   0.761 -1.4769  0.0449 -0.0225
  943TIP3    H224321   4.317   1.268   0.714 -0.1396  0.5596 -0.7242
  944TIP3   OH224322   3.899   5.753   5.378  0.4864 -0.3087  0.1073
  944TIP3    H124323   3.804   5.747   5.372  0.4660 -0.3877  0.4696
  944TIP3    H224324   3.925   5.675   5.427  0.8244 -0.7607 -0.7937
  945TIP3   OH224325   4.893   5.129  13.193 -0.2221 -0.0241 -0.2447
  945TIP3    H124326   4.958   5.158  13.128  0.3372 -0.6434  0.0319
  945TIP3    H224327   4.846   5.209  13.217 -1.7629 -0.0824 -2.8497
  946TIP3   OH224328   2.592   0.365   2.355  0.0074 -0.6020  0.1942
  946TIP3    H124329   2.517   0.397   2.404  0.3624 -1.0361  1.0383
  946TIP3    H224330   2.666   0.416   2.388  0.3702 -1.4108  0.6542
  947TIP3   OH224331   6.322   2.633   1.261  0.4233 -0.6494  0.7332
  947TIP3    H124332   6.314   2.673   1.174  1.6208  0.9205  1.3249
  947TIP3    H224333   6.330   2.539   1.243  2.8673 -0.1538 -0.9832
  948TIP3   OH224334   6.705   3.504   4.217  0.1125  0.0115  0.5408
  948TIP3    H124335   6.754   3.449   4.155 -1.8717  0.4502 -1.4961
  948TIP3    H224336   6.657   3.442   4.271 -0.4891 -0.3304 -0.3685
  949TIP3   OH224337   4.672   2.299  12.208 -0.1102 -0.1753 -0.1989
  949TIP3    H124338   4.580   2.319  12.191 -0.5923 -1.9569  0.2458
  949TIP3    H224339   4.677   2.285  12.303  0.4187 -1.0276 -0.3387
  950TIP3   OH224340   4.546   5.847  11.153 -0.0584 -0.3692  0.5278
  950TIP3    H124341   4.624   5.806  11.189  0.4025 -0.7762 -0.9150
  950TIP3    H224342   4.540   5.813  11.064 -1.0311  0.8294  0.1252
  951TIP3   OH224343   2.412   1.829  14.628  0.4857 -0.2582  0.0141
  951TIP3    H124344   2.456   1.841  14.543  0.7712  3.3352  0.6259
  951TIP3    H224345   2.322   1.858  14.613  0.4310  0.0172  0.8718
  952TIP3   OH224346   4.715   0.576   2.655 -0.7830  0.2159  0.0513
  952TIP3    H124347   4.777   0.572   2.728 -1.1753 -1.9279  0.3049
  952TIP3    H224348   4.630   0.586   2.698 -0.7746  1.5349 -0.2292
  953TIP3   OH224349   2.699   3.341   0.400  0.1442  0.5429  0.5445
  953TIP3    H124350   2.672   3.401   0.470 -1.8159  0.4140 -0.0764
  953TIP3    H224351   2.702   3.396   0.322  3.4805  0.9452  0.9024
  954TIP3   OH224352   3.889   1.687  17.017  0.4697 -0.3312  0.0246
  954TIP3    H124353   3.876   1.595  17.043 -2.1546 -0.4413 -1.5262
  954TIP3    H224354   3.949   1.683  16.943  0.6399 -0.7512  0.1827
  955TIP3   OH224355   4.346   2.064   5.546 -0.1434 -0.5108  0.1461
  955TIP3    H124356   4.266   2.117   5.544  0.1699 -0.0818 -1.2877
  955TIP3    H224357   4.316   1.974   5.558 -0.7440 -0.1608  1.3473
  956TIP3   OH224358   1.712   1.518  16.323  0.7450 -0.2979  0.8865
  956TIP3    H124359   1.797   1.516  16.279 -0.0028 -0.9482 -0.5715
  956TIP3    H224360   1.670   1.435  16.299 -0.3093  0.0138  1.5856
  957TIP3   OH224361   2.546   0.869   0.544 -0.8081 -0.1679 -0.1354
  957TIP3    H124362   2.559   0.862   0.449 -1.1157  0.1617 -0.2030
  957TIP3    H224363   2.628   0.907   0.576 -0.8095 -0.0205 -0.3037
  958TIP3   OH224364   3.040   3.256  12.510  0.0005  0.1784  0.0626
  958TIP3    H124365   2.987   3.274  12.588  0.3346  2.0675 -0.1198
  958TIP3    H224366   3.048   3.161  12.508 -1.7470 -0.0248  1.1795
  959TIP3   OH224367   0.251   2.264   5.904  0.4148 -0.7669 -0.3334
  959TIP3    H124368   0.288   2.289   5.988 -0.6371  2.3475 -0.7441
  959TIP3    H224369   0.317   2.291   5.840 -0.9473  1.5238 -0.8198
  960TIP3   OH224370   5.892   0.115  15.966 -0.3445  0.0432 -0.2570
  960TIP3    H124371   5.891   0.074  16.052 -0.8158  1.0872  0.2382
  960TIP3    H224372   5.973   0.166  15.965 -0.5306  0.3423 -0.2763
  961TIP3   OH224373   4.006   2.333   2.561  0.2938  0.2549 -0.1662
  961TIP3    H124374   4.015   2.428   2.571  1.0757  0.3908 -1.9444
  961TIP3    H224375   3.920   2.313   2.598  0.7760  1.4152  1.6423
  962TIP3   OH224376   4.939   0.026   0.424  0.4887  0.5887 -0.1602
  962TIP3    H124377   4.958   0.011   0.331 -0.4503  2.0791 -0.6098
  962TIP3    H224378   4.972   0.115   0.440 -0.6468  0.8794  0.5726
  963TIP3   OH224379   0.805   3.485   1.381  0.5376 -0.2335  0.2093
  963TIP3    H124380   0.792   3.394   1.355  4.0823 -1.1271  1.2524
  963TIP3    H224381   0.858   3.523   1.311 -0.5004  0.8846  0.0262
  964TIP3   OH224382   0.404   2.927  12.363 -0.1629  0.5377  0.0097
  964TIP3    H124383   0.481   2.872  12.375  0.1079  0.9114  0.0025
  964TIP3    H224384   0.405   2.987  12.437 -0.6273  0.3394  0.1820
  965TIP3   OH224385   2.129   0.694   2.373  0.2084  0.0419  0.2236
  965TIP3    H124386   2.102   0.654   2.456 -1.1518  0.1726 -0.1568
  965TIP3    H224387   2.108   0.628   2.307 -1.2342  1.0232 -0.3088
  966TIP3   OH224388   2.948   4.903   4.856 -0.1701  0.6588  0.8263
  966TIP3    H124389   2.911   4.846   4.924  2.2332 -0.6771  1.0529
  966TIP3    H224390   2.950   4.849   4.777 -0.3842  1.3172  0.3644
  967TIP3   OH224391   4.563   0.461  10.728  0.3565 -0.0631  0.4941
  967TIP3    H124392   4.632   0.459  10.662 -1.1450  2.7091 -1.2865
  967TIP3    H224393   4.594   0.524  10.793  0.2618 -0.0632  0.5393
  968TIP3   OH224394   1.370   6.253   0.655  0.4739 -0.5388  0.3531
  968TIP3    H124395   1.456   6.237   0.693  1.0304 -0.0374 -0.6573
  968TIP3    H224396   1.385   6.247   0.560 -0.2357  1.2270  0.1129
  969TIP3   OH224397   1.730   6.106  15.376 -0.0880  0.2316  0.2677
  969TIP3    H124398   1.723   6.027  15.431 -0.8951 -0.4854 -0.8329
  969TIP3    H224399   1.822   6.131  15.382 -0.1850  0.2253  2.0158
  970TIP3   OH224400   2.871   2.548  16.490  0.0428 -0.2565  0.4590
  970TIP3    H124401   2.966   2.551  16.475  0.3600 -1.9890  1.8664
  970TIP3    H224402   2.861   2.564  16.584 -1.1621  1.0871  0.1115
  971TIP3   OH224403   0.956   1.191   4.431  0.2114 -0.3898  0.7399
  971TIP3    H124404   1.025   1.158   4.489  1.0418  0.2632  0.1398
  971TIP3    H224405   0.943   1.282   4.459  0.7045 -0.0336 -0.1693
  972TIP3   OH224406   2.668   2.419  11.149 -0.0888 -0.7685  0.2465
  972TIP3    H124407   2.650   2.351  11.085  0.2246 -0.0928 -0.5679
  972TIP3    H224408   2.663   2.501  11.100  0.8661 -0.2867  0.9188
  973TIP3   OH224409   6.654   2.784   5.245  0.0309 -1.1240  0.1456
  973TIP3    H124410   6.718   2.852   5.223  0.7616 -1.5617  0.9084
  973TIP3    H224411   6.612   2.763   5.162 -2.6639  2.7110  0.3618
  974TIP3   OH224412   1.330   1.294  16.244  0.6321  0.1635 -0.5864
  974TIP3    H124413   1.245   1.266  16.211  1.1106 -2.4086  0.2764
  974TIP3    H224414   1.339   1.251  16.329  3.1916 -0.4245 -1.0981
  975TIP3   OH224415   3.328   1.082  14.634  0.0424 -0.4420  0.3047
  975TIP3    H124416   3.251   1.059  14.686  0.4437  2.3827  2.3227
  975TIP3    H224417   3.402   1.052  14.687  0.4233  1.3109  0.7938
  976TIP3   OH224418   1.506   2.591  14.070  0.1686 -0.1562 -0.4254
  976TIP3    H124419   1.451   2.658  14.110  0.2871 -0.2779 -0.0610
  976TIP3    H224420   1.483   2.594  13.977  0.1304  0.3477 -0.4003
  977TIP3   OH224421   4.071   0.551   0.724 -0.3142  0.7722 -0.6611
  977TIP3    H124422   4.016   0.529   0.648 -0.2588  0.4934 -0.6229
  977TIP3    H224423   4.089   0.466   0.765 -0.4681  0.9375 -0.2518
  978TIP3   OH224424   0.515   3.799   1.340 -0.7072 -0.3592  0.2265
  978TIP3    H124425   0.472   3.714   1.343 -0.7076 -0.3460  0.6447
  978TIP3    H224426   0.458   3.856   1.391 -0.8078 -0.0607 -0.2137
  979TIP3   OH224427   5.033   1.197   2.123  0.0267  0.0469  0.0397
  979TIP3    H124428   5.035   1.183   2.028 -0.5925  1.4897 -0.1933
  979TIP3    H224429   4.949   1.159   2.150 -0.9221  1.7797 -0.3652
  980TIP3   OH224430   5.995   1.844   5.897 -0.3454 -0.1425 -0.1019
  980TIP3    H124431   5.949   1.914   5.943  1.0005  1.6417 -1.4285
  980TIP3    H224432   6.069   1.822   5.953  0.1503  0.6314 -0.4502
  981TIP3   OH224433   5.699   5.367  13.115 -0.3439 -0.2024 -0.0530
  981TIP3    H124434   5.640   5.349  13.042  0.4145  0.4318 -0.8388
  981TIP3    H224435   5.670   5.451  13.150 -1.3744 -1.0032  1.0712
  982TIP3   OH224436   3.515   3.723   0.051  0.1057 -0.1183 -0.6407
  982TIP3    H124437   3.518   3.714   0.147 -1.9527 -0.7202 -0.6151
  982TIP3    H224438   3.598   3.685   0.022  0.9460  0.4494  0.9202
  983TIP3   OH224439   6.692   0.150  12.420 -0.6248  0.2224 -0.6214
  983TIP3    H124440   6.618   0.176  12.366  0.1466  1.1920 -1.2222
  983TIP3    H224441   6.739   0.231  12.439  0.9587 -0.5170 -1.2584
  984TIP3   OH224442   1.253   3.659   3.875 -0.2697 -0.0217  0.6430
  984TIP3    H124443   1.180   3.668   3.815  0.9597 -0.7785 -1.0062
  984TIP3    H224444   1.225   3.594   3.939 -1.5502  0.7299  0.8634
  985TIP3   OH224445   5.960   5.283  13.040 -0.8308 -0.1676 -0.0507
  985TIP3    H124446   6.003   5.356  12.996 -0.2835  1.4470  3.0246
  985TIP3    H224447   5.873   5.316  13.062 -1.4131 -1.2538 -0.6836
  986TIP3   OH224448   2.210   5.973   0.914  0.7633  0.0630 -0.3984
  986TIP3    H124449   2.258   6.031   0.855  1.4457 -1.6908 -1.6460
  986TIP3    H224450   2.118   5.998   0.902  0.6383 -1.7002 -3.9985
  987TIP3   OH224451   6.079   4.788  15.035 -0.1302 -0.0500  0.2939
  987TIP3    H124452   6.165   4.829  15.045 -0.6841  1.3721 -0.6551
  987TIP3    H224453   6.065   4.741  15.117  3.5397 -4.1224 -1.2419
  988TIP3   OH224454   0.073   4.235   5.263 -0.2253  0.3154 -0.8264
  988TIP3    H124455   0.037   4.269   5.345 -0.2866  0.3199 -0.8549
  988TIP3    H224456   0.086   4.313   5.209 -3.9535 -0.0223 -2.3386
  989TIP3   OH224457   0.254   5.583   4.921  0.2323  0.1974  0.5737
  989TIP3    H124458   0.239   5.660   4.867 -0.2768 -0.6889 -0.5496
  989TIP3    H224459   0.297   5.521   4.863  0.9295 -0.2616  1.5643
  990TIP3   OH224460   4.258   5.190   2.508 -0.0354  0.1378 -0.6964
  990TIP3    H124461   4.197   5.139   2.454  1.2954 -0.7659 -1.3687
  990TIP3    H224462   4.252   5.279   2.472  0.2135 -0.2729 -1.7901
  991TIP3   OH224463   4.202   2.678  14.008 -0.3181  0.2827 -0.2157
  991TIP3    H124464   4.116   2.703  14.042  0.5921  2.2491  0.7186
  991TIP3    H224465   4.259   2.679  14.085  0.5036 -1.2622 -0.7890
  992TIP3   OH224466   3.449   2.879  14.597 -0.1697  0.0391 -0.8716
  992TIP3    H124467   3.361   2.858  14.567 -0.7057  0.1708  0.5959
  992TIP3    H224468   3.437   2.947  14.662  0.8758 -1.0619  0.5069
  993TIP3   OH224469   2.885   5.430  11.575  0.3270  0.5775  0.1191
  993TIP3    H124470   2.923   5.401  11.491  1.3864 -0.1171  0.8185
  993TIP3    H224471   2.944   5.393  11.641 -0.2169  1.5509  1.1532
  994TIP3   OH224472   6.817   6.704   5.030  0.3479 -0.1024 -0.2251
  994TIP3    H124473   6.835   6.748   4.947  1.4540  1.9209  1.0529
  994TIP3    H224474   6.896   6.654   5.049  0.6319  0.5358  0.2849
  995TIP3   OH224475   6.310   4.369   1.176  0.0803  0.0231  0.1838
  995TIP3    H124476   6.283   4.461   1.173 -0.4264 -0.0957  1.0154
  995TIP3    H224477   6.349   4.359   1.262  0.2544 -0.5190  0.0421
  996TIP3   OH224478   6.117   4.127  13.751  0.2943  0.3055  0.4723
  996TIP3    H124479   6.103   4.222  13.741 -0.3614  0.0651 -1.0452
  996TIP3    H224480   6.038   4.087  13.717  0.2468 -0.7887  1.8467
  997TIP3   OH224481   0.226   4.728  12.690 -0.3143  0.5028 -0.3420
  997TIP3    H124482   0.153   4.670  12.710 -0.6593  0.7484 -0.8805
  997TIP3    H224483   0.190   4.816  12.699 -0.6009  0.6274 -2.3948
  998TIP3   OH224484   4.932   6.631   3.928  0.3832  0.6972 -0.0541
  998TIP3    H124485   4.898   6.543   3.941  0.1027  0.8570  0.3022
  998TIP3    H224486   4.943   6.666   4.017  0.5074  1.0127 -0.1927
  999TIP3   OH224487   6.597   3.884  13.632 -0.8535 -0.1716  0.4428
  999TIP3    H124488   6.676   3.852  13.676 -1.2018 -0.7669  0.6285
  999TIP3    H224489   6.565   3.954  13.690 -0.3375  0.2291  0.2514
 1000TIP3   OH224490   5.512   1.545   3.918  0.1523 -0.2035  0.1429
 1000TIP3    H124491   5.464   1.485   3.976  0.8802  0.2250  1.2116
 1000TIP3    H224492   5.482   1.632   3.943 -0.6789 -0.1025 -1.2017
 1001TIP3   OH224493   0.562   3.867   4.796  0.2206  0.6366 -0.8410
 1001TIP3    H124494   0.604   3.817   4.866 -0.7353  0.1413 -0.6184
 1001TIP3    H224495   0.625   3.863   4.724  0.7558  0.2718 -0.3680
 1002TIP3   OH224496   5.106   3.543   1.650 -0.1907  0.0120 -0.6372
 1002TIP3    H124497   5.155   3.524   1.730  0.8518 -0.7547 -1.4367
 1002TIP3    H224498   5.139   3.627   1.620  0.8250 -0.6075 -1.2948
 1003TIP3   OH224499   1.553   6.756  11.406 -0.4819  0.4205 -0.2282
 1003TIP3    H124500   1.487   6.687  11.410 -0.9093  0.7268 -1.7529
 1003TIP3    H224501   1.609   6.731  11.333  0.4652  0.7379  0.3711
 1004TIP3   OH224502   5.442   0.392   2.119 -0.3389  0.2974  0.4247
 1004TIP3    H124503   5.382   0.332   2.163 -0.8822  1.4929  1.3384
 1004TIP3    H224504   5.461   0.460   2.185 -0.1785  1.4320 -0.7676
 1005TIP3   OH224505   5.114   3.365   3.341 -0.2134 -0.4175 -0.1316
 1005TIP3    H124506   5.045   3.338   3.402 -0.5494 -0.5447 -0.5624
 1005TIP3    H224507   5.148   3.282   3.308 -0.0687 -0.3467 -0.1559
 1006TIP3   OH224508   5.873   5.648  17.030  0.0402  0.1645 -0.2733
 1006TIP3    H124509   5.961   5.684  17.021  0.7844 -1.5495 -0.0015
 1006TIP3    H224510   5.848   5.622  16.942 -0.4965  1.2961 -0.4697
 1007TIP3   OH224511   2.679   5.981  14.192 -0.3160 -0.1454 -0.2870
 1007TIP3    H124512   2.743   6.046  14.163 -0.7194  0.3042 -0.1656
 1007TIP3    H224513   2.605   6.032  14.222 -1.5746 -0.6852 -2.3330
 1008TIP3   OH224514   4.144   4.219   4.399 -0.0181  0.2386  0.9891
 1008TIP3    H124515   4.196   4.299   4.403  2.4799 -1.1764 -1.4457
 1008TIP3    H224516   4.195   4.160   4.343 -2.6323 -2.4375  1.3077
 1009TIP3   OH224517   1.967   2.825  11.499 -0.1231  0.7803 -0.3456
 1009TIP3    H124518   1.887   2.781  11.528  0.7827 -0.4498  0.3227
 1009TIP3    H224519   1.938   2.912  11.472 -1.4042  1.0074  1.6967
 1010TIP3   OH224520   1.581   4.931   5.796 -0.1409 -0.0746 -0.4406
 1010TIP3    H124521   1.637   4.980   5.857 -1.1557  0.1045  0.3642
 1010TIP3    H224522   1.555   4.997   5.731 -0.6281  0.2135  0.0351
 1011TIP3   OH224523   3.724   4.232   4.460 -0.1195  0.2414  0.2513
 1011TIP3    H124524   3.776   4.264   4.386 -1.9284  1.1565 -0.6561
 1011TIP3    H224525   3.731   4.301   4.526 -1.1815  0.9687 -0.3674
 1012TIP3   OH224526   6.520   5.051   4.884 -0.1389  0.6744 -0.5453
 1012TIP3    H124527   6.607   5.044   4.923  1.6385  0.9476 -4.2910
 1012TIP3    H224528   6.477   4.968   4.904  1.9242 -0.4844 -0.8402
 1013TIP3   OH224529   6.367   2.726  14.300 -0.3377 -0.9545 -0.0844
 1013TIP3    H124530   6.304   2.663  14.336 -0.3550 -0.6402  0.4463
 1013TIP3    H224531   6.405   2.682  14.225  0.1226 -1.8504  0.6655
 1014TIP3   OH224532   6.804   3.366   2.290 -0.3415 -0.4761 -0.4422
 1014TIP3    H124533   6.819   3.445   2.240 -0.6769 -0.9598 -1.3279
 1014TIP3    H224534   6.877   3.308   2.267 -0.2178 -0.5076  0.0260
 1015TIP3   OH224535   4.332   6.666   3.223 -0.7408  0.7387  0.1058
 1015TIP3    H124536   4.380   6.651   3.304  1.9850  1.5849 -1.3166
 1015TIP3    H224537   4.283   6.585   3.209  1.5703 -0.7975  0.7206
 1016TIP3   OH224538   1.795   3.410   0.282  0.5185 -0.4407 -0.6315
 1016TIP3    H124539   1.704   3.435   0.265  0.2964 -0.6691  0.2284
 1016TIP3    H224540   1.834   3.488   0.322  0.6118 -0.4603 -0.6846
 1017TIP3   OH224541   0.511   0.329   5.378 -0.1765 -0.1619 -0.3302
 1017TIP3    H124542   0.464   0.376   5.310 -0.8379 -0.8115 -0.3368
 1017TIP3    H224543   0.561   0.396   5.424  0.7173  0.2049 -1.8052
 1018TIP3   OH224544   2.595   5.210   2.396  0.2028 -0.0024  0.0030
 1018TIP3    H124545   2.614   5.260   2.316  0.5534  0.3115  0.2822
 1018TIP3    H224546   2.513   5.246   2.428 -1.7248 -2.3613 -2.0260
 1019TIP3   OH224547   3.993   4.635  10.553  0.1417 -0.1746  0.4211
 1019TIP3    H124548   3.903   4.602  10.550 -0.2510  0.7793  1.2154
 1019TIP3    H224549   4.007   4.656  10.646  0.1795  2.3479 -0.1069
 1020TIP3   OH224550   4.104   6.077  15.650 -0.0541  0.3495 -0.3473
 1020TIP3    H124551   4.151   6.062  15.568 -1.6102 -0.8829 -1.0508
 1020TIP3    H224552   4.159   6.036  15.717  0.8464  0.6877 -0.8744
 1021TIP3   OH224553   6.473   0.297   6.162  0.0572  0.4668  0.3749
 1021TIP3    H124554   6.420   0.220   6.142  0.6813  0.4419 -1.2149
 1021TIP3    H224555   6.559   0.262   6.186  0.4669  0.6570 -0.7533
 1022TIP3   OH224556   1.447   2.034  16.707 -0.3012 -0.6639  0.4772
 1022TIP3    H124557   1.393   2.108  16.736  0.5510 -0.1477  0.7911
 1022TIP3    H224558   1.524   2.038  16.764  1.3463  0.2674 -1.7199
 1023TIP3   OH224559   4.175   0.928  13.363  0.2306  0.3404 -0.2406
 1023TIP3    H124560   4.158   0.857  13.301  1.1539 -1.1303  1.1526
 1023TIP3    H224561   4.270   0.927  13.376  0.0447  0.6220  1.2018
 1024TIP3   OH224562   1.571   0.645  11.689  0.2120 -0.5054  0.0791
 1024TIP3    H124563   1.572   0.565  11.637 -0.6210 -1.5710  1.6773
 1024TIP3    H224564   1.543   0.713  11.627  3.1962 -0.9786 -1.8708
 1025TIP3   OH224565   3.783   0.057   0.752  0.1227 -0.2933  0.0010
 1025TIP3    H124566   3.833  -0.024   0.757 -0.5121 -0.7596 -1.0845
 1025TIP3    H224567   3.707   0.042   0.808  0.2842 -0.2344  0.2398
 1026TIP3   OH224568   4.427   2.616  11.710  0.0108 -0.4113 -0.5530
 1026TIP3    H124569   4.498   2.634  11.772 -0.9617  3.0639 -0.3114
 1026TIP3    H224570   4.348   2.617  11.764 -0.5367 -0.5868 -1.3527
 1027TIP3   OH224571   5.419   5.249  12.480 -0.1678  0.0451 -0.5860
 1027TIP3    H124572   5.367   5.191  12.535  0.8342  0.4186  0.7565
 1027TIP3    H224573   5.374   5.333  12.484 -1.2478 -0.4326 -2.0057
 1028TIP3   OH224574   3.245   6.228   0.680  0.1687  0.4374  0.0628
 1028TIP3    H124575   3.269   6.175   0.756  1.2421  1.9593  0.8090
 1028TIP3    H224576   3.177   6.287   0.713 -1.3073 -0.7329 -0.8644
 1029TIP3   OH224577   3.746   5.436   0.739 -0.6797  0.7805  0.2688
 1029TIP3    H124578   3.798   5.367   0.696  0.9559  1.6716  0.7746
 1029TIP3    H224579   3.706   5.484   0.666 -0.3711  0.4030 -0.1558
 1030TIP3   OH224580   4.694   2.184   3.908 -0.0121  0.6555 -0.2193
 1030TIP3    H124581   4.629   2.206   3.841 -1.9163  2.0585  1.9760
 1030TIP3    H224582   4.707   2.266   3.955  0.2870 -0.5980  1.9383
 1031TIP3   OH224583   2.465   1.054  12.277 -0.1989 -0.3501 -0.5708
 1031TIP3    H124584   2.519   1.096  12.343  0.2325  1.0855 -1.8177
 1031TIP3    H224585   2.394   1.116  12.260 -1.0656 -1.2946 -0.4881
 1032TIP3   OH224586   6.352   0.145   3.874  0.4669 -0.1195  0.0998
 1032TIP3    H124587   6.268   0.129   3.918 -1.1646  0.7307 -2.6177
 1032TIP3    H224588   6.367   0.067   3.821  0.9761  0.1236 -0.1181
 1033TIP3   OH224589   0.598   0.010   3.115 -0.3752 -0.3528  0.2001
 1033TIP3    H124590   0.576  -0.078   3.085 -1.0288  0.6130 -2.3283
 1033TIP3    H224591   0.515   0.058   3.113  0.2069  0.6781  0.2204
 1034TIP3   OH224592   6.547   5.272   5.280  0.4481 -0.2062  0.7444
 1034TIP3    H124593   6.466   5.244   5.236  0.8604 -0.5820  0.2183
 1034TIP3    H224594   6.611   5.279   5.209  0.8432  0.2269  1.1427
 1035TIP3   OH224595   0.644   5.692   3.013 -0.9599  0.3340  0.3445
 1035TIP3    H124596   0.698   5.768   2.991 -0.8338 -0.3450 -1.8349
 1035TIP3    H224597   0.703   5.632   3.058  0.6002 -1.0564 -3.3603
 1036TIP3   OH224598   3.817   4.626  17.169 -0.4418 -0.0807  0.5070
 1036TIP3    H124599   3.825   4.681  17.091 -2.3480  0.8626  0.9413
 1036TIP3    H224600   3.899   4.640  17.217 -0.1388  0.9535 -0.2981
 1037TIP3   OH224601   5.299   4.200   4.452 -0.4403  0.1721 -0.4045
 1037TIP3    H124602   5.316   4.245   4.535 -1.0471 -1.9284  0.9042
 1037TIP3    H224603   5.364   4.130   4.448  0.5232  1.1437 -2.4315
 1038TIP3   OH224604   3.510   0.983  17.061  0.1065 -0.2745  0.1897
 1038TIP3    H124605   3.567   0.907  17.069  1.5953  0.9024  1.1200
 1038TIP3    H224606   3.424   0.947  17.042  0.9075 -2.1498  0.0121
 1039TIP3   OH224607   3.059   2.965  12.507 -0.1152  0.0793  0.6785
 1039TIP3    H124608   3.076   2.925  12.421  1.1139  0.2113  0.8496
 1039TIP3    H224609   3.018   2.895  12.558 -0.4911 -0.1243  0.0994
 1040TIP3   OH224610   6.384   5.091  16.726 -0.3361 -0.8822  0.3641
 1040TIP3    H124611   6.404   5.177  16.763  0.6854 -0.3643 -1.2955
 1040TIP3    H224612   6.289   5.091  16.713 -0.5796 -0.7457  2.1352
 1041TIP3   OH224613   0.996   4.966  12.845 -0.0632  0.1835  0.0262
 1041TIP3    H124614   1.062   5.033  12.827  0.5980  0.0130  1.7846
 1041TIP3    H224615   0.913   5.015  12.849  0.4796  0.9804  1.8234
 1042TIP3   OH224616   5.945   5.587   2.609 -0.2342  0.4721 -0.1388
 1042TIP3    H124617   5.936   5.642   2.531  0.3971  0.3415 -0.3074
 1042TIP3    H224618   5.906   5.503   2.584  0.3485  0.2921 -0.4642
 1043TIP3   OH224619   5.300   6.123  10.711 -0.2951  0.0523  0.4170
 1043TIP3    H124620   5.379   6.156  10.669  0.7313  0.2720  2.4374
 1043TIP3    H224621   5.265   6.059  10.650 -0.0611  1.9117 -1.7304
 1044TIP3   OH224622   4.013   0.146   3.212 -0.2727 -0.1686 -0.2391
 1044TIP3    H124623   3.997   0.143   3.117  0.5169 -1.8367 -0.3472
 1044TIP3    H224624   3.926   0.152   3.251 -0.7682 -1.7929 -1.0269
 1045TIP3   OH224625   6.570   6.684  14.052  0.2893  0.3210  0.4005
 1045TIP3    H124626   6.499   6.720  13.999  0.8427 -1.8317 -1.8860
 1045TIP3    H224627   6.598   6.757  14.107 -1.2215  2.2423 -1.2966
 1046TIP3   OH224628   4.177   5.000   2.352  0.2947  0.1359  0.0205
 1046TIP3    H124629   4.172   5.076   2.295 -2.1734  0.3142  0.4212
 1046TIP3    H224630   4.143   4.928   2.299  0.5731 -0.2449  0.3580
 1047TIP3   OH224631   1.887   3.419  12.998  0.2340 -0.1507 -0.1244
 1047TIP3    H124632   1.972   3.455  12.977 -0.4366  2.0257  0.7731
 1047TIP3    H224633   1.878   3.343  12.941  2.1872  0.4074 -1.1960
 1048TIP3   OH224634   3.172   2.829   2.733  0.1080  0.3596 -0.2985
 1048TIP3    H124635   3.189   2.876   2.651  2.0469 -0.3736 -0.3364
 1048TIP3    H224636   3.254   2.834   2.782 -0.6401 -0.2822  1.0708
 1049TIP3   OH224637   5.219   4.841   2.106 -0.4986  0.7358 -0.5276
 1049TIP3    H124638   5.200   4.775   2.039  0.2818 -1.0611  0.9844
 1049TIP3    H224639   5.231   4.922   2.057 -0.1610 -0.4972 -2.5380
 1050TIP3   OH224640   5.053   2.678   5.265  0.2795  0.1787 -0.0137
 1050TIP3    H124641   5.019   2.644   5.348  0.2204 -1.4121 -0.6693
 1050TIP3    H224642   5.140   2.713   5.287 -0.4262  1.3287  1.0338
 1051TIP3   OH224643   1.802   1.776   2.477  0.1733 -0.0684 -0.1857
 1051TIP3    H124644   1.709   1.765   2.461  0.4060 -2.7958  0.1172
 1051TIP3    H224645   1.840   1.788   2.390 -0.2553 -0.6750 -0.4551
 1052TIP3   OH224646   6.564   3.983   0.416 -0.1255 -0.1702 -0.2663
 1052TIP3    H124647   6.624   3.990   0.491 -0.8219  1.4951  0.1573
 1052TIP3    H224648   6.476   3.989   0.455 -0.5187 -0.2759 -1.1232
 1053TIP3   OH224649   2.818   6.253  14.138  0.0215  0.0918  0.2555
 1053TIP3    H124650   2.794   6.328  14.192  0.4069  0.1285  0.3830
 1053TIP3    H224651   2.903   6.226  14.173 -0.7110 -1.2232  1.0781
 1054TIP3   OH224652   2.287   6.602  14.551  0.1110  0.5321  0.3843
 1054TIP3    H124653   2.212   6.659  14.534  0.0664  0.3525 -0.0435
 1054TIP3    H224654   2.252   6.532  14.606 -0.0742  0.3615  0.0503
 1055TIP3   OH224655   4.497   3.154   2.459  0.7105 -0.3976  0.6077
 1055TIP3    H124656   4.458   3.240   2.479 -0.9016 -1.3831  1.7902
 1055TIP3    H224657   4.554   3.171   2.384 -1.0066  1.3687 -0.3512
 1056TIP3   OH224658   4.700   1.918  15.241 -0.4616  0.2334  0.2783
 1056TIP3    H124659   4.742   1.988  15.292  0.8835 -0.0415 -0.4084
 1056TIP3    H224660   4.680   1.851  15.305 -0.4060  0.6336  0.7228
 1057TIP3   OH224661   3.634   6.532  11.937  0.0755  0.0483 -0.3122
 1057TIP3    H124662   3.647   6.534  12.032  1.1118 -0.6539 -0.4305
 1057TIP3    H224663   3.540   6.548  11.925  0.1657  1.4179  0.7602
 1058TIP3   OH224664   2.022   2.550   4.172 -0.0534  0.3982 -0.3449
 1058TIP3    H124665   2.070   2.521   4.249  0.7181  1.9725 -0.2158
 1058TIP3    H224666   1.950   2.488   4.164 -0.0605  0.1476  1.5516
 1059TIP3   OH224667   5.155   6.665  16.148  0.1062 -0.2998 -0.3511
 1059TIP3    H124668   5.109   6.608  16.210  1.3234 -1.9966 -0.9542
 1059TIP3    H224669   5.211   6.719  16.203  0.7108 -1.3584  0.1026
 1060TIP3   OH224670   5.189   1.949  12.212 -0.4233 -0.2723  0.0241
 1060TIP3    H124671   5.215   2.030  12.169 -2.8321 -0.2137 -1.3882
 1060TIP3    H224672   5.235   1.880  12.164 -0.2946  0.0758 -0.3505
 1061TIP3   OH224673   2.865   3.664   2.115  0.0214 -0.2693 -0.0071
 1061TIP3    H124674   2.920   3.740   2.131  0.6597 -0.5124 -1.0032
 1061TIP3    H224675   2.916   3.590   2.149 -0.9637 -0.1739  1.7390
 1062TIP3   OH224676   3.974   4.502   3.634 -0.0232  0.0038  0.4702
 1062TIP3    H124677   4.044   4.444   3.666 -1.3323 -0.8736  1.7984
 1062TIP3    H224678   3.960   4.473   3.543  1.0556 -0.0745  0.3169
 1063TIP3   OH224679   2.486   3.604   4.767 -0.1826 -0.0149 -0.0412
 1063TIP3    H124680   2.395   3.615   4.740  0.2927 -1.2597 -2.2488
 1063TIP3    H224681   2.520   3.694   4.771 -0.8252  0.3147 -1.6462
 1064TIP3   OH224682   0.421   4.317   2.005 -0.0922 -0.1760  0.1719
 1064TIP3    H124683   0.488   4.281   1.947  1.1336  0.7723  0.9811
 1064TIP3    H224684   0.429   4.412   1.995 -1.3242 -0.0402  0.2935
 1065TIP3   OH224685   2.001   4.573  13.085  0.4366 -0.1116  0.1781
 1065TIP3    H124686   2.085   4.536  13.057  0.8971  1.1914 -0.2027
 1065TIP3    H224687   1.941   4.553  13.013  1.3129  2.1128 -1.2069
 1066TIP3   OH224688   2.298   6.399   0.630  0.6927 -0.1891 -0.3787
 1066TIP3    H124689   2.310   6.319   0.580 -1.3467 -0.6421 -0.1905
 1066TIP3    H224690   2.381   6.413   0.675  0.4708 -3.2929  1.1279
 1067TIP3   OH224691   3.171   2.601  13.486  0.1590 -0.2559 -0.5564
 1067TIP3    H124692   3.153   2.690  13.518  0.4864 -0.3027 -0.2456
 1067TIP3    H224693   3.117   2.593  13.407  0.0197  0.1697 -0.5059
 1068TIP3   OH224694   4.012   0.618  16.099  1.1350 -0.3357 -0.3807
 1068TIP3    H124695   3.951   0.549  16.126  1.2600 -0.4244 -0.3265
 1068TIP3    H224696   3.980   0.646  16.013  0.8259 -0.1591 -0.2129
 1069TIP3   OH224697   1.904   0.764  13.417 -0.0197  0.0755 -0.1591
 1069TIP3    H124698   1.910   0.835  13.353  0.4787  1.5764  1.5218
 1069TIP3    H224699   1.821   0.779  13.462  0.1945 -0.2790  0.3570
 1070TIP3   OH224700   2.643   5.225  11.417  0.3522 -0.0949 -0.3506
 1070TIP3    H124701   2.577   5.255  11.354  0.6136  0.5696 -0.3139
 1070TIP3    H224702   2.724   5.224  11.367  0.6762  1.0749  0.1556
 1071TIP3   OH224703   5.656   4.843  16.985 -0.2799 -0.4239  0.1289
 1071TIP3    H124704   5.672   4.935  17.003  2.2269 -0.7417 -0.2480
 1071TIP3    H224705   5.637   4.805  17.071 -1.1905  0.3826  0.2999
 1072TIP3   OH224706   2.109   4.675   4.393  0.2170  0.5583  0.3455
 1072TIP3    H124707   2.024   4.638   4.372  0.3882 -0.8091  1.9713
 1072TIP3    H224708   2.160   4.602   4.428  1.9337  1.4374 -0.2404
 1073TIP3   OH224709   1.488   2.084   2.338 -0.6589 -0.0076  0.1536
 1073TIP3    H124710   1.411   2.079   2.395 -0.6997 -0.3608  0.0697
 1073TIP3    H224711   1.452   2.078   2.249 -0.4938 -0.7037  0.1283
 1074TIP3   OH224712   2.051   5.629  16.025 -0.0478 -0.3166 -0.4574
 1074TIP3    H124713   2.025   5.539  16.004 -1.1099 -0.0315 -0.4193
 1074TIP3    H224714   2.143   5.622  16.050 -0.3003 -1.5010  0.2118
 1075TIP3   OH224715   4.470   0.620   2.321 -0.3773 -0.0719  0.1630
 1075TIP3    H124716   4.491   0.541   2.371 -0.6285  0.0628  0.4844
 1075TIP3    H224717   4.377   0.609   2.298 -1.1537  1.3295  2.4362
 1076TIP3   OH224718   5.098   3.560   0.689 -0.4761 -0.0266  0.4639
 1076TIP3    H124719   5.103   3.506   0.610 -1.4058 -0.9996  1.0469
 1076TIP3    H224720   5.004   3.565   0.708 -0.3818  1.6132  0.5598
 1077TIP3   OH224721   1.789   0.168   2.153  0.5271  0.0034  0.0566
 1077TIP3    H124722   1.702   0.204   2.171  1.3511  1.0481  1.9881
 1077TIP3    H224723   1.826   0.147   2.239  2.4017  0.0592 -0.7069
 1078TIP3   OH224724   3.610   4.390  16.013 -0.0842 -0.0444  0.4390
 1078TIP3    H124725   3.536   4.435  15.971 -1.1374 -0.9860  1.2671
 1078TIP3    H224726   3.687   4.438  15.982 -0.8592 -0.3291 -2.0948
 1079TIP3   OH224727   2.384   3.351  14.200 -0.7774  0.0296  0.1580
 1079TIP3    H124728   2.372   3.436  14.243 -0.7601  0.1757 -0.1240
 1079TIP3    H224729   2.443   3.370  14.127  0.3109 -0.4838  0.8944
 1080TIP3   OH224730   1.695   2.421   0.046  0.6550  0.5540 -0.5433
 1080TIP3    H124731   1.741   2.358  -0.010  0.4273  0.6535 -0.8424
 1080TIP3    H224732   1.654   2.367   0.113  1.0916  0.4513 -0.3562
 1081TIP3   OH224733   4.739   4.518   6.388 -0.0429  0.1180  0.0832
 1081TIP3    H124734   4.665   4.499   6.330  1.3398  0.1356 -1.7119
 1081TIP3    H224735   4.766   4.432   6.421  2.0685 -0.4439 -2.9322
 1082TIP3   OH224736   2.592   3.755   0.955  0.3029  0.3291  0.0746
 1082TIP3    H124737   2.585   3.660   0.959  0.1348  0.2435 -1.7739
 1082TIP3    H224738   2.570   3.777   0.864  0.3407  2.1283  0.4776
 1083TIP3   OH224739   1.383   5.334   2.020  0.3890 -0.0153 -0.0353
 1083TIP3    H124740   1.306   5.289   2.054 -0.0592 -0.4417 -1.5713
 1083TIP3    H224741   1.434   5.357   2.098 -1.2420  0.1996  0.9842
 1084TIP3   OH224742   1.987   3.784  16.373  0.2837 -0.1789 -0.0746
 1084TIP3    H124743   1.986   3.878  16.354  1.4970  0.0956  1.2132
 1084TIP3    H224744   1.894   3.761  16.384  0.1405  1.5502  2.8783
 1085TIP3   OH224745   2.981   4.510  14.757 -0.4087 -0.4198  0.5506
 1085TIP3    H124746   3.063   4.540  14.798 -0.7527  0.7674  0.3716
 1085TIP3    H224747   3.009   4.469  14.675  0.0790 -0.7755  0.8878
 1086TIP3   OH224748   0.042   0.098   3.508 -0.1911  0.6946 -0.2175
 1086TIP3    H124749  -0.009   0.167   3.551 -0.2197 -0.6226  1.9600
 1086TIP3    H224750  -0.009   0.018   3.523  2.1748 -0.5595  1.5068
 1087TIP3   OH224751   5.759   3.121  13.492  0.5218  0.4561 -0.3771
 1087TIP3    H124752   5.775   3.081  13.577  0.0686 -1.4980 -1.1927
 1087TIP3    H224753   5.667   3.149  13.495  0.9246  1.7740  0.3037
 1088TIP3   OH224754   0.799   4.137  12.816 -0.2557  0.1245 -0.1145
 1088TIP3    H124755   0.789   4.204  12.748 -0.2622 -0.3456 -0.5828
 1088TIP3    H224756   0.800   4.186  12.898 -2.4036  0.5346 -0.2962
 1089TIP3   OH224757   1.906   5.634   4.664 -0.1305  0.5668  0.3587
 1089TIP3    H124758   1.842   5.690   4.621 -0.3724 -0.6949 -0.9663
 1089TIP3    H224759   1.962   5.602   4.593 -0.3691 -1.3105  0.9739
 1090TIP3   OH224760   6.381   3.944  12.169 -0.4631  0.4319 -0.2404
 1090TIP3    H124761   6.412   3.879  12.232 -0.4234  0.1703 -0.5307
 1090TIP3    H224762   6.443   3.940  12.097 -2.0994 -1.3082 -1.6015
 1091TIP3   OH224763   4.816   5.121   0.543  0.0113 -0.2023  0.4157
 1091TIP3    H124764   4.834   5.039   0.590 -0.1481  0.2268  1.2358
 1091TIP3    H224765   4.750   5.165   0.597 -0.2581  0.2437 -0.2791
 1092TIP3   OH224766   5.277   1.919   0.391 -0.4136  0.1661 -0.2574
 1092TIP3    H124767   5.286   1.931   0.486 -1.4430  1.0392 -0.2623
 1092TIP3    H224768   5.185   1.939   0.373 -0.9945 -2.8841 -1.0186
 1093TIP3   OH224769   3.533   4.564   2.914 -0.0980  0.3707  0.6093
 1093TIP3    H124770   3.614   4.585   2.961 -0.0850 -0.9351  1.2126
 1093TIP3    H224771   3.540   4.470   2.897  0.2969  0.9446 -2.8271
 1094TIP3   OH224772   3.099   5.235  12.268 -0.1675  0.0788  0.2206
 1094TIP3    H124773   3.052   5.202  12.345 -0.9045  0.1802 -0.1904
 1094TIP3    H224774   3.037   5.228  12.196  0.9261 -1.1541 -0.6235
 1095TIP3   OH224775   3.878   2.258   1.245  0.5881  0.7049 -0.6977
 1095TIP3    H124776   3.865   2.315   1.170  1.1539 -0.9288 -2.0681
 1095TIP3    H224777   3.825   2.180   1.226 -0.0040  0.6530  1.0280
 1096TIP3   OH224778   0.792   4.980   1.122  0.3114 -0.1426 -0.0489
 1096TIP3    H124779   0.727   4.966   1.191 -0.1467 -2.9885 -1.0134
 1096TIP3    H224780   0.851   5.046   1.158 -0.4691 -0.8780  2.6705
 1097TIP3   OH224781   3.914   2.231  14.929 -0.1255 -0.6867 -0.6419
 1097TIP3    H124782   3.973   2.259  14.860  0.1110  1.9617  0.5750
 1097TIP3    H224783   3.971   2.214  15.004 -0.6858 -0.3139 -0.1241
 1098TIP3   OH224784   2.777   3.187  12.053  0.0008  0.4663  0.5276
 1098TIP3    H124785   2.824   3.243  12.115  1.7553  0.7719 -1.0478
 1098TIP3    H224786   2.804   3.098  12.077 -0.6473  0.4674  1.2754
 1099TIP3   OH224787   4.567   6.468   2.729  0.3651  0.6639 -0.1525
 1099TIP3    H124788   4.478   6.492   2.705 -0.2201  0.8959  2.1128
 1099TIP3    H224789   4.622   6.537   2.692 -0.4466  0.7592 -1.1685
 1100TIP3   OH224790   1.320   4.215  14.716 -0.2404  0.4654 -0.3164
 1100TIP3    H124791   1.413   4.194  14.703 -0.4335  1.2319 -3.3779
 1100TIP3    H224792   1.282   4.134  14.752  1.3672 -0.2432 -0.1503
 1101TIP3   OH224793   3.162   5.148   6.337 -0.7689  0.0923 -0.3778
 1101TIP3    H124794   3.110   5.132   6.416 -1.3420 -1.0368 -0.9746
 1101TIP3    H224795   3.169   5.062   6.295  0.7567  0.4183 -0.8127
 1102TIP3   OH224796   0.002   6.191   5.476  0.1970  0.3612 -0.7505
 1102TIP3    H124797  -0.038   6.213   5.391  1.8394 -0.0893 -1.6541
 1102TIP3    H224798   0.078   6.248   5.481  1.0882 -0.8605 -0.3697
 1103TIP3   OH224799   2.809   5.657   6.048  0.2687  0.0798  0.2283
 1103TIP3    H124800   2.715   5.668   6.061  0.3658  1.1441  0.1139
 1103TIP3    H224801   2.839   5.609   6.126 -0.4846 -0.9684 -0.1185
 1104TIP3   OH224802   4.400   3.149   0.291  1.0138 -0.2507 -0.2954
 1104TIP3    H124803   4.386   3.205   0.368 -0.0284  0.5635 -1.0607
 1104TIP3    H224804   4.339   3.183   0.225  1.1183 -1.6223 -1.1264
 1105TIP3   OH224805   0.460   2.420  15.383  0.1648 -0.0394 -0.7679
 1105TIP3    H124806   0.531   2.482  15.370  0.3283  0.3445  1.7599
 1105TIP3    H224807   0.412   2.454  15.459  0.5273 -3.2397  0.9456
 1106TIP3   OH224808   1.820   3.395  13.879 -0.0321  0.1696  0.6646
 1106TIP3    H124809   1.767   3.474  13.888  0.0991  0.5421 -1.4799
 1106TIP3    H224810   1.909   3.427  13.867  0.1487 -0.3291  0.6745
 1107TIP3   OH224811   4.337   1.329  12.512  0.4730  0.0470  0.1594
 1107TIP3    H124812   4.431   1.322  12.523  0.7664  0.6397 -1.7800
 1107TIP3    H224813   4.316   1.270  12.439  0.0208  3.1179 -2.3358
 1108TIP3   OH224814   3.443   5.990  15.923 -0.1928 -0.4342  0.0440
 1108TIP3    H124815   3.442   5.936  16.002 -0.9869 -0.5070 -0.0026
 1108TIP3    H224816   3.369   6.051  15.935  0.8040  0.7612  0.1798
 1109TIP3   OH224817   1.555   2.798   4.409 -0.3668 -0.0249 -0.1768
 1109TIP3    H124818   1.538   2.812   4.502 -0.1679 -0.0315 -0.1402
 1109TIP3    H224819   1.611   2.720   4.407 -0.3838 -0.0333 -0.3040
 1110TIP3   OH224820   1.131   1.617   5.506 -0.2279 -0.1073  0.1011
 1110TIP3    H124821   1.168   1.692   5.554 -1.2040  0.2691  0.2917
 1110TIP3    H224822   1.172   1.540   5.545  2.7082  0.4429 -1.8036
 1111TIP3   OH224823   2.829   3.038   4.904 -0.3838 -0.1396  0.1384
 1111TIP3    H124824   2.863   3.012   4.990  1.4180  1.4231 -0.0907
 1111TIP3    H224825   2.792   3.125   4.919 -0.1018  0.1174 -0.6674
 1112TIP3   OH224826   3.766   5.359  16.120 -0.5683 -0.0621  0.0783
 1112TIP3    H124827   3.763   5.315  16.035  1.9227 -0.8393  0.3657
 1112TIP3    H224828   3.792   5.449  16.100 -1.5454  0.1874 -0.1102
 1113TIP3   OH224829   3.190   2.452   0.463 -0.4895 -0.2098 -0.3397
 1113TIP3    H124830   3.205   2.531   0.515 -1.1203 -0.4150  0.1645
 1113TIP3    H224831   3.262   2.393   0.486 -1.1566 -0.5760  0.8448
 1114TIP3   OH224832   3.998   1.147  16.252 -0.0324  0.2871  0.4989
 1114TIP3    H124833   4.037   1.223  16.207  0.4481 -0.3976 -0.2545
 1114TIP3    H224834   3.937   1.185  16.314 -0.0856  1.2907 -0.1539
 1115TIP3   OH224835   5.234   2.704   0.751  0.4158 -0.0329 -0.0381
 1115TIP3    H124836   5.170   2.720   0.820  0.3477 -2.3358  0.4851
 1115TIP3    H224837   5.284   2.785   0.745 -0.8904  0.9052  1.3057
 1116TIP3   OH224838   5.116   4.976  11.444  0.0362 -0.5422 -0.1178
 1116TIP3    H124839   5.031   4.980  11.487  0.4974 -1.3497  0.9050
 1116TIP3    H224840   5.174   5.029  11.499  0.0877  0.4342 -1.0935
 1117TIP3   OH224841   5.588   0.958  13.860  0.2580 -0.3475 -0.8577
 1117TIP3    H124842   5.649   0.991  13.795 -0.5766  0.6129 -1.1740
 1117TIP3    H224843   5.571   0.867  13.834  2.1661 -0.8845 -0.2789
 1118TIP3   OH224844   1.731   2.951  10.913  0.0259 -0.2525 -0.6501
 1118TIP3    H124845   1.773   2.950  10.998  0.7598  1.2764 -0.9697
 1118TIP3    H224846   1.776   2.884  10.862  2.5217  1.7530 -1.1774
 1119TIP3   OH224847   3.558   3.058   3.770  0.0268 -0.3363 -0.1533
 1119TIP3    H124848   3.610   3.070   3.850  0.4192 -1.8173 -0.1696
 1119TIP3    H224849   3.564   3.142   3.725  1.3069 -0.0559  0.5103
 1120TIP3   OH224850   0.817   1.934  15.528 -0.2214  0.0490 -1.0453
 1120TIP3    H124851   0.740   1.930  15.584 -0.3121  5.0120 -0.5607
 1120TIP3    H224852   0.891   1.932  15.589 -0.1086 -0.4230 -1.1962
 1121TIP3   OH224853   1.323   3.268   2.053  0.3002  0.4535 -0.2167
 1121TIP3    H124854   1.344   3.346   2.002  0.6633  1.3281  1.2277
 1121TIP3    H224855   1.326   3.298   2.144 -0.9435 -0.9231  0.2904
 1122TIP3   OH224856   0.196   2.447   1.890  0.0965  0.1614 -0.5217
 1122TIP3    H124857   0.178   2.538   1.915  0.7244 -0.0978  0.9520
 1122TIP3    H224858   0.140   2.395   1.947  1.0181 -0.4320 -0.1460
 1123TIP3   OH224859   2.098   1.181   2.932  0.2911 -0.0406  0.2364
 1123TIP3    H124860   2.091   1.232   2.851 -0.6197  1.5027  1.2665
 1123TIP3    H224861   2.014   1.193   2.975 -0.3191 -3.2180  0.0856
 1124TIP3   OH224862   0.843   0.897  15.234  0.3566  0.0938 -0.1060
 1124TIP3    H124863   0.792   0.977  15.226  0.9269  0.4937  0.2089
 1124TIP3    H224864   0.934   0.926  15.230  0.5630 -0.8829 -3.1544
 1125TIP3   OH224865   4.450   4.818  11.184 -0.0143  0.0472  0.2870
 1125TIP3    H124866   4.438   4.850  11.274  0.5805  0.3966  0.2462
 1125TIP3    H224867   4.526   4.761  11.190  0.3303  0.4632 -0.0879
 1126TIP3   OH224868   1.134   6.692   0.280  0.3233  0.2584 -0.5645
 1126TIP3    H124869   1.201   6.743   0.235  1.4595 -0.2299  0.5592
 1126TIP3    H224870   1.154   6.601   0.259  1.0868 -0.0031  1.1928
 1127TIP3   OH224871   0.131   1.805   3.130 -0.5899  0.0298 -0.0082
 1127TIP3    H124872   0.182   1.736   3.173  1.3695  0.1088 -2.1442
 1127TIP3    H224873   0.052   1.760   3.100  1.7321 -1.9183 -3.5055
 1128TIP3   OH224874   0.562   0.744   3.454 -0.2689  0.0015 -0.2675
 1128TIP3    H124875   0.529   0.654   3.454  0.3206 -0.2258 -1.2852
 1128TIP3    H224876   0.550   0.774   3.544  0.6737 -1.5231  0.3996
 1129TIP3   OH224877   1.906   5.351  10.896  0.4956 -0.2945  0.3539
 1129TIP3    H124878   1.915   5.444  10.918  0.3731 -0.3982  0.8490
 1129TIP3    H224879   1.812   5.339  10.879  0.6316 -0.1575 -0.4881
 1130TIP3   OH224880   5.352   3.652   2.773  0.4273 -0.9843  0.3871
 1130TIP3    H124881   5.319   3.590   2.837 -1.0638 -1.9209 -1.2357
 1130TIP3    H224882   5.428   3.609   2.735  0.8461 -0.7650  0.9777
 1131TIP3   OH224883   3.811   3.722   1.504 -0.2425 -0.0982  0.6215
 1131TIP3    H124884   3.767   3.796   1.547  0.8855  2.2031 -1.9714
 1131TIP3    H224885   3.901   3.753   1.491  0.3724 -2.1450 -0.0725
 1132TIP3   OH224886   0.486   3.699  13.514 -0.4953  0.3741  0.0452
 1132TIP3    H124887   0.397   3.670  13.532  0.4294 -2.5155  0.1576
 1132TIP3    H224888   0.531   3.692  13.598  0.3900 -0.2040 -0.4778
 1133TIP3   OH224889   4.460   2.078  13.296  0.0868 -0.4615  0.6011
 1133TIP3    H124890   4.484   2.058  13.387 -0.6025 -1.8646  0.4949
 1133TIP3    H224891   4.476   1.996  13.249  0.4374  0.2536 -0.5547
 1134TIP3   OH224892   1.711   6.611   2.956  0.2673 -0.8088 -0.3155
 1134TIP3    H124893   1.652   6.550   3.000 -1.5908  1.9521  1.1523
 1134TIP3    H224894   1.798   6.586   2.987 -0.5633 -1.9582  1.1637
 1135TIP3   OH224895   3.299   0.322   4.009  0.1822 -0.0382  0.3547
 1135TIP3    H124896   3.298   0.227   4.022  1.0824 -0.4033 -2.1459
 1135TIP3    H224897   3.344   0.356   4.087  0.6770 -1.7265  0.8320
 1136TIP3   OH224898   3.001   0.989   2.992 -0.0123  0.1309  0.1585
 1136TIP3    H124899   3.000   0.950   2.905 -0.7765 -1.4606  0.8543
 1136TIP3    H224900   2.908   0.998   3.015  0.1859 -0.7528  1.3502
 1137TIP3   OH224901   5.149   3.510   4.511 -0.4142  0.0925  0.4063
 1137TIP3    H124902   5.165   3.543   4.599  0.7334 -2.0866  1.0322
 1137TIP3    H224903   5.113   3.422   4.524  1.7143 -1.0695 -1.3025
 1138TIP3   OH224904   5.745   5.302   3.256 -0.4801  0.3356 -0.2539
 1138TIP3    H124905   5.710   5.319   3.344  1.7061 -1.5149  1.0219
 1138TIP3    H224906   5.836   5.332   3.260 -0.0400 -0.7675 -1.5568
 1139TIP3   OH224907   5.314   5.282   0.048 -0.3753 -0.6897 -0.6091
 1139TIP3    H124908   5.329   5.368   0.088 -1.6588 -0.4386 -0.6636
 1139TIP3    H224909   5.316   5.221   0.123  0.9626 -0.6858 -0.6194
 1140TIP3   OH224910   6.340   6.149  16.530  0.1972  0.3657 -0.1244
 1140TIP3    H124911   6.313   6.141  16.439  1.0290  1.3522 -0.4623
 1140TIP3    H224912   6.369   6.061  16.554 -0.7869 -0.0803 -0.5582
 1141TIP3   OH224913   3.647   4.447   2.168  0.1176  0.2317  0.3118
 1141TIP3    H124914   3.736   4.440   2.203 -0.3210  0.1679  1.4537
 1141TIP3    H224915   3.592   4.410   2.237 -0.5136 -3.2245 -1.9388
 1142TIP3   OH224916   5.034   5.054  10.932  0.4495  0.1812  0.5096
 1142TIP3    H124917   5.128   5.072  10.934  0.5208 -0.1348 -0.0877
 1142TIP3    H224918   5.013   5.040  10.840 -0.4890  1.8247  0.4539
 1143TIP3   OH224919   5.871   0.511   3.309  0.1738  0.0751  0.3568
 1143TIP3    H124920   5.805   0.466   3.255 -0.5957 -0.2834  1.5693
 1143TIP3    H224921   5.955   0.477   3.277 -0.2513  0.1667 -0.8776
 1144TIP3   OH224922   0.651   1.218  15.517 -0.5226 -1.2799  0.0388
 1144TIP3    H124923   0.744   1.238  15.514 -0.8141  0.0012 -0.6489
 1144TIP3    H224924   0.607   1.301  15.496 -1.7816 -2.1921 -1.0649
 1145TIP3   OH224925   0.268   2.505  15.571  0.3103  0.5018 -0.3120
 1145TIP3    H124926   0.173   2.502  15.560  0.4638 -1.8921 -1.2124
 1145TIP3    H224927   0.280   2.506  15.666 -0.6218  0.3324 -0.1828
 1146TIP3   OH224928   2.400   6.753  10.536  0.1261  0.0261 -0.1554
 1146TIP3    H124929   2.308   6.747  10.511 -0.1335 -0.3142  0.8657
 1146TIP3    H224930   2.422   6.667  10.570  0.9067  0.0229 -0.6457
 1147TIP3   OH224931   5.306   6.166   4.051 -0.7371 -0.3689  0.1350
 1147TIP3    H124932   5.215   6.172   4.079 -0.8064 -1.7609  0.2559
 1147TIP3    H224933   5.332   6.076   4.072 -0.0917 -0.7535 -2.1239
 1148TIP3   OH224934   3.589   0.053  17.255 -0.2367 -0.2008 -0.1128
 1148TIP3    H124935   3.538   0.045  17.175 -1.6962  0.7736  0.7180
 1148TIP3    H224936   3.612   0.145  17.260 -1.6462  0.0882  1.4864
 1149TIP3   OH224937   4.573   3.284   5.453  0.1398  0.2314 -0.5975
 1149TIP3    H124938   4.604   3.324   5.534 -2.6541  1.1701  0.0652
 1149TIP3    H224939   4.546   3.358   5.398  2.8794 -0.3313 -2.8150
 1150TIP3   OH224940   1.410   3.978   0.326  0.2606 -0.2710  0.3294
 1150TIP3    H124941   1.359   3.946   0.251 -0.2999 -1.6646  1.2620
 1150TIP3    H224942   1.344   4.015   0.385  0.7620  1.3326 -0.1094
 1151TIP3   OH224943   4.636   1.428  16.978 -0.3317  0.1251 -0.5630
 1151TIP3    H124944   4.646   1.486  16.902  1.7302  0.5437 -0.0152
 1151TIP3    H224945   4.626   1.488  17.052  1.6468 -0.1818 -0.0159
 1152TIP3   OH224946   2.290   0.442  11.518  0.3365  0.0560 -0.8026
 1152TIP3    H124947   2.311   0.506  11.586 -0.8606  1.3490 -1.6031
 1152TIP3    H224948   2.194   0.446  11.511  0.2073 -2.0754 -0.6561
 1153TIP3   OH224949   1.924   5.425   5.935 -0.2867  0.1034 -0.3012
 1153TIP3    H124950   2.000   5.420   5.992  0.3790  0.1778 -1.1800
 1153TIP3    H224951   1.949   5.487   5.867 -1.5185  0.9329 -0.0081
 1154TIP3   OH224952   6.727   3.776   1.698  0.3076 -0.5437  0.3593
 1154TIP3    H124953   6.772   3.701   1.735  0.7263 -0.2818  0.3800
 1154TIP3    H224954   6.662   3.738   1.638  0.2185 -0.9341  0.7005
 1155TIP3   OH224955   5.666   2.622   1.352  0.0056 -0.5226  0.1267
 1155TIP3    H124956   5.745   2.570   1.338  0.0695 -0.2302 -0.6285
 1155TIP3    H224957   5.595   2.564   1.325  0.1489  0.1489 -1.7763
 1156TIP3   OH224958   5.043   6.527  16.930 -0.3853 -0.2220 -0.3943
 1156TIP3    H124959   5.086   6.610  16.909 -0.1058 -0.8364 -2.3613
 1156TIP3    H224960   4.950   6.549  16.938 -0.7625 -0.1669 -3.9627
 1157TIP3   OH224961   5.098   2.906  12.159  0.3131 -0.1042  0.3009
 1157TIP3    H124962   5.036   2.837  12.136  0.3251 -0.0655  0.1504
 1157TIP3    H224963   5.132   2.936  12.075  1.9490 -1.4061  0.4824
 1158TIP3   OH224964   2.526   0.074   3.905 -0.1836 -0.3332 -0.7263
 1158TIP3    H124965   2.560   0.041   3.822  0.9050  0.7192 -0.7171
 1158TIP3    H224966   2.604   0.096   3.956 -0.8518 -0.2867  0.3051
 1159TIP3   OH224967   4.731   6.781  12.373 -0.0506 -0.2892  0.3329
 1159TIP3    H124968   4.767   6.790  12.461  2.0767  0.4248 -0.5659
 1159TIP3    H224969   4.738   6.868  12.335 -1.6629 -0.4162 -0.3024
 1160TIP3   OH224970   4.819   1.611   3.334  0.4118 -0.4563 -0.0726
 1160TIP3    H124971   4.752   1.623   3.401  0.7537 -0.7862  0.3316
 1160TIP3    H224972   4.881   1.549   3.372  1.2089  0.2242 -0.2465
 1161TIP3   OH224973   5.823   2.256  15.859  0.2051  0.0975  0.0532
 1161TIP3    H124974   5.819   2.214  15.945 -0.0185  1.7598  0.8932
 1161TIP3    H224975   5.916   2.265  15.841  0.2513 -0.3947  0.0484
 1162TIP3   OH224976   2.130   4.466   1.880  0.5611  0.2776 -0.1504
 1162TIP3    H124977   2.119   4.403   1.809  0.1060  1.1564 -0.8761
 1162TIP3    H224978   2.121   4.551   1.838  0.3530  0.8148  0.9529
 1163TIP3   OH224979   2.694   4.723   3.341 -0.1119  0.2619  0.8064
 1163TIP3    H124980   2.728   4.756   3.257  1.5836 -2.8824  0.2005
 1163TIP3    H224981   2.623   4.783   3.363  1.1243  2.7078 -1.5675
 1164TIP3   OH224982   4.693   3.037   1.149  0.0930  0.3213 -0.0580
 1164TIP3    H124983   4.746   3.080   1.082  1.5647 -0.0448  0.8487
 1164TIP3    H224984   4.625   3.101   1.170  1.5073  1.7154  0.3758
 1165TIP3   OH224985   0.575   3.371   3.750  0.2905  0.0727  0.4196
 1165TIP3    H124986   0.559   3.465   3.739 -2.9988 -0.6470 -1.6165
 1165TIP3    H224987   0.581   3.337   3.661 -0.5475 -1.9318  1.0918
 1166TIP3   OH224988   3.274   3.870   0.855  0.8033 -0.8735 -0.5163
 1166TIP3    H124989   3.188   3.839   0.884  1.3754 -2.8860 -0.9064
 1166TIP3    H224990   3.259   3.905   0.767 -0.0544  1.0042  0.3536
 1167TIP3   OH224991   0.680   0.859  11.738  0.5322  0.0310 -0.8561
 1167TIP3    H124992   0.633   0.795  11.793  1.6632 -0.2206 -0.1704
 1167TIP3    H224993   0.632   0.859  11.656 -0.3815 -0.5969 -0.3337
 1168TIP3   OH224994   6.118   1.840   2.560 -0.1321 -0.3390  0.1979
 1168TIP3    H124995   6.030   1.835   2.598 -0.2040 -2.0894 -0.1395
 1168TIP3    H224996   6.116   1.777   2.488  1.2589 -0.0522 -0.1009
 1169TIP3   OH224997   6.133   1.050   5.625  0.4484  0.1788 -0.3994
 1169TIP3    H124998   6.106   1.095   5.705  1.0125 -1.4200  0.7148
 1169TIP3    H224999   6.206   0.994   5.652 -1.4718 -2.9032 -1.3237
 1170TIP3   OH225000   4.801   6.652   1.314 -0.0614  0.0153 -0.0396
 1170TIP3    H125001   4.786   6.713   1.242  1.5784 -0.8618 -1.1484
 1170TIP3    H225002   4.893   6.627   1.306 -0.6328 -2.4066  0.5590
 1171TIP3   OH225003   1.847   5.121   5.832  0.0632  0.0429  0.1036
 1171TIP3    H125004   1.926   5.137   5.781 -0.3268 -1.1356 -0.8927
 1171TIP3    H225005   1.775   5.147   5.774 -0.4636 -2.7459 -0.5888
 1172TIP3   OH225006   5.882   0.712  17.149  0.0005  0.0668 -0.0783
 1172TIP3    H125007   5.831   0.730  17.228 -0.1195  0.4370 -0.2392
 1172TIP3    H225008   5.820   0.722  17.077  0.2836  0.4504 -0.2701
 1173TIP3   OH225009   0.271   5.888   4.791 -0.0584 -0.7388  0.1092
 1173TIP3    H125010   0.187   5.911   4.751 -0.4266 -0.2061  1.1692
 1173TIP3    H225011   0.331   5.881   4.717 -0.4583  1.3744 -0.4444
 1174TIP3   OH225012   6.453   6.401  15.492  0.2599 -0.4965 -0.3986
 1174TIP3    H125013   6.514   6.383  15.421 -0.4739 -1.3017 -0.8438
 1174TIP3    H225014   6.393   6.467  15.457 -0.0082 -0.7807 -0.4821
 1175TIP3   OH225015   5.594   1.659   0.510 -0.3506  0.5181  0.0883
 1175TIP3    H125016   5.503   1.634   0.522 -0.1588 -0.7472 -0.9835
 1175TIP3    H225017   5.604   1.740   0.560 -1.7994  0.1221  1.0386
 1176TIP3   OH225018   6.659   1.534  12.176  0.0147  0.1895 -0.0685
 1176TIP3    H125019   6.728   1.515  12.113  0.2964  1.4247 -0.1528
 1176TIP3    H225020   6.661   1.629  12.186 -0.7252  0.1064  1.0102
 1177TIP3   OH225021   5.343   1.747   5.730 -0.9560  0.7095  0.9396
 1177TIP3    H125022   5.344   1.772   5.822 -1.2544 -1.2017  1.4940
 1177TIP3    H225023   5.278   1.677   5.725  0.0628 -0.1698 -0.4450
 1178TIP3   OH225024   1.025   6.429  15.290 -0.1456  0.1667 -0.7532
 1178TIP3    H125025   0.961   6.471  15.349 -1.3416  0.8164 -2.4664
 1178TIP3    H225026   1.110   6.463  15.319 -0.6241 -0.1028  1.0602
 1179TIP3   OH225027   5.705   3.701   3.360 -0.7259 -0.3309  0.2057
 1179TIP3    H125028   5.633   3.716   3.300 -0.7969 -0.2738  0.3053
 1179TIP3    H225029   5.746   3.787   3.371 -0.4752 -0.4131 -0.0644
 1180TIP3   OH225030   3.512   5.290   3.374 -0.1082 -0.4890 -0.1511
 1180TIP3    H125031   3.508   5.377   3.334 -1.6942  0.3088  1.6868
 1180TIP3    H225032   3.601   5.285   3.411 -0.4278  0.8621  0.8329
 1181TIP3   OH225033   1.676   4.427   0.462  0.8876  0.3723 -0.3618
 1181TIP3    H125034   1.712   4.419   0.373 -0.9610 -0.3420 -1.0807
 1181TIP3    H225035   1.613   4.355   0.468  2.4096 -0.7987  2.2516
 1182TIP3   OH225036   0.574   2.427   2.607  0.2226  0.2385 -0.4031
 1182TIP3    H125037   0.504   2.488   2.629 -0.3742 -0.4351 -0.3940
 1182TIP3    H225038   0.652   2.463   2.649  0.0705  1.4581 -1.1527
 1183TIP3   OH225039   2.233   4.813  15.399 -0.9274 -0.0699 -0.3808
 1183TIP3    H125040   2.167   4.794  15.333  0.1981 -0.7382 -1.3328
 1183TIP3    H225041   2.254   4.728  15.437  1.1715 -0.2378 -1.8191
 1184TIP3   OH225042   1.820   4.492  14.439  0.1841 -0.0860  0.0835
 1184TIP3    H125043   1.833   4.461  14.529  0.1718 -1.6056 -0.4208
 1184TIP3    H225044   1.769   4.572  14.449 -0.1966 -0.4638  1.4186
 1185TIP3   OH225045   2.995   6.255  17.075  0.0828  0.9459 -0.2774
 1185TIP3    H125046   3.049   6.203  17.014  0.0635 -2.1794  2.2278
 1185TIP3    H225047   3.058   6.311  17.121  0.6433  0.3734 -0.3373
 1186TIP3   OH225048   4.544   3.214   4.840  0.5738 -0.2635 -0.4319
 1186TIP3    H125049   4.571   3.184   4.753  0.0857  3.0247 -1.7762
 1186TIP3    H225050   4.622   3.203   4.894  0.6644 -3.0479 -1.0619
 1187TIP3   OH225051   0.644   2.213   6.014 -0.4724 -0.3309  0.0066
 1187TIP3    H125052   0.707   2.248   6.076 -0.6591 -0.8626  0.4993
 1187TIP3    H225053   0.688   2.219   5.929  0.7160 -1.7756  0.4922
 1188TIP3   OH225054   5.936   1.472   4.112 -0.0137  0.2058  0.3309
 1188TIP3    H125055   5.988   1.496   4.189  0.2836  2.3393 -0.5109
 1188TIP3    H225056   5.919   1.378   4.123  0.9230  0.2564  2.4534
 1189TIP3   OH225057   6.611   4.015   5.571  0.2883 -0.5051 -0.2059
 1189TIP3    H125058   6.704   3.997   5.561  0.4185  0.0869 -0.0849
 1189TIP3    H225059   6.574   3.932   5.602  0.4951 -1.2176 -1.8377
 1190TIP3   OH225060   4.462   2.327  13.123  0.1047  0.3212  0.2394
 1190TIP3    H125061   4.370   2.301  13.120  0.8193 -2.2890 -0.5481
 1190TIP3    H225062   4.507   2.252  13.162  1.9408  1.4533  0.3594
 1191TIP3   OH225063   5.859   0.493   3.584 -0.1411 -0.5198  0.4234
 1191TIP3    H125064   5.880   0.461   3.496 -1.2798  0.8489 -0.3896
 1191TIP3    H225065   5.904   0.578   3.589 -2.2468  0.6378  0.1280
 1192TIP3   OH225066   3.965   4.374  11.236 -0.0623  0.4454 -0.2053
 1192TIP3    H125067   3.987   4.369  11.329 -1.0487  2.0256  0.1334
 1192TIP3    H225068   4.022   4.310  11.194 -0.7626 -1.4700  1.6848
 1193TIP3   OH225069   6.772   3.573   3.894  0.4627 -0.2430 -0.4416
 1193TIP3    H125070   6.792   3.482   3.918  0.4253  0.2383  1.5381
 1193TIP3    H225071   6.713   3.603   3.964  2.0727  1.9229  0.0330
 1194TIP3   OH225072   3.419   2.655   2.412  0.1757 -0.0154 -0.9079
 1194TIP3    H125073   3.499   2.606   2.431  0.3512  0.2364 -0.9955
 1194TIP3    H225074   3.423   2.731   2.471 -0.8430 -0.8953  0.3467
 1195TIP3   OH225075   3.612   4.172  10.631 -0.1379  0.0152  1.0293
 1195TIP3    H125076   3.595   4.078  10.642  1.4242 -0.6565 -1.7732
 1195TIP3    H225077   3.542   4.202  10.572  0.4310  0.2241  0.4617
 1196TIP3   OH225078   5.154   1.397   0.195 -0.6678 -0.3022  0.1662
 1196TIP3    H125079   5.114   1.482   0.213  1.1942  0.6609 -0.1434
 1196TIP3    H225080   5.208   1.411   0.117 -1.0685 -2.0078 -0.4535
 1197TIP3   OH225081   3.704   4.220   1.510  0.3161 -0.2529 -0.2380
 1197TIP3    H125082   3.761   4.266   1.571 -0.7927  0.7073  0.1033
 1197TIP3    H225083   3.730   4.129   1.516  0.6206 -0.0731  1.2339
 1198TIP3   OH225084   0.879   0.010  16.987 -0.0101 -0.3543 -0.0962
 1198TIP3    H125085   0.935   0.054  17.051  0.1673  0.5630 -0.8633
 1198TIP3    H225086   0.791   0.016  17.024  0.3199 -1.3525  0.8756
 1199TIP3   OH225087   4.740   3.629   0.593 -0.3606 -0.1221 -0.4205
 1199TIP3    H125088   4.760   3.698   0.530  1.4827 -0.0017  0.2625
 1199TIP3    H225089   4.647   3.612   0.581 -0.0695 -0.0861 -3.1478
 1200TIP3   OH225090   6.067   5.388   5.070 -0.6842 -0.3825 -0.2082
 1200TIP3    H125091   5.975   5.367   5.053 -0.9848  0.8792 -0.1983
 1200TIP3    H225092   6.101   5.417   4.986 -1.3486  2.8698  0.5724
 1201TIP3   OH225093   3.328   3.189   4.173 -0.0892  0.0334 -0.4800
 1201TIP3    H125094   3.359   3.112   4.126 -0.2929 -2.4580  3.2061
 1201TIP3    H225095   3.389   3.198   4.246 -1.8565  1.5049  0.8520
 1202TIP3   OH225096   3.576   2.001   6.071  0.6094 -0.0506  0.4652
 1202TIP3    H125097   3.620   1.939   6.130  2.8106  0.9859 -0.0124
 1202TIP3    H225098   3.505   2.038   6.123  0.2300 -1.8427  1.2492
 1203TIP3   OH225099   0.621   3.170   4.318  0.1600  0.1571 -0.1121
 1203TIP3    H125100   0.705   3.197   4.280 -0.5801  0.0407 -1.8711
 1203TIP3    H225101   0.571   3.251   4.328  0.4754  0.2288  0.9521
 1204TIP3   OH225102   0.893   2.001   0.851 -0.0283 -0.1619 -0.3176
 1204TIP3    H125103   0.803   2.011   0.880 -0.0764 -0.5740 -0.3223
 1204TIP3    H225104   0.918   1.913   0.879  0.2975 -0.1367 -0.5202
 1205TIP3   OH225105   5.800   6.671   5.637 -0.0328  0.1910  0.3112
 1205TIP3    H125106   5.720   6.699   5.684 -1.2541 -2.9742  0.2139
 1205TIP3    H225107   5.825   6.589   5.680  2.2763  0.3311 -0.7271
 1206TIP3   OH225108   3.655   2.120  14.900 -0.2299 -0.8444 -0.3537
 1206TIP3    H125109   3.724   2.176  14.935 -1.5352  1.0432 -0.6943
 1206TIP3    H225110   3.674   2.114  14.806 -0.1249 -0.9238 -0.3261
 1207TIP3   OH225111   3.005   6.416   1.166  0.3308 -0.2128  0.4150
 1207TIP3    H125112   3.002   6.463   1.249 -0.5836  0.5825 -0.0625
 1207TIP3    H225113   3.039   6.480   1.104 -1.4773  0.0010 -0.3658
 1208TIP3   OH225114   4.684   2.331   2.154  0.0416 -0.7698  0.3582
 1208TIP3    H125115   4.686   2.389   2.078 -0.8555 -1.6461 -0.3315
 1208TIP3    H225116   4.609   2.360   2.205  0.6932 -0.1252  0.9765
 1209TIP3   OH225117   6.118   5.400  15.238  0.5777 -0.8820  0.2310
 1209TIP3    H125118   6.200   5.446  15.221 -0.7769  1.6647  0.4651
 1209TIP3    H225119   6.086   5.438  15.320 -2.3364  0.2800 -1.4077
 1210TIP3   OH225120   3.429   1.093  14.050 -0.3789 -0.0351 -0.0384
 1210TIP3    H125121   3.398   1.068  14.138  0.9523 -0.1103  0.4169
 1210TIP3    H225122   3.510   1.044  14.039 -0.4357  0.1461 -1.2359
 1211TIP3   OH225123   6.768   4.331  14.558 -0.1713 -0.1004  0.1129
 1211TIP3    H125124   6.710   4.382  14.615 -0.8732  1.0806 -1.6378
 1211TIP3    H225125   6.856   4.362  14.579 -0.5323  1.2717 -0.3900
 1212TIP3   OH225126   3.814   1.264  10.690  0.6313  0.2793  0.2270
 1212TIP3    H125127   3.825   1.188  10.632  0.3755  0.8078 -0.5295
 1212TIP3    H225128   3.868   1.245  10.766  0.4722 -0.7167  0.0932
 1213TIP3   OH225129   1.608   2.745   3.762  0.1043 -0.5316  0.4995
 1213TIP3    H125130   1.672   2.745   3.691  0.7965 -0.0716  1.1235
 1213TIP3    H225131   1.567   2.659   3.757  0.0942 -0.4718 -0.5089
 1214TIP3   OH225132   4.492   4.569   3.989  0.3714  0.4484 -0.1675
 1214TIP3    H125133   4.529   4.613   4.065  0.2350  0.2522  0.0120
 1214TIP3    H225134   4.477   4.479   4.018 -2.3259  1.0605  0.4485
 1215TIP3   OH225135   2.335   5.703  11.017  0.1851 -0.5535  0.5805
 1215TIP3    H125136   2.387   5.738  10.945  0.6687  0.7503  1.5653
 1215TIP3    H225137   2.392   5.638  11.058  0.2240 -0.6772  0.3345
 1216TIP3   OH225138   2.137   2.336  13.521  0.3607  0.2897  0.4048
 1216TIP3    H125139   2.076   2.323  13.448 -1.1200  1.1327  1.4596
 1216TIP3    H225140   2.181   2.419  13.501  2.0662 -0.9147 -0.9645
 1217TIP3   OH225141   3.333   4.625   3.652 -0.2166  0.1936 -0.8465
 1217TIP3    H125142   3.262   4.578   3.696  1.7486 -1.4052  0.7997
 1217TIP3    H225143   3.408   4.615   3.712  1.4022  1.7486 -2.5451
 1218TIP3   OH225144   5.025   5.800   1.962 -0.0912  0.1702  0.0231
 1218TIP3    H125145   5.049   5.826   2.050  1.3988  0.9757 -0.6050
 1218TIP3    H225146   5.102   5.820   1.909 -1.8052  1.9700 -1.8878
 1219TIP3   OH225147   4.441   2.435   0.580  0.0525 -0.2047  0.0513
 1219TIP3    H125148   4.432   2.412   0.487 -2.2299  0.1258  0.1567
 1219TIP3    H225149   4.481   2.358   0.620 -1.8446 -1.6308 -0.6822
 1220TIP3   OH225150   0.564   6.005  10.789 -1.1335 -0.3186  0.2856
 1220TIP3    H125151   0.544   5.987  10.697  1.3365 -1.2990 -0.1096
 1220TIP3    H225152   0.639   6.064  10.786 -0.9895 -0.4148  1.6918
 1221TIP3   OH225153   4.515   0.817   3.104 -0.3635 -0.0372  0.2185
 1221TIP3    H125154   4.592   0.778   3.063 -2.0295 -2.4330 -0.7970
 1221TIP3    H225155   4.511   0.906   3.069  0.9672 -0.4561 -1.0342
 1222TIP3   OH225156   1.321   0.675  11.333 -0.2307  0.1942 -0.4461
 1222TIP3    H125157   1.389   0.716  11.387 -0.0219 -1.3520  0.5058
 1222TIP3    H225158   1.303   0.739  11.265 -1.0396  2.5220  1.8799
 1223TIP3   OH225159   4.873   5.976   1.124 -0.1143  0.1499  0.5726
 1223TIP3    H125160   4.881   6.030   1.045  4.7863 -0.6028  0.4151
 1223TIP3    H225161   4.938   6.011   1.184 -1.3058 -1.5695  2.9584
 1224TIP3   OH225162   3.043   1.277  13.955 -0.1929  0.9120  0.1893
 1224TIP3    H125163   2.955   1.290  13.919 -0.3441  1.6068  0.7972
 1224TIP3    H225164   3.096   1.346  13.915  0.2974 -0.0839 -0.8998
 1225TIP3   OH225165   0.454   3.611   3.656 -0.5626  0.1527 -0.1169
 1225TIP3    H125166   0.384   3.618   3.721  0.7063  0.7664  1.2191
 1225TIP3    H225167   0.454   3.695   3.612 -0.2988  0.3607  0.2755
 1226TIP3   OH225168   1.042   0.062   3.174 -0.4556  0.0225 -0.2277
 1226TIP3    H125169   1.101  -0.008   3.201 -0.3519  0.8088  1.6296
 1226TIP3    H225170   1.096   0.120   3.120  0.8018  1.2734  2.2786
 1227TIP3   OH225171   0.524   2.977   1.634 -0.1669  0.4764 -0.0371
 1227TIP3    H125172   0.619   2.972   1.625  0.1209  1.8812  1.7996
 1227TIP3    H225173   0.497   2.887   1.653  0.8857  0.1768  0.0678
 1228TIP3   OH225174   0.805   1.953   5.022 -0.0116 -0.3484  0.1434
 1228TIP3    H125175   0.715   1.922   5.032 -0.2434 -0.0780 -1.1166
 1228TIP3    H225176   0.821   1.953   4.928  0.8886  0.7915  0.2850
 1229TIP3   OH225177   1.761   6.048  14.923  0.0748  0.8702 -0.2410
 1229TIP3    H125178   1.806   6.021  14.842  1.6321  0.0011  0.8716
 1229TIP3    H225179   1.737   5.966  14.965  2.7574  1.1800  2.0468
 1230TIP3   OH225180   4.971   0.678   5.278  0.1962  0.3339 -0.1884
 1230TIP3    H125181   5.014   0.732   5.213  1.7266 -0.9048 -0.2374
 1230TIP3    H225182   5.042   0.627   5.318 -1.1473 -1.4366  0.0210
 1231TIP3   OH225183   1.984   3.229  12.060 -0.3123 -0.2292  0.5025
 1231TIP3    H125184   2.011   3.190  12.143 -3.5792  1.2344  2.3633
 1231TIP3    H225185   2.013   3.320  12.065  0.6439 -0.4791 -0.5255
 1232TIP3   OH225186   5.667   3.113   2.805  0.9288 -0.1942  0.3622
 1232TIP3    H125187   5.672   3.020   2.829 -0.6758 -0.2233  0.6447
 1232TIP3    H225188   5.591   3.145   2.852  1.0076  1.0862 -0.3764
 1233TIP3   OH225189   0.523   4.836  15.935 -0.3501 -0.3559 -0.1936
 1233TIP3    H125190   0.447   4.843  15.877  0.6290 -0.3442 -1.4969
 1233TIP3    H225191   0.599   4.846  15.877  0.6398  0.4192  1.1958
 1234TIP3   OH225192   5.203   2.291  13.108 -0.5951  0.8515  0.6640
 1234TIP3    H125193   5.204   2.386  13.116 -0.0390  0.7935  1.3488
 1234TIP3    H225194   5.281   2.270  13.056  1.2106  0.5498  3.3651
 1235TIP3   OH225195   3.901   6.192  13.192  0.4246  0.4278 -0.0532
 1235TIP3    H125196   3.844   6.114  13.188  1.5969 -0.4827  0.6289
 1235TIP3    H225197   3.950   6.181  13.273  0.4622  2.0003  0.1390
 1236TIP3   OH225198   0.003   2.267   6.386  0.9456  0.0779 -0.1866
 1236TIP3    H125199  -0.046   2.279   6.467 -1.3519 -2.0363 -1.2133
 1236TIP3    H225200   0.059   2.192   6.403  0.7488 -0.1235 -0.4338
 1237TIP3   OH225201   1.388   1.614  12.804  0.0530  0.4735 -0.4582
 1237TIP3    H125202   1.444   1.612  12.882 -0.1106  0.1590 -0.3502
 1237TIP3    H225203   1.377   1.522  12.780 -0.7507  0.5139 -0.2423
 1238TIP3   OH225204   5.056   5.007  15.092  0.8096 -0.2640 -0.7700
 1238TIP3    H125205   5.007   5.089  15.083 -0.2341 -0.9368 -1.3610
 1238TIP3    H225206   5.117   5.023  15.165 -0.0801  0.6980 -0.2208
 1239TIP3   OH225207   6.365   5.829   2.940  0.0875  0.3265  0.2757
 1239TIP3    H125208   6.440   5.769   2.939 -0.6581 -0.6310  0.5480
 1239TIP3    H225209   6.322   5.811   3.024  0.0500  1.5114  0.5209
 1240TIP3   OH225210   5.875   1.990   0.133  0.2302 -0.3324 -0.1436
 1240TIP3    H125211   5.790   1.963   0.097 -0.0844 -1.3227  1.2972
 1240TIP3    H225212   5.868   2.085   0.142 -0.6181 -0.3739 -0.3158
 1241TIP3   OH225213   1.435   5.449   0.750 -0.0557 -0.0208  0.4526
 1241TIP3    H125214   1.529   5.437   0.763 -0.4072 -1.1782  2.0228
 1241TIP3    H225215   1.406   5.369   0.706 -0.2738  0.4127 -0.1955
 1242TIP3   OH225216   1.672   0.286  15.365  0.2353 -0.3385 -0.4079
 1242TIP3    H125217   1.763   0.306  15.341  0.4875 -2.0759 -0.9158
 1242TIP3    H225218   1.642   0.226  15.297 -1.0410 -0.4152  0.2237
 1243TIP3   OH225219   3.389   0.279  14.991  0.1631 -0.0600  0.2321
 1243TIP3    H125220   3.429   0.212  15.046 -0.9861 -0.7624  0.2256
 1243TIP3    H225221   3.322   0.233  14.942  0.0607  0.8947 -0.5420
 1244TIP3   OH225222   5.884   1.328   0.235 -0.2179 -0.0591  0.3180
 1244TIP3    H125223   5.889   1.417   0.269  3.0335 -0.3426  0.8154
 1244TIP3    H225224   5.974   1.308   0.208 -0.6015 -3.5967  1.3294
 1245TIP3   OH225225   3.130   2.211   4.479  0.4140 -0.6086 -0.6933
 1245TIP3    H125226   3.066   2.193   4.410  2.4126 -0.8787 -2.5374
 1245TIP3    H225227   3.122   2.305   4.495  1.0802 -0.2116 -2.5237
 1246TIP3   OH225228   1.696   2.975   1.144  0.3656 -0.0137  0.1785
 1246TIP3    H125229   1.611   2.947   1.110  0.7440  1.2427 -1.8606
 1246TIP3    H225230   1.760   2.923   1.096  0.8523  0.8073 -0.0686
 1247TIP3   OH225231   5.911   0.693  12.717  0.2057  0.0937  0.5483
 1247TIP3    H125232   5.856   0.753  12.768 -0.0407  0.6641 -0.3747
 1247TIP3    H225233   5.850   0.653  12.655  0.5093 -0.5848  0.6829
 1248TIP3   OH225234   1.400   0.360  16.894 -0.2517  0.2042  0.2642
 1248TIP3    H125235   1.376   0.317  16.976  0.0255  0.1306  0.3041
 1248TIP3    H225236   1.409   0.452  16.916  1.7055 -0.0756  0.7220
 1249TIP3   OH225237   6.755   2.874   0.520  0.6548 -0.0120 -0.0991
 1249TIP3    H125238   6.670   2.868   0.564  0.9058  1.3766  0.5956
 1249TIP3    H225239   6.796   2.953   0.557  1.2382  0.6858 -2.1723
 1250TIP3   OH225240   5.008   5.529   2.999 -0.2771 -0.0118 -0.1072
 1250TIP3    H125241   5.087   5.482   2.971 -0.4710 -0.5510  0.2402
 1250TIP3    H225242   4.965   5.469   3.060 -0.3911  0.7249  0.5423
 1251TIP3   OH225243   0.866   3.507  13.253  0.2867  0.2277  0.4071
 1251TIP3    H125244   0.816   3.580  13.217  0.5991 -0.6927 -1.9253
 1251TIP3    H225245   0.810   3.472  13.322 -1.9098 -0.2387 -1.5760
 1252TIP3   OH225246   4.152   6.654   6.894  0.1519 -0.2369  0.1349
 1252TIP3    H125247   4.175   6.723   6.831 -0.1817 -1.7431 -1.6978
 1252TIP3    H225248   4.057   6.647   6.887  0.0027  0.2880  1.5811
 1253TIP3   OH225249   3.948   1.556  16.442 -0.0351  0.1118  0.5732
 1253TIP3    H125250   4.031   1.521  16.410 -0.3922 -1.2150  1.0565
 1253TIP3    H225251   3.881   1.507  16.394 -0.5605 -1.2929  2.6588
 1254TIP3   OH225252   1.308   3.638   0.597  0.1120  0.4296 -0.7306
 1254TIP3    H125253   1.365   3.712   0.579  0.3761  0.3036 -0.4131
 1254TIP3    H225254   1.250   3.632   0.521 -0.0882  1.1337 -0.6338
 1255TIP3   OH225255   2.351   1.511   0.109  0.1191 -0.4365 -0.1205
 1255TIP3    H125256   2.407   1.560   0.049 -0.3598 -1.3077 -1.3110
 1255TIP3    H225257   2.380   1.421   0.100 -0.2306 -0.6254  0.6574
 1256TIP3   OH225258   1.520   2.285   0.230  0.2631  0.2227 -0.1033
 1256TIP3    H125259   1.494   2.193   0.225  2.9531 -0.4990 -1.8163
 1256TIP3    H225260   1.437   2.333   0.236 -1.2722 -2.1885 -1.1265
 1257TIP3   OH225261   6.004   6.740  13.801 -0.4095  0.3162 -0.2419
 1257TIP3    H125262   5.972   6.747  13.711  0.0771  3.0159 -0.2424
 1257TIP3    H225263   6.096   6.714  13.792 -0.7654 -0.9400 -0.4354
 1258TIP3   OH225264   2.388   3.329   4.144  0.5060  0.2934  0.1830
 1258TIP3    H125265   2.329   3.285   4.082 -0.0093  2.0228 -0.5968
 1258TIP3    H225266   2.449   3.262   4.171  0.1516 -0.7327 -1.5142
 1259TIP3   OH225267   6.235   5.994   3.232 -0.2694  0.6546 -0.4498
 1259TIP3    H125268   6.269   6.004   3.320 -0.5548  1.2307 -0.4009
 1259TIP3    H225269   6.248   5.902   3.211  0.9744  0.7955 -0.2996
 1260TIP3   OH225270   6.695   6.405  12.659 -0.0056 -0.1730 -0.2618
 1260TIP3    H125271   6.711   6.473  12.593 -1.1667 -1.8543 -2.3451
 1260TIP3    H225272   6.653   6.334  12.610  0.9917 -2.3206  1.8999
 1261TIP3   OH225273   3.527   2.337   3.274 -0.5556 -0.1807  0.1550
 1261TIP3    H125274   3.566   2.307   3.356  0.6835  0.9051 -0.0178
 1261TIP3    H225275   3.593   2.318   3.208 -0.6179  0.9765 -0.2567
 1262TIP3   OH225276   5.313   2.341  15.701 -0.2908 -0.4936 -0.2276
 1262TIP3    H125277   5.292   2.260  15.654  4.0770 -2.4685  0.8815
 1262TIP3    H225278   5.408   2.349  15.692 -0.2196  2.7019  2.5441
 1263TIP3   OH225279   6.686   2.886  13.793 -0.6007 -0.1661  0.5534
 1263TIP3    H125280   6.618   2.819  13.793 -1.4845  0.6663 -1.9555
 1263TIP3    H225281   6.648   2.958  13.742  2.1250  0.3613 -0.8112
 1264TIP3   OH225282   0.031   2.629   0.425  0.4109  0.2488  0.5325
 1264TIP3    H125283   0.004   2.714   0.461 -0.2140  0.4676 -0.4124
 1264TIP3    H225284   0.105   2.602   0.479 -0.5245  0.5385  1.9917
 1265TIP3   OH225285   1.447   0.443  15.682 -0.3997  0.1987  0.7722
 1265TIP3    H125286   1.404   0.517  15.725 -0.9389 -0.2723  1.0490
 1265TIP3    H225287   1.377   0.380  15.667  0.2300 -0.6970  1.4770
 1266TIP3   OH225288   5.913   0.013  16.718  0.2877  0.2978 -0.7262
 1266TIP3    H125289   5.936   0.093  16.765  1.2096  0.2532 -1.0948
 1266TIP3    H225290   5.910   0.040  16.626  2.4132 -0.4813 -1.0398
 1267TIP3   OH225291   0.714   2.839   5.812  0.2532  0.3015 -0.1050
 1267TIP3    H125292   0.749   2.751   5.827  0.9654  0.5540 -0.2848
 1267TIP3    H225293   0.734   2.886   5.893  0.3407  0.4505 -0.2138
 1268TIP3   OH225294   5.328   4.731   5.847  0.2324  0.0588  0.1500
 1268TIP3    H125295   5.265   4.757   5.914 -0.1028 -1.2160  0.3514
 1268TIP3    H225296   5.297   4.646   5.817 -0.6532  1.3918 -2.9324
 1269TIP3   OH225297   1.722   0.926  17.114  0.6571 -0.2711  0.0296
 1269TIP3    H125298   1.736   0.837  17.146 -0.0522  0.4031  2.3644
 1269TIP3    H225299   1.801   0.974  17.142 -0.7896  0.7568  2.5362
 1270TIP3   OH225300   2.516   0.477   6.313 -0.0570 -0.1139  0.8123
 1270TIP3    H125301   2.533   0.541   6.382  1.2698 -0.2638  0.6338
 1270TIP3    H225302   2.428   0.446   6.331 -0.2605  0.8739  1.6182
 1271TIP3   OH225303   5.424   3.394   1.448  0.1323 -0.4813 -0.1177
 1271TIP3    H125304   5.334   3.363   1.447  0.3528 -1.1288 -1.4857
 1271TIP3    H225305   5.420   3.480   1.491 -1.1504 -0.4601 -0.2724
 1272TIP3   OH225306   0.067   3.061   5.146 -0.2312  0.5325  0.1829
 1272TIP3    H125307   0.079   3.080   5.239  1.5047  0.5720 -0.0423
 1272TIP3    H225308  -0.027   3.071   5.132 -0.2736  2.2737  1.5443
 1273TIP3   OH225309   4.645   3.661   4.096  0.2787 -0.6221 -0.6427
 1273TIP3    H125310   4.678   3.584   4.050  0.8333 -0.3908 -0.6365
 1273TIP3    H225311   4.722   3.701   4.136 -0.1150 -0.5015  0.0136
 1274TIP3   OH225312   4.578   0.130  13.049  0.1781 -0.7778  0.6749
 1274TIP3    H125313   4.670   0.106  13.043  0.3352 -0.4860  1.7180
 1274TIP3    H225314   4.537   0.056  13.095  0.3938  0.2824  2.5973
 1275TIP3   OH225315   2.509   6.671   0.391 -0.2113  0.1648  0.1064
 1275TIP3    H125316   2.557   6.610   0.447  0.9719  1.0606  0.0804
 1275TIP3    H225317   2.443   6.617   0.348  1.4523 -1.2926 -0.6646
 1276TIP3   OH225318   5.008   4.136  14.859 -0.6733 -0.1414  0.2411
 1276TIP3    H125319   5.026   4.175  14.774 -1.0415  0.9317  0.6534
 1276TIP3    H225320   5.002   4.210  14.919 -1.3180 -0.8315  1.0425
 1277TIP3   OH225321   6.796   0.684   5.113  0.0710 -0.3585  0.5343
 1277TIP3    H125322   6.824   0.594   5.124 -2.0780 -1.4253 -2.0272
 1277TIP3    H225323   6.711   0.689   5.157 -0.0801  0.2359  0.1830
 1278TIP3   OH225324   4.147   3.127   6.054 -0.1227  0.2781  0.1016
 1278TIP3    H125325   4.112   3.135   6.143 -2.3259  3.7284 -0.9779
 1278TIP3    H225326   4.106   3.048   6.019  1.1619 -1.4089  2.2712
 1279TIP3   OH225327   0.515   2.090  10.852  0.9909 -0.2378  0.1053
 1279TIP3    H125328   0.559   2.160  10.901 -0.3232  1.4442 -1.0554
 1279TIP3    H225329   0.528   2.012  10.905 -0.1950  1.4754  3.0413
 1280TIP3   OH225330   2.987   6.096   1.876 -0.5949 -0.2533 -0.4451
 1280TIP3    H125331   3.068   6.118   1.829 -0.9422 -1.3876 -1.6259
 1280TIP3    H225332   2.962   6.011   1.840 -1.5462 -0.5696  0.9474
 1281TIP3   OH225333   6.251   1.637   3.626  0.0385 -0.1737 -0.3248
 1281TIP3    H125334   6.170   1.587   3.635 -0.8411  1.1727 -0.6791
 1281TIP3    H225335   6.321   1.571   3.631 -0.9649 -1.1127  2.0664
 1282TIP3   OH225336   0.987   4.454  15.467  0.1994 -0.3255 -0.1429
 1282TIP3    H125337   1.068   4.501  15.446 -0.0062  0.2269  0.2847
 1282TIP3    H225338   0.926   4.523  15.492 -0.4904 -0.7234 -0.7478
 1283TIP3   OH225339   5.098   4.776  13.697 -0.3069 -0.5588 -0.5713
 1283TIP3    H125340   5.104   4.830  13.776  1.3432  0.2162 -1.1939
 1283TIP3    H225341   5.132   4.690  13.724 -2.5892 -1.2163  0.3250
 1284TIP3   OH225342   6.577   5.713   2.078  0.4148  0.4555 -0.7462
 1284TIP3    H125343   6.516   5.640   2.084 -0.7554  1.5239  0.9068
 1284TIP3    H225344   6.658   5.680   2.117 -0.1540  0.0860  0.1378
 1285TIP3   OH225345   3.276   4.615  11.703 -0.3535  0.1212  0.3995
 1285TIP3    H125346   3.271   4.537  11.759  0.5413  0.1424  0.5146
 1285TIP3    H225347   3.228   4.590  11.624 -0.3049 -0.4538  0.5446
 1286TIP3   OH225348   5.835   3.747  16.270  0.2066 -0.2035  0.3384
 1286TIP3    H125349   5.764   3.722  16.330  0.3669  0.9432  1.0376
 1286TIP3    H225350   5.792   3.799  16.202  0.3583  0.4957  0.7653
 1287TIP3   OH225351   0.971   1.510  16.529  0.3699 -0.8952 -0.3124
 1287TIP3    H125352   1.004   1.441  16.471  1.9261 -0.3046 -0.1555
 1287TIP3    H225353   1.046   1.568  16.542  0.0447 -1.0213  2.3024
 1288TIP3   OH225354   5.263   2.153  16.833  0.2029  0.1914  0.5232
 1288TIP3    H125355   5.336   2.153  16.895  0.0141 -0.3811  0.7511
 1288TIP3    H225356   5.223   2.239  16.843 -0.6055 -0.3513  2.1364
 1289TIP3   OH225357   3.959   1.332  11.064 -0.6013 -0.2017 -0.3354
 1289TIP3    H125358   3.945   1.278  11.141  3.6770 -0.6803  0.2493
 1289TIP3    H225359   3.969   1.269  10.992 -0.3808  0.0236 -0.5044
 1290TIP3   OH225360   6.468   5.899   6.302 -0.0710 -0.4218 -0.1516
 1290TIP3    H125361   6.377   5.913   6.273 -1.5963  2.1457  5.3299
 1290TIP3    H225362   6.473   5.805   6.319 -1.3694 -0.7534 -1.4457
 1291TIP3   OH225363   1.478   1.291   4.543 -0.0482  0.4164 -0.0102
 1291TIP3    H125364   1.448   1.252   4.626 -0.1299  1.4560  0.4574
 1291TIP3    H225365   1.473   1.220   4.480 -2.0854  0.1690  0.3973
 1292TIP3   OH225366   2.268   6.802  15.472  0.3554  0.2377 -0.3443
 1292TIP3    H125367   2.181   6.829  15.442  0.3683  0.5625 -0.0922
 1292TIP3    H225368   2.329   6.850  15.416  0.3769 -0.9001 -1.3272
 1293TIP3   OH225369   0.361   6.388  13.178 -0.2834  0.2028 -0.3761
 1293TIP3    H125370   0.380   6.374  13.270 -2.4790 -0.5728 -0.0378
 1293TIP3    H225371   0.282   6.442  13.177 -0.8830 -0.6779 -1.8051
 1294TIP3   OH225372   0.494   4.356   6.392  0.4822  0.0821  0.3795
 1294TIP3    H125373   0.539   4.287   6.441  0.2038 -0.0344  0.4714
 1294TIP3    H225374   0.498   4.328   6.301 -0.2140 -0.3849  0.4918
 1295TIP3   OH225375   4.870   5.962   1.589 -0.1056  0.8727 -0.0862
 1295TIP3    H125376   4.783   5.948   1.551  0.3708 -0.1480 -0.8092
 1295TIP3    H225377   4.868   5.913   1.672  0.0513  0.1645 -0.4949
 1296TIP3   OH225378   5.764   2.836  11.539 -0.4705 -0.1260  0.3150
 1296TIP3    H125379   5.782   2.919  11.583  0.4615 -0.9262  1.4846
 1296TIP3    H225380   5.741   2.775  11.609 -0.0974 -1.1331 -0.4114
 1297TIP3   OH225381   0.188   5.384   6.655 -0.4972 -0.0079  0.2297
 1297TIP3    H125382   0.168   5.448   6.587 -0.2119 -0.1252  0.0383
 1297TIP3    H225383   0.127   5.312   6.639  0.1588 -0.4221 -0.4312
 1298TIP3   OH225384   6.378   1.547   5.892 -0.5807  0.1656 -0.0095
 1298TIP3    H125385   6.321   1.602   5.946 -2.8720  0.3100 -2.4677
 1298TIP3    H225386   6.404   1.603   5.819 -0.3061 -1.0321 -0.8457
 1299TIP3   OH225387   4.717   4.604  10.154  0.1933  0.6046  0.3477
 1299TIP3    H125388   4.799   4.631  10.196  0.2910  1.8284 -0.5965
 1299TIP3    H225389   4.712   4.510  10.169  2.1498  0.3837 -0.2179
 1300TIP3   OH225390   6.816   4.072   1.856  0.0126  0.1421  0.0684
 1300TIP3    H125391   6.866   4.153   1.850  2.2936 -1.1302  1.3829
 1300TIP3    H225392   6.878   4.007   1.890 -1.6696 -2.2525 -1.2669
 1301TIP3   OH225393   6.263   0.513  16.553 -0.3863  0.4838  0.2357
 1301TIP3    H125394   6.347   0.472  16.570  0.1997  1.7138  0.3605
 1301TIP3    H225395   6.242   0.560  16.634 -0.9048  0.6561  0.0012
 1302TIP3   OH225396   6.092   3.680  15.734 -0.2109  0.7623 -0.5124
 1302TIP3    H125397   6.072   3.635  15.816  3.7868  1.4159  0.9269
 1302TIP3    H225398   6.037   3.759  15.736 -0.1491  0.7742  1.5360
 1303TIP3   OH225399   5.107   5.270   4.606 -0.1052  0.3232  0.7469
 1303TIP3    H125400   5.067   5.353   4.631  0.6531  1.4517 -1.7017
 1303TIP3    H225401   5.049   5.235   4.538  1.1429  0.2606 -0.2987
 1304TIP3   OH225402   2.161   5.291   4.539  0.1884  0.1981 -0.4217
 1304TIP3    H125403   2.078   5.254   4.568  0.9830 -0.5207  0.9679
 1304TIP3    H225404   2.200   5.224   4.484 -0.4059  0.7713 -1.5645
 1305TIP3   OH225405   3.591   1.018  16.496  0.2760  0.5555 -0.2601
 1305TIP3    H125406   3.509   0.995  16.538 -0.9756  0.1094 -2.8488
 1305TIP3    H225407   3.578   1.107  16.463  0.9840  0.6477 -0.3091
 1306TIP3   OH225408   0.016   3.571  17.151 -0.0206  0.0228 -0.2155
 1306TIP3    H125409  -0.014   3.489  17.189 -0.1480  0.9673  1.8087
 1306TIP3    H225410  -0.054   3.634  17.170  1.2466  1.2100  0.6564
 1307TIP3   OH225411   0.645   4.822  14.846  0.3312 -0.5932  0.1569
 1307TIP3    H125412   0.740   4.822  14.846  0.3293 -0.9160  0.4938
 1307TIP3    H225413   0.621   4.810  14.754  0.6131 -1.2157  0.1646
 1308TIP3   OH225414   4.730   4.004   5.505  0.4092 -0.6138 -0.0455
 1308TIP3    H125415   4.697   3.915   5.499 -0.7070 -0.2234 -0.0242
 1308TIP3    H225416   4.696   4.047   5.427 -1.1519  0.4283  1.1679
 1309TIP3   OH225417   0.809   2.721   3.858  0.0720  0.0622  0.0240
 1309TIP3    H125418   0.841   2.807   3.831 -0.3543  0.0710 -0.4842
 1309TIP3    H225419   0.740   2.740   3.922  0.6820  0.0621  0.6824
 1310TIP3   OH225420   0.986   6.241   6.256  0.4142  0.1011 -0.4527
 1310TIP3    H125421   1.082   6.249   6.261  0.2278  2.3332  0.1378
 1310TIP3    H225422   0.956   6.261   6.345 -0.8113  3.3530 -1.5436
 1311TIP3   OH225423   4.267   5.231   6.184 -0.5877  0.2193  0.6347
 1311TIP3    H125424   4.351   5.228   6.139  0.3260 -0.4580  2.3416
 1311TIP3    H225425   4.286   5.274   6.267 -2.3545  1.9655  0.1854
 1312TIP3   OH225426   2.590   0.583  12.554  0.3027 -0.2974 -0.1503
 1312TIP3    H125427   2.661   0.626  12.602 -0.8071 -1.1628  2.3462
 1312TIP3    H225428   2.550   0.653  12.503  1.4446  0.6797  0.2540
 1313TIP3   OH225429   6.369   6.321   4.462 -0.5247 -0.4300  0.3613
 1313TIP3    H125430   6.280   6.317   4.427 -1.2695  1.6528  1.9104
 1313TIP3    H225431   6.412   6.390   4.412 -0.8953  0.9857  1.9318
 1314TIP3   OH225432   1.415   5.383   1.575  0.0790  0.3957  0.3885
 1314TIP3    H125433   1.348   5.444   1.604  0.3193  1.0656 -0.4311
 1314TIP3    H225434   1.463   5.431   1.507  0.8133 -0.3941  0.3397
 1315TIP3   OH225435   6.796   5.120  12.755 -0.3655  0.5789 -0.7407
 1315TIP3    H125436   6.860   5.052  12.732  0.0738  1.1811 -1.3689
 1315TIP3    H225437   6.828   5.156  12.838 -1.7508 -1.3647  0.6632
 1316TIP3   OH225438   1.484   0.939   5.325 -0.6147 -0.2499 -0.3384
 1316TIP3    H125439   1.415   0.936   5.259  0.4868 -0.2186 -1.5316
 1316TIP3    H225440   1.545   1.006   5.292  0.9279 -1.5874 -0.2740
 1317TIP3   OH225441   2.767   3.757   2.443  0.0687 -0.4315 -0.5354
 1317TIP3    H125442   2.855   3.780   2.414 -0.5478  1.5433 -0.9614
 1317TIP3    H225443   2.737   3.835   2.491 -2.0225 -0.4108 -1.7881
 1318TIP3   OH225444   6.775   4.289   4.488 -0.4079  0.6441 -0.0379
 1318TIP3    H125445   6.728   4.212   4.521  2.8135 -1.6586 -0.5414
 1318TIP3    H225446   6.821   4.323   4.564  0.7633  0.0893 -0.4902
 1319TIP3   OH225447   5.172   4.632   1.929  0.1359  0.0942  0.5240
 1319TIP3    H125448   5.089   4.660   1.891 -0.3827 -2.1067 -0.0394
 1319TIP3    H225449   5.154   4.546   1.966  2.3159 -0.6983 -0.1701
 1320TIP3   OH225450   1.165   5.447  15.471  0.1073  0.2824  0.3602
 1320TIP3    H125451   1.080   5.459  15.428  1.0464  0.3273 -1.5755
 1320TIP3    H225452   1.219   5.517  15.436  1.3919 -0.7153  0.2990
 1321TIP3   OH225453   1.066   6.386   2.196 -0.1023  0.1877  0.3571
 1321TIP3    H125454   1.004   6.362   2.128 -1.1850 -0.5539  1.5784
 1321TIP3    H225455   1.121   6.454   2.156 -0.4575 -0.5005 -1.3636
 1322TIP3   OH225456   2.532   6.588  13.458 -0.3513 -0.2898 -0.2335
 1322TIP3    H125457   2.452   6.539  13.475 -1.4263  1.2132 -0.7960
 1322TIP3    H225458   2.539   6.588  13.362  0.8020 -1.1462 -0.1576
 1323TIP3   OH225459   4.753   0.592   0.293 -0.0529  0.2615 -0.2320
 1323TIP3    H125460   4.721   0.680   0.310  0.3503  0.2368  0.6758
 1323TIP3    H225461   4.680   0.547   0.250 -1.2341  0.2146  1.7469
 1324TIP3   OH225462   2.887   1.225  12.592 -0.4369 -0.0473  0.2782
 1324TIP3    H125463   2.911   1.215  12.685  0.8614  0.7398  0.0478
 1324TIP3    H225464   2.960   1.274  12.554 -1.8072  1.2221 -0.7759
 1325TIP3   OH225465   4.889   6.604   0.548  0.5545  0.0828  0.4524
 1325TIP3    H125466   4.920   6.694   0.552 -0.6816  0.5117  0.5213
 1325TIP3    H225467   4.907   6.575   0.458  0.3044  0.6355  0.2253
 1326TIP3   OH225468   0.048   2.818  11.501  0.0186  0.8621  0.3759
 1326TIP3    H125469   0.132   2.777  11.479  0.5653  1.3836  1.4374
 1326TIP3    H225470   0.044   2.813  11.596 -1.5086  0.1825  0.2800
 1327TIP3   OH225471   4.440   5.911   3.936 -0.0210 -0.3986 -0.0631
 1327TIP3    H125472   4.527   5.915   3.896  0.0241 -2.6937 -0.2846
 1327TIP3    H225473   4.409   5.823   3.915 -1.1861 -0.6414  2.5322
 1328TIP3   OH225474   2.023   6.022  11.861  0.4185 -0.3220  0.2639
 1328TIP3    H125475   1.956   5.958  11.835  0.7393 -1.2772  1.7440
 1328TIP3    H225476   1.993   6.105  11.824 -0.2259 -1.2350 -1.3279
 1329TIP3   OH225477   2.823   6.593  11.577 -0.1339 -0.3819  0.0265
 1329TIP3    H125478   2.761   6.522  11.560 -1.6930  0.8776  0.4619
 1329TIP3    H225479   2.816   6.650  11.500 -0.0316  0.1517  0.4130
 1330TIP3   OH225480   3.258   6.456   5.051  0.1289 -0.6214 -0.1404
 1330TIP3    H125481   3.345   6.447   5.091  0.0787 -0.8277 -0.0794
 1330TIP3    H225482   3.217   6.371   5.062 -0.1966 -0.4379  0.1009
 1331TIP3   OH225483   5.986   0.647  14.385 -0.8895 -0.0806  0.3342
 1331TIP3    H125484   6.009   0.740  14.378 -2.4698  0.2738 -0.3913
 1331TIP3    H225485   6.063   0.601  14.349 -0.8969  1.0263 -1.1599
 1332TIP3   OH225486   1.163   2.932   5.670 -0.4297 -0.5236  0.4511
 1332TIP3    H125487   1.101   2.872   5.629 -0.1025 -0.4945 -0.0991
 1332TIP3    H225488   1.236   2.877   5.698  0.1039 -0.3230 -0.5152
 1333TIP3   OH225489   6.583   6.218  16.185  0.3771 -0.4391 -0.3122
 1333TIP3    H125490   6.633   6.287  16.142  0.7981 -1.0097 -0.7401
 1333TIP3    H225491   6.629   6.203  16.268 -0.3808  0.5918  0.3126
 1334TIP3   OH225492   4.791   1.204  16.790  0.4463 -0.1305 -0.2273
 1334TIP3    H125493   4.757   1.134  16.845  2.7729 -2.4215 -1.5671
 1334TIP3    H225494   4.824   1.269  16.851 -1.4997 -0.3178  1.0464
 1335TIP3   OH225495   6.679   3.311   0.194 -0.5617 -0.1774 -0.0921
 1335TIP3    H125496   6.643   3.226   0.168 -0.7799 -0.4361  1.0194
 1335TIP3    H225497   6.618   3.375   0.158 -3.1112 -0.6497  3.1056
 1336TIP3   OH225498   0.379   0.344  12.871 -0.5361  0.0709 -0.4093
 1336TIP3    H125499   0.303   0.396  12.846 -2.3502 -0.9589  2.7239
 1336TIP3    H225500   0.344   0.257  12.887  1.4391 -0.5864  0.3963
 1337TIP3   OH225501   2.531   5.436  10.640  0.3056 -0.0665 -0.0726
 1337TIP3    H125502   2.604   5.461  10.583 -0.0106 -1.0461 -0.9280
 1337TIP3    H225503   2.477   5.515  10.646  1.8221  0.9056  1.1972
 1338TIP3   OH225504   5.467   5.026   2.717 -0.5851 -0.1127  0.4584
 1338TIP3    H125505   5.423   4.941   2.708  0.2383 -0.7206  1.9629
 1338TIP3    H225506   5.438   5.059   2.802 -1.1705  1.2905 -0.2705
 1339TIP3   OH225507   3.575   5.617  15.808  0.4387 -0.1363  0.6951
 1339TIP3    H125508   3.650   5.591  15.862 -0.3159 -4.3004 -0.0979
 1339TIP3    H225509   3.574   5.553  15.736 -1.9880  1.7926 -1.0738
 1340TIP3   OH225510   2.068   5.960   6.090 -0.9805  0.5071  0.1277
 1340TIP3    H125511   1.995   6.021   6.098 -0.2530  1.4068  0.0162
 1340TIP3    H225512   2.030   5.882   6.052 -1.7305  1.2558 -0.6868
 1341TIP3   OH225513   3.599   3.185  16.062  0.7332  0.8698 -0.6401
 1341TIP3    H125514   3.592   3.262  16.118  1.9127  1.6555 -1.5551
 1341TIP3    H225515   3.670   3.133  16.101 -0.2442  0.1025  0.1369
 1342TIP3   OH225516   0.896   4.234  14.098 -0.1243  0.6855 -0.4284
 1342TIP3    H125517   0.989   4.212  14.109 -0.1791  0.7124  0.1083
 1342TIP3    H225518   0.896   4.323  14.064  0.1318 -0.4211 -3.5363
 1343TIP3   OH225519   0.338   1.974  13.211 -0.0001 -0.0804 -0.4091
 1343TIP3    H125520   0.281   1.901  13.187  0.3673 -0.7987  0.8493
 1343TIP3    H225521   0.335   2.033  13.135 -0.7483 -1.1211 -1.2039
 1344TIP3   OH225522   1.337   0.124  11.537 -0.6182  0.0687 -0.2618
 1344TIP3    H125523   1.407   0.186  11.515 -0.9144  0.8212  0.8841
 1344TIP3    H225524   1.322   0.075  11.456 -0.1415  1.2660 -1.0834
 1345TIP3   OH225525   4.066   5.224  11.859 -0.7684 -0.5236 -0.5397
 1345TIP3    H125526   4.039   5.149  11.911 -2.4631  1.6783  1.8646
 1345TIP3    H225527   4.143   5.258  11.904 -0.9738  0.1357 -0.6743
 1346TIP3   OH225528   6.468   5.740  12.224  0.1682 -0.2509  0.3951
 1346TIP3    H125529   6.393   5.789  12.191  0.6701  0.0587 -0.3114
 1346TIP3    H225530   6.440   5.649  12.221  0.5594 -0.3485 -1.9707
 1347TIP3   OH225531   4.122   5.004  16.032 -0.8209  0.6638  0.3889
 1347TIP3    H125532   4.162   5.014  16.119  1.3393  0.1723 -0.5141
 1347TIP3    H225533   4.116   5.093  15.999  1.6531  0.6041 -0.3515
 1348TIP3   OH225534   2.160   0.839   4.155  0.1347 -0.0214 -0.3516
 1348TIP3    H125535   2.249   0.870   4.172  0.5713 -2.1847  1.5753
 1348TIP3    H225536   2.111   0.918   4.131  2.5187  1.2264 -1.3265
 1349TIP3   OH225537   5.257   5.947   5.283  0.1144  0.3148 -0.1530
 1349TIP3    H125538   5.299   5.863   5.267  1.0472  0.9433 -1.0381
 1349TIP3    H225539   5.217   5.971   5.200  0.2129  0.9519 -0.0195
 1350TIP3   OH225540   2.304   0.117   1.753 -0.0296  0.2877  0.1778
 1350TIP3    H125541   2.270   0.105   1.842  0.1362  0.7639  0.3092
 1350TIP3    H225542   2.235   0.165   1.708 -1.0477 -1.8616 -0.5851
 1351TIP3   OH225543   1.974   5.408   2.858  0.2179  0.2889 -0.0682
 1351TIP3    H125544   2.029   5.329   2.856 -0.9071 -0.5334  0.4524
 1351TIP3    H225545   1.993   5.448   2.943  0.6267  0.4545 -0.2375
 1352TIP3   OH225546   4.823   4.328  16.660 -0.7471 -0.0746  0.1244
 1352TIP3    H125547   4.785   4.321  16.572  0.1782 -0.3771 -0.2631
 1352TIP3    H225548   4.915   4.305  16.647 -0.5225  0.2871  1.1092
 1353TIP3   OH225549   4.834   6.034   5.789  0.4919  0.0795  0.4621
 1353TIP3    H125550   4.877   6.025   5.704  0.9149 -1.2042  0.8045
 1353TIP3    H225551   4.834   5.945   5.826 -0.4679  0.4691  1.4218
 1354TIP3   OH225552   0.939   5.377   4.419 -0.3540  0.3039  0.3926
 1354TIP3    H125553   0.947   5.297   4.472 -2.1345  0.4194  0.8701
 1354TIP3    H225554   0.886   5.436   4.473 -1.8460  0.5785 -1.3422
 1355TIP3   OH225555   3.888   2.986   0.186 -0.1573 -0.4898  0.2006
 1355TIP3    H125556   3.865   2.894   0.197  0.4369 -0.7382 -0.6034
 1355TIP3    H225557   3.892   2.998   0.091 -0.2163  0.3601  0.3048
 1356TIP3   OH225558   0.583   1.613   5.321  0.6329 -0.2763  0.2861
 1356TIP3    H125559   0.505   1.596   5.374  0.8044 -0.9588  0.3159
 1356TIP3    H225560   0.656   1.597   5.380  0.7949  0.5563  0.3132
 1357TIP3   OH225561   5.888   0.074   5.462  0.2519 -0.5565 -0.0823
 1357TIP3    H125562   5.888   0.043   5.372  1.5240  0.0326 -0.2953
 1357TIP3    H225563   5.837   0.009   5.510 -1.5908 -0.1734 -1.4551
 1358TIP3   OH225564   3.821   1.674  11.936  0.3174 -0.2990  0.0163
 1358TIP3    H125565   3.749   1.662  11.998 -0.9830  1.3609 -1.1060
 1358TIP3    H225566   3.811   1.602  11.874  0.2252 -0.6415  0.4248
 1359TIP3   OH225567   5.432   1.585  15.236  0.1133 -0.2254  0.4330
 1359TIP3    H125568   5.500   1.612  15.298 -0.4841  0.5003  0.7884
 1359TIP3    H225569   5.477   1.577  15.152  0.6729  0.0880  0.7012
 1360TIP3   OH225570   4.590   1.863   2.489 -0.3742  0.6351  0.4968
 1360TIP3    H125571   4.565   1.778   2.452 -0.6279  0.8339  0.2056
 1360TIP3    H225572   4.507   1.907   2.506 -0.2297  1.3017 -0.4928
 1361TIP3   OH225573   3.783   0.515  13.295 -0.2130 -0.4791  0.3655
 1361TIP3    H125574   3.752   0.591  13.246 -0.4445 -0.8800 -0.1121
 1361TIP3    H225575   3.775   0.542  13.387 -0.5940 -0.0413  0.2116
 1362TIP3   OH225576   2.534   1.954  15.135 -0.6872 -0.2498  0.4264
 1362TIP3    H125577   2.473   1.899  15.184 -1.7351 -1.5977 -2.2803
 1362TIP3    H225578   2.502   1.951  15.045  2.9979 -0.5295 -0.9808
 1363TIP3   OH225579   5.441   3.904  11.656 -0.8923  0.5163  0.2662
 1363TIP3    H125580   5.371   3.883  11.594 -2.0802 -0.7325  1.9875
 1363TIP3    H225581   5.472   3.991  11.628 -0.3679 -0.6196 -2.9660
 1364TIP3   OH225582   0.456   1.279  11.506 -0.2669 -0.2782 -0.2072
 1364TIP3    H125583   0.391   1.223  11.465 -0.0779  0.1434 -1.0890
 1364TIP3    H225584   0.510   1.219  11.559 -0.2769 -0.8729 -0.8667
 1365TIP3   OH225585   3.532   5.949   4.608 -0.4474  0.3927  0.1435
 1365TIP3    H125586   3.506   5.897   4.532 -1.9841  1.0845  0.1842
 1365TIP3    H225587   3.621   5.919   4.628 -0.1979 -0.1185 -1.6393
 1366TIP3   OH225588   3.428   4.924  14.842  0.0005  0.0819 -0.2687
 1366TIP3    H125589   3.485   4.942  14.917 -1.3078  2.1970  0.2731
 1366TIP3    H225590   3.341   4.948  14.873 -1.0414 -2.1699 -1.4103
 1367TIP3   OH225591   5.082   3.910   5.314  0.8218  0.2730 -0.6297
 1367TIP3    H125592   5.013   3.844   5.311  0.4163  0.6728 -0.0911
 1367TIP3    H225593   5.145   3.876   5.378  0.7518  0.2781 -0.5581
 1368TIP3   OH225594   0.839   5.930  16.151  0.4355  0.2218  0.3026
 1368TIP3    H125595   0.795   5.854  16.190 -1.3288  0.8437 -0.4627
 1368TIP3    H225596   0.932   5.906  16.152 -0.0270 -1.6299  0.7698
 1369TIP3   OH225597   4.285   4.108  11.419  0.6530 -0.4137 -0.0909
 1369TIP3    H125598   4.350   4.167  11.382  0.3596 -0.8140 -1.2787
 1369TIP3    H225599   4.336   4.039  11.460  0.9888  0.0907  0.3395
 1370TIP3   OH225600   3.106   4.547  15.988 -0.3579  0.6769 -0.4590
 1370TIP3    H125601   3.049   4.607  15.939 -1.4261  0.4621  0.5082
 1370TIP3    H225602   3.067   4.542  16.075  0.0162 -0.9998 -0.3601
 1371TIP3   OH225603   6.105   4.348   4.590  0.0089 -0.3992 -0.2817
 1371TIP3    H125604   6.145   4.399   4.661  0.7363 -1.6879  0.2544
 1371TIP3    H225605   6.016   4.382   4.583  0.7822  1.6018 -0.5825
 1372TIP3   OH225606   1.945   5.714   6.063 -0.3457  0.1285  0.0116
 1372TIP3    H125607   1.921   5.676   5.979  0.5656 -0.0291 -0.1887
 1372TIP3    H225608   1.912   5.652   6.128  0.1807 -0.4710 -0.2812
 1373TIP3   OH225609   4.778   6.657   2.649 -0.1070  0.4706 -0.0879
 1373TIP3    H125610   4.761   6.738   2.698  0.3584 -0.0483  0.9505
 1373TIP3    H225611   4.859   6.623   2.687  0.4448  0.2182 -1.4444
 1374TIP3   OH225612   2.795   5.359   5.686  0.5512  0.5499  0.3696
 1374TIP3    H125613   2.740   5.430   5.653  0.4629  0.7715  0.9875
 1374TIP3    H225614   2.884   5.386   5.664  0.5639  1.1349  1.1154
 1375TIP3   OH225615   0.620   0.282  16.146 -0.8699 -0.2613  0.1828
 1375TIP3    H125616   0.581   0.221  16.208 -0.2380  0.3518  1.1883
 1375TIP3    H225617   0.713   0.279  16.165 -0.9741  2.0913  1.2303
 1376TIP3   OH225618   4.292   0.899   3.780 -0.1282  0.6246  0.5256
 1376TIP3    H125619   4.231   0.973   3.784  0.0161  0.7479  0.4417
 1376TIP3    H225620   4.236   0.823   3.770 -0.2426  0.7921 -0.1153
 1377TIP3   OH225621   1.058   4.136  11.329 -0.0590 -0.2773 -0.5398
 1377TIP3    H125622   0.968   4.160  11.353  0.2838 -0.8096  1.3277
 1377TIP3    H225623   1.050   4.047  11.294 -0.3013 -0.2389 -0.5829
 1378TIP3   OH225624   0.199   2.447   2.953  0.4145  0.2660 -0.4918
 1378TIP3    H125625   0.260   2.415   2.887 -0.0543 -0.6541 -0.4827
 1378TIP3    H225626   0.139   2.504   2.905  0.1309 -0.3296 -0.8486
 1379TIP3   OH225627   3.541   2.334   5.189 -0.0778  0.0181  0.4639
 1379TIP3    H125628   3.576   2.245   5.184 -0.9502 -0.3275  0.3409
 1379TIP3    H225629   3.457   2.329   5.142  0.2442  1.0891 -0.2435
 1380TIP3   OH225630   3.837   0.140   5.235 -0.1033  0.0012  0.2758
 1380TIP3    H125631   3.782   0.204   5.190 -0.6878 -1.8446 -1.7259
 1380TIP3    H225632   3.809   0.055   5.200  3.5595 -1.0345 -0.3452
 1381TIP3   OH225633   2.580   6.013  12.444  0.3108 -0.2396  0.2617
 1381TIP3    H125634   2.529   5.958  12.385  0.2770 -0.8930  0.9008
 1381TIP3    H225635   2.514   6.064  12.492  0.3379  0.2896 -0.2518
 1382TIP3   OH225636   3.811   6.665   4.278 -0.1219 -0.2214  0.0740
 1382TIP3    H125637   3.843   6.701   4.361 -1.0514  0.4654  0.1438
 1382TIP3    H225638   3.887   6.669   4.219  0.2224  0.3686  0.5551
 1383TIP3   OH225639   1.181   6.038   1.992 -0.0738 -0.6018 -0.0246
 1383TIP3    H125640   1.250   6.086   1.947 -0.7978  0.9640  0.4882
 1383TIP3    H225641   1.206   6.041   2.084 -1.5215  1.2703  0.3617
 1384TIP3   OH225642   2.296   2.508  16.039 -0.3008 -0.3901 -0.4939
 1384TIP3    H125643   2.332   2.434  15.992 -0.1039  0.6895 -2.0571
 1384TIP3    H225644   2.213   2.526  15.996 -0.3542  0.3006 -0.1172
 1385TIP3   OH225645   0.200   1.335  11.891  0.1645  0.8517  0.0057
 1385TIP3    H125646   0.210   1.240  11.888  1.7691  1.0140 -0.1518
 1385TIP3    H225647   0.169   1.358  11.803 -0.5339  0.4469  0.1414
 1386TIP3   OH225648   4.338   3.412  16.003 -0.2053 -0.0352 -0.6308
 1386TIP3    H125649   4.426   3.416  15.965 -0.7764 -0.4694 -2.0503
 1386TIP3    H225650   4.295   3.340  15.956 -0.9671 -0.5500  0.8096
 1387TIP3   OH225651   2.925   6.475  12.429  0.7184  0.4607  0.4855
 1387TIP3    H125652   2.843   6.515  12.457  0.2735 -1.7997  2.6416
 1387TIP3    H225653   2.919   6.385  12.460  3.3914 -0.1372 -0.6185
 1388TIP3   OH225654   6.485   6.378  16.522  0.0275 -0.0363 -0.3047
 1388TIP3    H125655   6.413   6.428  16.484 -0.2396  0.5546  0.9565
 1388TIP3    H225656   6.446   6.295  16.549 -0.9697  1.4659  3.2776
 1389TIP3   OH225657   3.125   6.811   3.024 -0.0531  1.0465  0.3643
 1389TIP3    H125658   3.126   6.860   3.107 -0.6267  0.0200  0.9870
 1389TIP3    H225659   3.145   6.721   3.049  2.3843  1.1931 -0.9493
 1390TIP3   OH225660   0.555   4.165  16.500  0.1316  0.3718  0.2676
 1390TIP3    H125661   0.621   4.105  16.535  0.5843  0.0948 -1.0488
 1390TIP3    H225662   0.475   4.113  16.498  0.4665 -0.1333 -0.6279
 1391TIP3   OH225663   0.161   5.301   4.699 -0.4753  0.8726 -0.4148
 1391TIP3    H125664   0.113   5.315   4.781  0.3760 -2.4256  0.7329
 1391TIP3    H225665   0.244   5.347   4.712  0.6963 -1.6770  1.6597
 1392TIP3   OH225666   3.744   3.406   0.708 -0.2825  0.1405  0.0446
 1392TIP3    H125667   3.695   3.483   0.680 -2.7127 -0.3562  2.7562
 1392TIP3    H225668   3.783   3.372   0.627 -1.8813  2.3035 -1.6983
 1393TIP3   OH225669   3.593   2.353   3.583 -0.0778 -0.5427 -0.5051
 1393TIP3    H125670   3.549   2.408   3.647  2.3909  0.1308  0.6558
 1393TIP3    H225671   3.532   2.280   3.567 -1.6013  0.3878  1.0003
 1394TIP3   OH225672   6.662   2.491  12.760 -0.6149 -0.1923 -0.1756
 1394TIP3    H125673   6.748   2.487  12.802 -0.3384 -1.5503 -0.8605
 1394TIP3    H225674   6.605   2.532  12.825  0.6761  1.2703  0.0576
 1395TIP3   OH225675   0.729   6.398  13.381  0.4351 -0.0276 -0.3794
 1395TIP3    H125676   0.697   6.308  13.385 -0.4073  0.2829 -0.0891
 1395TIP3    H225677   0.767   6.413  13.468  0.1426  0.0608 -0.2680
 1396TIP3   OH225678   1.868   5.798  11.854  0.2717  0.3951  0.1957
 1396TIP3    H125679   1.882   5.708  11.826 -0.2661  0.1103  0.8238
 1396TIP3    H225680   1.777   5.800  11.883  0.1585  1.2393 -0.1881
 1397TIP3   OH225681   0.024   2.076   5.192 -0.3466  0.6331 -0.4189
 1397TIP3    H125682   0.024   2.171   5.182  1.1598  0.7762  0.8740
 1397TIP3    H225683   0.115   2.050   5.184 -0.4285 -0.4239  1.7081
 1398TIP3   OH225684   2.668   2.602   3.926 -0.3218  0.0031 -0.4313
 1398TIP3    H125685   2.703   2.574   4.010 -0.5646  1.5140  0.1928
 1398TIP3    H225686   2.584   2.643   3.948 -0.9062 -0.5774 -1.5331
 1399TIP3   OH225687   3.996   6.720  12.508 -0.1118 -0.1983  0.1118
 1399TIP3    H125688   3.958   6.766  12.583  0.9573  1.3897 -0.2814
 1399TIP3    H225689   4.068   6.669  12.545 -0.3829 -0.4121  0.3450
 1400TIP3   OH225690   4.250   3.295   5.372 -0.1737 -0.2232 -0.3628
 1400TIP3    H125691   4.249   3.200   5.363  0.2917 -0.5986  2.9961
 1400TIP3    H225692   4.343   3.319   5.369 -0.2659  0.0847 -0.8244
 1401TIP3   OH225693   4.252   6.257   0.879 -0.5594 -0.0477 -0.0399
 1401TIP3    H125694   4.200   6.333   0.903 -1.3512  0.0602 -2.0302
 1401TIP3    H225695   4.335   6.294   0.847 -0.5695 -0.0696 -0.0925
 1402TIP3   OH225696   4.060   2.690   4.810  0.0372 -0.0236 -0.1380
 1402TIP3    H125697   4.099   2.676   4.896  0.0779  0.7578 -0.0209
 1402TIP3    H225698   4.121   2.749   4.765 -0.5504  0.4763 -0.2900
 1403TIP3   OH225699   3.376   0.478   4.780 -0.1807 -0.0203  0.3521
 1403TIP3    H125700   3.345   0.444   4.697 -0.8161  0.2072  0.4933
 1403TIP3    H225701   3.467   0.448   4.786  0.7621  2.2785 -1.7002
 1404TIP3   OH225702   5.644   5.277  11.233  0.2071 -0.0122 -0.8641
 1404TIP3    H125703   5.712   5.306  11.294 -0.2281  0.9751 -0.8474
 1404TIP3    H225704   5.565   5.272  11.285 -0.2817  1.3501 -1.4556
 1405TIP3   OH225705   5.919   2.490   1.395 -0.2033 -0.3544 -0.0341
 1405TIP3    H125706   5.915   2.403   1.356  1.1556 -0.6197  0.3832
 1405TIP3    H225707   5.999   2.529   1.360 -0.2360  0.3116  0.6160
 1406TIP3   OH225708   4.565   3.483   4.690 -0.0585 -0.0137 -0.1754
 1406TIP3    H125709   4.565   3.404   4.744  0.5744  0.5487  0.6523
 1406TIP3    H225710   4.639   3.471   4.629 -0.3070 -0.3063 -0.4206
 1407TIP3   OH225711   2.850   0.044  12.327  0.1600 -0.7374 -0.5984
 1407TIP3    H125712   2.852  -0.017  12.254  1.6065 -2.0400  0.5077
 1407TIP3    H225713   2.910   0.114  12.302 -1.1208  0.0091 -1.6469
 1408TIP3   OH225714   4.427   4.689   3.758 -0.1926 -0.0393 -0.2347
 1408TIP3    H125715   4.375   4.617   3.723 -2.3710  1.0983  0.5783
 1408TIP3    H225716   4.462   4.657   3.841  0.8080 -0.9649 -1.0019
 1409TIP3   OH225717   4.265   0.691  15.963 -0.2239 -0.2916  0.0591
 1409TIP3    H125718   4.229   0.604  15.951 -0.6971 -0.4055  2.1565
 1409TIP3    H225719   4.359   0.678  15.972 -0.2922 -0.5752  0.3403
 1410TIP3   OH225720   4.142   1.864   0.793 -0.2614 -0.3094 -0.1894
 1410TIP3    H125721   4.116   1.783   0.836  0.4419 -0.4118  0.0411
 1410TIP3    H225722   4.067   1.887   0.738 -0.5448 -1.0003 -0.0913
 1411TIP3   OH225723   1.902   6.766  15.842 -0.0036  0.2517  0.3004
 1411TIP3    H125724   1.991   6.751  15.809  0.2830  2.0130  0.2119
 1411TIP3    H225725   1.846   6.718  15.782  0.8121  0.1632 -0.4038
 1412TIP3   OH225726   3.308   4.498  13.598 -0.0683 -0.0734 -0.7608
 1412TIP3    H125727   3.306   4.488  13.502  1.7356  1.0954 -0.9487
 1412TIP3    H225728   3.240   4.563  13.616  1.1027  1.3927 -1.5119
 1413TIP3   OH225729   3.538   3.310  15.007 -0.3477  0.3526  0.2203
 1413TIP3    H125730   3.480   3.355  15.069 -0.4755  1.8730 -1.0014
 1413TIP3    H225731   3.497   3.323  14.922  1.2647  0.5655 -0.5287
 1414TIP3   OH225732   4.258   6.036  16.228  0.0229  0.4544 -0.1325
 1414TIP3    H125733   4.325   6.020  16.161 -0.2831 -1.2348 -0.0623
 1414TIP3    H225734   4.295   6.107  16.281 -0.1966  2.5642 -2.6735
 1415TIP3   OH225735   3.082   1.889   0.321  0.3943 -0.4889 -0.1848
 1415TIP3    H125736   3.149   1.884   0.253 -1.7344 -0.7970 -2.3043
 1415TIP3    H225737   3.035   1.806   0.314 -0.9379  0.2009  0.4935
 1416TIP3   OH225738   6.433   4.806   4.933  0.2704 -0.5570 -0.0782
 1416TIP3    H125739   6.477   4.771   4.855 -0.0334 -1.5862  0.2000
 1416TIP3    H225740   6.340   4.798   4.913  0.1709 -2.1257  0.9295
 1417TIP3   OH225741   3.361   2.624   2.925  0.0547 -0.0223 -0.3742
 1417TIP3    H125742   3.364   2.720   2.930  1.0878 -0.0415 -0.4591
 1417TIP3    H225743   3.355   2.596   3.016  1.0255  0.0900 -0.2746
 1418TIP3   OH225744   3.816   3.571  13.543 -0.2686  0.0045 -0.2463
 1418TIP3    H125745   3.828   3.579  13.448 -0.4805  0.5861 -0.2278
 1418TIP3    H225746   3.729   3.533  13.553  0.4334 -1.6664 -0.3168
 1419TIP3   OH225747   4.390   3.994  13.215  0.9079 -0.1486  0.2112
 1419TIP3    H125748   4.472   3.956  13.186  0.5735 -0.0496 -0.8793
 1419TIP3    H225749   4.361   3.937  13.286  1.2907 -0.8942 -0.2324
 1420TIP3   OH225750   5.346   5.469  10.224  0.0912  0.0589  0.8203
 1420TIP3    H125751   5.255   5.439  10.233 -0.5395  0.7267 -2.6863
 1420TIP3    H225752   5.392   5.394  10.186  0.0713  1.0216 -1.1865
 1421TIP3   OH225753   1.621   1.430   0.016 -0.1763 -0.2920  0.3473
 1421TIP3    H125754   1.560   1.384   0.073  1.8986 -0.6006  2.3986
 1421TIP3    H225755   1.695   1.453   0.073 -0.0264  3.4092 -1.1677
 1422TIP3   OH225756   6.556   1.987   2.400 -0.3609  0.2369  0.6396
 1422TIP3    H125757   6.506   2.033   2.333  1.1379  0.7257 -0.1669
 1422TIP3    H225758   6.516   2.013   2.483 -1.5285  0.4879  0.0045
 1423TIP3   OH225759   0.404   4.352  12.339  0.3981  0.6675 -0.9606
 1423TIP3    H125760   0.435   4.361  12.429 -1.5078  1.7014 -0.3834
 1423TIP3    H225761   0.479   4.377  12.286  1.1094  1.4498  0.3740
 1424TIP3   OH225762   5.780   0.946   4.425  0.4672 -0.1340 -0.5927
 1424TIP3    H125763   5.715   0.944   4.496  2.5233 -0.7004  1.2978
 1424TIP3    H225764   5.837   1.019   4.447  1.3059 -0.5030 -1.5305
 1425TIP3   OH225765   1.037   5.355   2.708  0.0536 -0.0665 -0.6965
 1425TIP3    H125766   0.951   5.327   2.677  0.5929 -2.3915 -0.2587
 1425TIP3    H225767   1.028   5.357   2.803  1.1176 -2.8483 -0.4701
 1426TIP3   OH225768   2.186   4.075   0.250 -0.2563  0.0050 -0.1409
 1426TIP3    H125769   2.233   4.097   0.331  1.0470  0.0387 -0.8925
 1426TIP3    H225770   2.126   4.149   0.237 -1.1414 -0.4403  1.2817
 1427TIP3   OH225771   1.511   1.083  15.277  0.2657 -0.0377  1.0571
 1427TIP3    H125772   1.584   1.029  15.308  0.5789 -0.1325  0.1761
 1427TIP3    H225773   1.437   1.022  15.273 -0.2416  0.4065  3.3967
 1428TIP3   OH225774   3.323   4.406  12.300 -0.3876 -0.6560  0.4914
 1428TIP3    H125775   3.418   4.409  12.283 -0.1313 -1.7718  1.6741
 1428TIP3    H225776   3.307   4.316  12.329 -1.8741 -0.5609 -0.0265
 1429TIP3   OH225777   2.679   6.422   5.323  0.4994 -0.3826 -0.1229
 1429TIP3    H125778   2.760   6.453   5.365  1.2149  0.0746 -1.8038
 1429TIP3    H225779   2.658   6.341   5.369  0.7922  0.5446  1.6947
 1430TIP3   OH225780   1.384   3.782   5.625 -0.1362  0.2562 -0.5973
 1430TIP3    H125781   1.403   3.849   5.560 -0.9247  0.0402 -1.0550
 1430TIP3    H225782   1.305   3.739   5.594  2.3633 -3.3802 -2.2946
 1431TIP3   OH225783   1.805   0.355  17.283 -0.4958  0.1479  0.2080
 1431TIP3    H125784   1.889   0.365  17.328 -1.1323 -0.6740  1.6265
 1431TIP3    H225785   1.754   0.298  17.341 -1.6715 -0.1852 -1.1346
 1432TIP3   OH225786   5.929   1.792   1.046  0.2351  0.0803  0.0412
 1432TIP3    H125787   5.978   1.747   1.115  0.1350  0.6288  0.4759
 1432TIP3    H225788   5.838   1.767   1.061  0.5650 -2.6797 -2.0731
 1433TIP3   OH225789   2.219   1.981   6.713  0.3144  0.3049 -0.0796
 1433TIP3    H125790   2.278   1.907   6.721 -0.9485 -0.7650 -0.5484
 1433TIP3    H225791   2.138   1.952   6.754  0.0211  1.6687  0.3402
 1434TIP3   OH225792   5.253   5.635  14.900  0.1050  0.8989  0.0520
 1434TIP3    H125793   5.256   5.544  14.931 -0.8711  0.9158  0.1976
 1434TIP3    H225794   5.215   5.630  14.812  2.5218  0.8947 -1.0328
 1435TIP3   OH225795   1.581   3.625  12.026  0.1879  0.0600  0.3383
 1435TIP3    H125796   1.617   3.574  11.953  0.1879 -0.4860  0.7201
 1435TIP3    H225797   1.639   3.606  12.099  1.1691  1.9083  0.0703
 1436TIP3   OH225798   3.035   2.252  16.443  0.0158  0.2801  0.0979
 1436TIP3    H125799   3.106   2.199  16.481 -0.1250  0.1196  0.1385
 1436TIP3    H225800   3.013   2.208  16.361  0.5635  0.8334 -0.3475
 1437TIP3   OH225801   0.238   4.817   4.274 -0.6636 -0.2724  0.0541
 1437TIP3    H125802   0.169   4.787   4.215  0.5906 -1.1576 -1.0210
 1437TIP3    H225803   0.311   4.839   4.216  0.9529 -2.1147  1.3039
 1438TIP3   OH225804   6.699   0.102  16.824 -0.4637  0.0816 -0.9759
 1438TIP3    H125805   6.666   0.164  16.759 -0.6771 -0.0605 -1.0064
 1438TIP3    H225806   6.706   0.019  16.776  2.2611  0.6298 -1.6120
 1439TIP3   OH225807   3.626   5.449   1.201  0.0848  0.0431 -0.1154
 1439TIP3    H125808   3.558   5.420   1.140  1.1658  0.9228 -1.7782
 1439TIP3    H225809   3.700   5.391   1.182 -0.4320 -1.4464  2.2406
 1440TIP3   OH225810   1.058   3.947  11.086  0.0708 -0.6914 -0.7650
 1440TIP3    H125811   0.974   3.937  11.130 -0.0734  0.2947 -0.7957
 1440TIP3    H225812   1.060   3.877  11.020 -1.1878 -0.0660 -1.4856
 1441TIP3   OH225813   1.920   3.067  13.312  0.0545 -0.1306  0.0870
 1441TIP3    H125814   2.014   3.073  13.293  0.0178 -0.9874 -0.3865
 1441TIP3    H225815   1.915   3.075  13.407  0.4234  1.9577 -0.0370
 1442TIP3   OH225816   0.553   2.221  16.583 -0.1121  0.0004  0.5128
 1442TIP3    H125817   0.542   2.137  16.627 -0.5230  0.1951  0.7915
 1442TIP3    H225818   0.633   2.258  16.620  0.9245 -0.9608 -0.7503
 1443TIP3   OH225819   0.864   2.555   5.869  0.4615  0.6090  0.4710
 1443TIP3    H125820   0.825   2.533   5.953  0.8415 -2.0941  0.0002
 1443TIP3    H225821   0.930   2.622   5.890 -0.2193  0.7731  2.1462
 1444TIP3   OH225822   2.224   2.528   0.138  0.1213 -0.1439 -0.1990
 1444TIP3    H125823   2.137   2.545   0.100 -0.2396 -1.4916  0.0002
 1444TIP3    H225824   2.285   2.562   0.073 -0.5084 -1.7910 -1.6923
 1445TIP3   OH225825   0.115   5.630   4.544 -0.4718  0.2702 -0.0441
 1445TIP3    H125826   0.089   5.588   4.462 -2.0335 -1.8647  1.4958
 1445TIP3    H225827   0.207   5.605   4.556  0.1003  1.4758 -1.6241
 1446TIP3   OH225828   0.267   1.606   2.947  0.5748  0.3312 -0.0380
 1446TIP3    H125829   0.221   1.569   3.022 -0.0281  1.5862  0.2209
 1446TIP3    H225830   0.359   1.590   2.965  0.4967  1.4683  1.4361
 1447TIP3   OH225831   4.399   3.194   0.606  0.0615  0.5743  0.2631
 1447TIP3    H125832   4.384   3.173   0.698 -1.4354 -1.7051 -0.4542
 1447TIP3    H225833   4.458   3.125   0.575  1.5988  2.0594 -0.1830
 1448TIP3   OH225834   2.684   0.337   1.668  0.0691  0.0590 -0.0910
 1448TIP3    H125835   2.628   0.403   1.627  0.6650  0.6767  0.0745
 1448TIP3    H225836   2.655   0.254   1.629  0.3379  0.5865 -1.4668
 1449TIP3   OH225837   5.109   0.986   1.324  0.2152 -0.2997 -0.0622
 1449TIP3    H125838   5.174   0.924   1.291  0.9947  0.2031  0.5276
 1449TIP3    H225839   5.148   1.072   1.309 -1.1108  0.1017 -1.4256
 1450TIP3   OH225840   1.044   2.836  15.041 -1.1114 -0.4713 -0.6780
 1450TIP3    H125841   1.115   2.895  15.017 -0.7193 -0.8980 -0.5770
 1450TIP3    H225842   1.083   2.749  15.039 -0.7533 -0.4548  2.5876
 1451TIP3   OH225843   1.848   5.389  14.954 -0.1375  0.0196 -0.4199
 1451TIP3    H125844   1.866   5.313  14.898  1.3574  0.0395  0.0046
 1451TIP3    H225845   1.929   5.440  14.952 -1.2214  1.7415 -0.8945
 1452TIP3   OH225846   4.401   6.321   1.166 -0.6545 -0.2258  0.4961
 1452TIP3    H125847   4.375   6.242   1.120 -1.0533  0.1699  0.0424
 1452TIP3    H225848   4.486   6.344   1.128 -1.0721  0.2094 -0.1914
 1453TIP3   OH225849   1.021   3.520   6.529 -0.4389 -0.1482 -0.0717
 1453TIP3    H125850   1.048   3.550   6.616  0.4532  2.5840 -1.2156
 1453TIP3    H225851   0.956   3.453   6.545 -1.1360  1.1434  2.7145
 1454TIP3   OH225852   4.787   1.443  13.306 -0.0441 -0.6002  0.4488
 1454TIP3    H125853   4.711   1.500  13.308  0.7516  0.4456  2.6200
 1454TIP3    H225854   4.755   1.361  13.267 -1.8713  0.3571 -0.1004
 1455TIP3   OH225855   2.302   0.984  11.511  0.1263 -0.6896  0.1128
 1455TIP3    H125856   2.330   0.983  11.420  0.6678 -2.5123  0.2653
 1455TIP3    H225857   2.247   0.905  11.520 -0.1695 -0.3671  1.2804
 1456TIP3   OH225858   2.104   4.617   2.985  0.2058 -0.3088 -0.0005
 1456TIP3    H125859   2.095   4.712   2.998 -0.9825 -0.5652  1.0828
 1456TIP3    H225860   2.170   4.609   2.916  1.1385  1.2760  0.6750
 1457TIP3   OH225861   2.760   6.695  11.817  0.2838  0.1357 -0.0671
 1457TIP3    H125862   2.801   6.694  11.731 -2.7307  1.4340 -1.5828
 1457TIP3    H225863   2.714   6.611  11.823 -0.8889  0.7404 -0.4433
 1458TIP3   OH225864   1.407   2.704   5.118 -0.0345 -0.0875  0.3555
 1458TIP3    H125865   1.337   2.767   5.101  0.1597 -0.1397 -0.7029
 1458TIP3    H225866   1.363   2.628   5.155 -0.5422 -0.1366 -0.3449
 1459TIP3   OH225867   1.752   1.496   4.070  0.0319  0.0914  0.5143
 1459TIP3    H125868   1.679   1.497   4.133  1.4286  0.7274  2.1815
 1459TIP3    H225869   1.785   1.406   4.073  0.8393  0.4032  1.6287
 1460TIP3   OH225870   5.666   4.524   5.812  0.3872 -0.2864 -0.0180
 1460TIP3    H125871   5.617   4.530   5.730  1.0016  0.6124 -0.3233
 1460TIP3    H225872   5.747   4.479   5.788 -0.1804 -1.5792  0.4439
 1461TIP3   OH225873   1.077   1.886   1.297  0.8921  0.4474 -0.2134
 1461TIP3    H125874   1.031   1.816   1.251 -1.5508  1.0091  1.2837
 1461TIP3    H225875   1.089   1.852   1.386  1.6809  1.0571 -0.0811
 1462TIP3   OH225876   0.313   1.156  15.131  0.5308 -0.0731  0.3081
 1462TIP3    H125877   0.255   1.205  15.073  0.7643 -1.3419 -1.0241
 1462TIP3    H225878   0.335   1.218  15.200  0.1759  1.4366 -0.8972
 1463TIP3   OH225879   3.701   4.240  17.067 -0.0779 -0.4295 -0.0067
 1463TIP3    H125880   3.719   4.255  16.975  0.0519  0.6356  0.1917
 1463TIP3    H225881   3.679   4.147  17.072 -1.2236 -0.2418 -1.2858
 1464TIP3   OH225882   6.819   2.947   4.222 -0.2648 -0.0613 -1.0245
 1464TIP3    H125883   6.799   2.906   4.137  1.7778  2.7501 -2.9634
 1464TIP3    H225884   6.755   3.018   4.229 -0.1596 -0.0332 -0.3936
 1465TIP3   OH225885   6.394   5.139  16.101 -0.2290  0.3091 -0.6752
 1465TIP3    H125886   6.361   5.182  16.180 -0.5304  0.1757 -0.7318
 1465TIP3    H225887   6.467   5.085  16.132 -0.6780 -0.1456 -0.4150
 1466TIP3   OH225888   4.153   4.243  12.339  0.3985  0.1619 -0.1736
 1466TIP3    H125889   4.236   4.237  12.387 -0.3456  0.4880  1.2052
 1466TIP3    H225890   4.096   4.179  12.382 -0.8982  1.8504  0.7100
 1467TIP3   OH225891   5.210   5.063   6.521  0.1362  0.3072 -0.5110
 1467TIP3    H125892   5.203   4.967   6.523  0.0037  0.3271  0.0274
 1467TIP3    H225893   5.136   5.093   6.574  0.3254  0.7023 -0.4746
 1468TIP3   OH225894   4.230   0.220   3.360 -0.0126 -0.1676 -0.0022
 1468TIP3    H125895   4.232   0.145   3.419  0.1850  0.3864  0.6980
 1468TIP3    H225896   4.170   0.194   3.290  1.5667 -1.7464 -0.8009
 1469TIP3   OH225897   5.117   0.918  11.953  0.2076 -0.0048 -0.2629
 1469TIP3    H125898   5.163   0.986  11.904  2.0326 -2.4680 -2.1190
 1469TIP3    H225899   5.043   0.894  11.897 -0.6516  0.7207  0.5603
 1470TIP3   OH225900   1.758   1.976  14.589  0.1773  0.3597 -0.3905
 1470TIP3    H125901   1.722   2.016  14.509 -1.7832 -1.3754 -0.4209
 1470TIP3    H225902   1.821   1.911  14.557  1.7193  1.8571 -0.4108
 1471TIP3   OH225903   3.734   0.500  11.515  0.6222 -0.5485 -0.0135
 1471TIP3    H125904   3.719   0.456  11.432  0.7726 -0.3411 -0.1520
 1471TIP3    H225905   3.647   0.510  11.553  0.4454  0.3001 -0.6276
 1472TIP3   OH225906   4.345   1.667   4.902  0.5277  0.6158  0.6930
 1472TIP3    H125907   4.318   1.759   4.894 -0.2183  0.3267 -0.3346
 1472TIP3    H225908   4.430   1.663   4.857  0.6589  0.8461  0.9207
 1473TIP3   OH225909   6.732   0.848  11.113 -0.6694 -0.2022  0.5792
 1473TIP3    H125910   6.806   0.788  11.104 -0.7869 -0.4101  1.0177
 1473TIP3    H225911   6.655   0.792  11.117 -0.8907  0.0321 -0.2877
 1474TIP3   OH225912   1.529   4.286   4.485  0.1924  0.3252 -0.8751
 1474TIP3    H125913   1.488   4.200   4.491 -0.2891  0.5606 -0.7734
 1474TIP3    H225914   1.606   4.272   4.429  0.2671 -0.2240 -0.6363
 1475TIP3   OH225915   3.535   6.015  15.586  0.1602  0.5018 -0.7426
 1475TIP3    H125916   3.557   6.020  15.679  1.2968  0.9203 -1.0167
 1475TIP3    H225917   3.441   5.997  15.584  0.7170 -3.1694  0.5554
 1476TIP3   OH225918   2.738   1.213   3.185  0.1188 -0.9643  0.4619
 1476TIP3    H125919   2.723   1.149   3.115  1.3536 -1.0585  0.2753
 1476TIP3    H225920   2.793   1.167   3.248  2.5367  0.4693 -0.5337
 1477TIP3   OH225921   1.105   1.009  10.954  0.4426  0.1600 -0.4700
 1477TIP3    H125922   1.170   1.007  10.885  0.0813 -1.8047 -0.7598
 1477TIP3    H225923   1.031   0.959  10.920  0.1843 -0.6632  1.2563
 1478TIP3   OH225924   0.929   4.630  11.350  0.2430 -0.1888 -0.2270
 1478TIP3    H125925   0.974   4.677  11.420 -1.0113  0.4207  0.1689
 1478TIP3    H225926   0.984   4.552  11.335  1.7854  0.8748 -0.2123
 1479TIP3   OH225927   4.036   1.871   0.190  0.3856  0.9277  0.1168
 1479TIP3    H125928   4.010   1.956   0.155  1.8039  1.8539  1.2725
 1479TIP3    H225929   4.124   1.885   0.225  0.4135 -0.8736  0.8207
 1480TIP3   OH225930   5.826   1.972   6.289  0.5683  0.6468 -0.8100
 1480TIP3    H125931   5.781   1.889   6.271 -0.1615  0.9344 -0.3042
 1480TIP3    H225932   5.765   2.039   6.258  1.0440  1.0045 -0.9692
 1481TIP3   OH225933   4.530   4.642  15.723 -0.5377  0.6223  0.3344
 1481TIP3    H125934   4.575   4.658  15.640 -0.8931  0.7435  0.1607
 1481TIP3    H225935   4.576   4.568  15.762 -1.6842 -0.8463 -0.9931
 1482TIP3   OH225936   1.699   5.043   2.737  0.4971  0.0616  0.2624
 1482TIP3    H125937   1.748   5.020   2.815 -0.2088 -1.5805  0.2271
 1482TIP3    H225938   1.619   4.992   2.742  0.5385 -0.2497 -1.6409
 1483TIP3   OH225939   0.195   4.038   3.125  0.0722  0.3138 -0.1746
 1483TIP3    H125940   0.137   4.097   3.174 -1.2790 -0.0424 -1.3063
 1483TIP3    H225941   0.197   4.075   3.037  3.6805  1.7905  0.4539
 1484TIP3   OH225942   4.796   5.148  16.225  0.1623 -0.6097 -0.4632
 1484TIP3    H125943   4.707   5.121  16.249  0.3141 -1.3222 -0.7096
 1484TIP3    H225944   4.804   5.125  16.133 -0.1879  1.5182 -1.0485
 1485TIP3   OH225945   2.038   5.368  13.175 -0.2947  0.2076 -0.4273
 1485TIP3    H125946   1.980   5.349  13.249  0.8322  1.2336  0.7452
 1485TIP3    H225947   2.068   5.282  13.145 -3.2883 -0.4165 -1.8022
 1486TIP3   OH225948   3.767   1.123   4.478  0.3020  0.1676 -0.2292
 1486TIP3    H125949   3.806   1.134   4.565  0.9457 -1.2020 -0.3339
 1486TIP3    H225950   3.832   1.074   4.428 -1.0053 -1.0208 -0.7999
 1487TIP3   OH225951   4.564   5.209   4.894 -0.5001  0.2669 -0.0288
 1487TIP3    H125952   4.575   5.143   4.963 -0.2869  0.5490  0.2049
 1487TIP3    H225953   4.602   5.168   4.816  1.0344  0.7092  0.4627
 1488TIP3   OH225954   4.283   1.070  16.465 -0.0873 -0.2189  0.6683
 1488TIP3    H125955   4.230   1.149  16.478 -0.0521 -0.4472  2.2824
 1488TIP3    H225956   4.319   1.080  16.377 -0.2228  1.4762  0.7884
 1489TIP3   OH225957   0.860   6.431   6.083  0.9852 -0.5528  0.1405
 1489TIP3    H125958   0.839   6.485   6.159 -1.0006 -0.7219 -0.2613
 1489TIP3    H225959   0.930   6.374   6.113  0.7482 -0.0956  1.6053
 1490TIP3   OH225960   5.115   0.565  17.194 -0.1978  0.0414  0.4145
 1490TIP3    H125961   5.202   0.541  17.226  0.5892  2.3629  0.1797
 1490TIP3    H225962   5.074   0.611  17.268 -0.6743  0.1784  0.0688
 1491TIP3   OH225963   6.653   6.793  13.668  0.4832  0.6436 -0.1718
 1491TIP3    H125964   6.632   6.700  13.667 -2.9293  1.3416  0.5570
 1491TIP3    H225965   6.638   6.822  13.578 -1.6465  1.0908  0.2939
 1492TIP3   OH225966   4.362   0.458   0.862  0.2473  0.6349 -0.0221
 1492TIP3    H125967   4.379   0.456   0.768  0.2219  1.8661 -0.0567
 1492TIP3    H225968   4.408   0.381   0.896 -1.0428 -0.6927 -1.2451
 1493TIP3   OH225969   3.822   1.789   2.214  0.1866  0.4752  0.4323
 1493TIP3    H125970   3.912   1.821   2.210 -0.1569  1.3016 -0.9010
 1493TIP3    H225971   3.830   1.694   2.207  0.9738  0.5185  0.6468
 1494TIP3   OH225972   5.885   5.600  11.298  0.3556  0.4330  0.7286
 1494TIP3    H125973   5.864   5.523  11.351  0.6935  0.6827  1.2266
 1494TIP3    H225974   5.801   5.645  11.286  0.3682  0.6973  1.5643
 1495TIP3   OH225975   5.279   1.566  14.518 -0.1786  0.3819  0.5891
 1495TIP3    H125976   5.218   1.544  14.448 -2.4014 -0.8142  2.8072
 1495TIP3    H225977   5.223   1.590  14.592  2.0522  0.0737  2.4462
 1496TIP3   OH225978   1.850   0.040   1.848  0.3841 -0.2651 -0.0121
 1496TIP3    H125979   1.914  -0.028   1.825  0.5726 -0.1709  0.2287
 1496TIP3    H225980   1.868   0.059   1.940  0.5813  0.3782 -0.1806
 1497TIP3   OH225981   6.349   5.577  12.770 -0.5686 -0.4195  0.4788
 1497TIP3    H125982   6.443   5.576  12.786 -0.3475 -0.7585 -0.7794
 1497TIP3    H225983   6.325   5.485  12.758 -0.6895 -0.2002 -1.1491
 1498TIP3   OH225984   0.614   6.698   1.090 -0.4357  0.5581  0.3067
 1498TIP3    H125985   0.574   6.782   1.071 -1.3831  0.3044  1.0945
 1498TIP3    H225986   0.591   6.681   1.182  1.1062  0.1870  0.6468
 1499TIP3   OH225987   3.947   5.711  13.250  0.1403 -0.1340  0.1543
 1499TIP3    H125988   3.944   5.802  13.222  0.5811  0.0604  0.7312
 1499TIP3    H225989   4.040   5.693  13.265  0.0220 -0.5703  0.3897
 1500TIP3   OH225990   3.913   0.712   5.692 -0.7221 -0.0639  0.3272
 1500TIP3    H125991   3.930   0.760   5.773 -0.1852  0.7131 -0.2377
 1500TIP3    H225992   3.943   0.623   5.711  2.4282  0.8532 -0.0489
 1501TIP3   OH225993   2.256   2.919  12.492  0.2664  0.1678  0.2153
 1501TIP3    H125994   2.234   2.885  12.406  2.1409  1.2187 -0.7142
 1501TIP3    H225995   2.254   3.014  12.481 -1.1370  0.3522  1.7832
 1502TIP3   OH225996   1.577   2.628   2.121 -0.5812  0.0239  0.4918
 1502TIP3    H125997   1.486   2.659   2.126  0.0066  2.0128 -0.3644
 1502TIP3    H225998   1.620   2.669   2.197 -0.0445  0.3993 -0.0115
 1503TIP3   OH225999   5.170   0.117   0.926 -0.3363  0.6405 -0.0928
 1503TIP3    H126000   5.260   0.146   0.907 -0.1685 -0.6747 -1.3986
 1503TIP3    H226001   5.173   0.089   1.017  0.4624  1.0803  0.0230
 1504TIP3   OH226002   5.483   0.871   6.528 -0.1851 -0.3357  0.0587
 1504TIP3    H126003   5.495   0.813   6.453 -0.0969  0.2177 -0.3575
 1504TIP3    H226004   5.475   0.812   6.603  0.0914 -0.8793 -0.3363
 1505TIP3   OH226005   5.952   0.263   0.558  0.2134 -0.0006 -0.0289
 1505TIP3    H126006   5.899   0.205   0.612  0.1947  1.7023  1.8266
 1505TIP3    H226007   6.023   0.293   0.616 -0.1602  2.3442 -0.7208
 1506TIP3   OH226008   1.197   3.366   0.890 -0.8229 -0.4226  0.3216
 1506TIP3    H126009   1.171   3.275   0.881 -0.2078 -0.5405 -0.3588
 1506TIP3    H226010   1.256   3.381   0.816  0.8994 -0.1378  1.7242
 1507TIP3   OH226011   0.163   3.485   5.362 -0.3363  0.5306 -0.1008
 1507TIP3    H126012   0.210   3.413   5.319  0.9842  1.2484  0.1203
 1507TIP3    H226013   0.106   3.521   5.294 -1.3143 -0.9601 -0.1119
 1508TIP3   OH226014   2.095   4.788   1.637  0.3731  0.4869  0.0734
 1508TIP3    H126015   2.160   4.832   1.693 -0.2624 -1.2202  2.2142
 1508TIP3    H226016   2.141   4.710   1.605 -0.2641 -0.1568  0.7199
 1509TIP3   OH226017   6.770   5.018  14.538  0.2585 -0.1698  0.1376
 1509TIP3    H126018   6.813   4.994  14.620  0.2931  0.8712  0.4345
 1509TIP3    H226019   6.814   4.965  14.472  0.1283 -1.1351  0.8081
 1510TIP3   OH226020   4.310   0.669   1.036 -0.2945  0.0269 -0.0278
 1510TIP3    H126021   4.215   0.652   1.033 -0.4535  0.7319  0.8768
 1510TIP3    H226022   4.345   0.620   0.961 -1.1584 -1.5793  0.5973
 1511TIP3   OH226023   5.322   3.923   1.122  0.2522 -0.2007 -0.3824
 1511TIP3    H126024   5.300   4.013   1.097 -0.9561 -0.6124 -0.8465
 1511TIP3    H226025   5.303   3.918   1.215 -0.8374 -0.3178 -0.6107
 1512TIP3   OH226026   0.792   0.019  13.527  0.3962 -0.0412 -0.0220
 1512TIP3    H126027   0.785  -0.010  13.617 -0.4605  0.4886  0.0858
 1512TIP3    H226028   0.710  -0.008  13.486 -0.4291  2.1563  0.0778
 1513TIP3   OH226029   5.636   6.611   5.385  0.0189  0.4258 -0.0531
 1513TIP3    H126030   5.664   6.565   5.464 -1.1598 -1.0790 -0.4895
 1513TIP3    H226031   5.698   6.583   5.317  0.3144  0.7927  0.0651
 1514TIP3   OH226032   4.954   6.648   4.306 -0.0959 -0.2836  0.0489
 1514TIP3    H126033   4.995   6.681   4.225  0.0177 -1.4804 -0.3894
 1514TIP3    H226034   5.014   6.675   4.375  0.0863  0.2802 -0.3190
 1515TIP3   OH226035   4.397   4.000  16.109 -0.2555  0.0101 -0.1036
 1515TIP3    H126036   4.342   3.933  16.149 -0.0119  0.3737  0.8582
 1515TIP3    H226037   4.486   3.978  16.136 -0.1450  0.5560 -0.0124
 1516TIP3   OH226038   4.004   0.867  16.276 -0.7359  0.4816  0.5490
 1516TIP3    H126039   4.019   0.960  16.258 -1.4707  0.8132  1.6209
 1516TIP3    H226040   3.945   0.866  16.351 -2.0576 -0.8512 -0.4835
 1517TIP3   OH226041   6.488   0.029  17.169  0.2505 -0.1704  0.0582
 1517TIP3    H126042   6.395   0.025  17.192  0.2327  0.6374  0.1342
 1517TIP3    H226043   6.524  -0.053  17.204 -0.2512 -0.0736  0.8410
 1518TIP3   OH226044   2.619   2.121   4.156  0.1845  0.3921  0.0703
 1518TIP3    H126045   2.559   2.166   4.216  0.3049  1.5361 -0.6526
 1518TIP3    H226046   2.679   2.074   4.214 -1.4766 -0.8675  0.8030
 1519TIP3   OH226047   4.613   3.734   5.328  0.3331 -0.1872 -0.2572
 1519TIP3    H126048   4.643   3.657   5.279  0.4078 -1.8618  2.2968
 1519TIP3    H226049   4.672   3.739   5.403 -1.2227  0.8968  0.9152
 1520TIP3   OH226050   0.891   5.504  12.298 -0.0384 -0.5631 -0.6124
 1520TIP3    H126051   0.904   5.481  12.390 -0.8140 -0.5713 -0.5024
 1520TIP3    H226052   0.979   5.526  12.266 -0.1200  2.0999  0.8324
 1521TIP3   OH226053   3.944   1.522  12.147 -0.1645 -0.1485 -0.0115
 1521TIP3    H126054   3.954   1.525  12.242 -0.7010 -1.8294  0.1112
 1521TIP3    H226055   3.998   1.594  12.115  0.4636  0.0850  1.5288
 1522TIP3   OH226056   1.100   0.105   1.295 -0.2290 -0.0612 -0.6391
 1522TIP3    H126057   1.106   0.039   1.364  2.7305 -0.4940 -1.2443
 1522TIP3    H226058   1.119   0.188   1.340 -2.4640  0.2051 -0.1615
 1523TIP3   OH226059   1.237   2.119   2.539 -0.0339 -0.2687 -0.0296
 1523TIP3    H126060   1.243   2.211   2.516  0.7385 -0.2204  0.3278
 1523TIP3    H226061   1.207   2.118   2.630  0.9892 -0.3238  0.3225
 1524TIP3   OH226062   0.123   6.460   0.106  0.1932 -0.4495  0.4031
 1524TIP3    H126063   0.056   6.407   0.063 -0.0024  1.0639 -1.2045
 1524TIP3    H226064   0.204   6.436   0.062  0.8062 -2.5590  2.6052
 1525TIP3   OH226065   0.213   1.866  13.829  0.0719  0.2092 -0.4067
 1525TIP3    H126066   0.169   1.808  13.767  0.4624 -0.8373  0.2957
 1525TIP3    H226067   0.141   1.900  13.884 -0.2291  0.8755 -1.1872
 1526TIP3   OH226068   3.571   0.085  15.057 -0.2956  0.5577 -0.1915
 1526TIP3    H126069   3.538   0.036  14.982  1.7240 -0.9769 -0.1351
 1526TIP3    H226070   3.609   0.018  15.114  0.1528  1.9290  1.1509
 1527TIP3   OH226071   3.824   5.216  12.122  0.4171  0.3306 -0.2002
 1527TIP3    H126072   3.760   5.196  12.191 -0.5998 -0.2112 -1.2755
 1527TIP3    H226073   3.905   5.233  12.168 -0.6411  1.5875  1.2506
 1528TIP3   OH226074   3.068   3.492   2.921 -0.4126  0.1654 -0.5080
 1528TIP3    H126075   2.986   3.496   2.872 -0.4092  2.2240 -0.3783
 1528TIP3    H226076   3.049   3.538   3.003  0.2416 -1.2509  0.4542
 1529TIP3   OH226077   3.900   4.479  12.384  0.3983  0.0140 -0.1491
 1529TIP3    H126078   3.902   4.388  12.412  1.0505 -0.0669 -0.4524
 1529TIP3    H226079   3.813   4.511  12.411  0.3589 -0.5516  0.3956
 1530TIP3   OH226080   5.840   1.740   3.936 -0.4033 -0.8211  0.2367
 1530TIP3    H126081   5.933   1.754   3.952 -0.0660 -0.9050 -1.5264
 1530TIP3    H226082   5.798   1.752   4.021  1.0663  0.5812  0.7763
 1531TIP3   OH226083   4.650   6.400   1.093  0.3475 -0.2750  0.1261
 1531TIP3    H126084   4.727   6.456   1.093  0.9111 -1.0366 -0.1377
 1531TIP3    H226085   4.676   6.323   1.042 -0.5637 -0.5686  0.0836
 1532TIP3   OH226086   6.419   0.275   3.266  0.2281 -0.6335  0.0902
 1532TIP3    H126087   6.396   0.252   3.176  0.3796  0.2492 -0.1708
 1532TIP3    H226088   6.514   0.279   3.266  0.1342  2.1136 -0.3871
 1533TIP3   OH226089   2.051   4.273   0.878 -0.3213  0.4696  0.2979
 1533TIP3    H126090   2.081   4.227   0.957  0.5024 -0.0787 -0.3308
 1533TIP3    H226091   2.131   4.304   0.836 -0.8499  2.0658  0.4545
 1534TIP3   OH226092   1.464   6.514  13.815  0.5752 -0.3789 -0.3986
 1534TIP3    H126093   1.479   6.419  13.809  1.0413 -0.3303 -0.0258
 1534TIP3    H226094   1.466   6.532  13.909  0.3127 -0.0258 -0.4634
 1535TIP3   OH226095   2.978   2.761  17.012  0.4319  0.1618  0.3539
 1535TIP3    H126096   3.034   2.765  16.934  0.4339 -0.4177  0.3268
 1535TIP3    H226097   2.941   2.849  17.019 -0.0271  0.0560 -0.6409
 1536TIP3   OH226098   5.991   2.153   5.522 -0.2263 -0.0245  0.7464
 1536TIP3    H126099   6.068   2.134   5.576  0.5951 -0.5995 -0.6127
 1536TIP3    H226100   5.983   2.078   5.463 -1.5349  0.2651  0.5320
 1537TIP3   OH226101   4.907   2.496  14.980  0.7354  0.7948 -0.6591
 1537TIP3    H126102   4.931   2.410  15.014  1.0573  1.3784  0.6043
 1537TIP3    H226103   4.989   2.545  14.978  0.1902  1.7808  0.7083
 1538TIP3   OH226104   3.847   0.733  13.901  0.4677 -0.4295 -0.1920
 1538TIP3    H126105   3.877   0.663  13.842  0.8649 -0.2449 -0.2105
 1538TIP3    H226106   3.928   0.773  13.933  0.2488 -0.4268  0.3553
 1539TIP3   OH226107   3.479   3.022  16.299  0.1731  0.6306  0.4199
 1539TIP3    H126108   3.555   2.982  16.256 -0.2642 -1.4096  1.4600
 1539TIP3    H226109   3.404   2.976  16.262 -0.3007 -0.0335  2.1705
 1540TIP3   OH226110   5.765   0.977   4.038 -0.4014 -0.1604 -0.2832
 1540TIP3    H126111   5.790   0.885   4.050  1.7244  0.0277 -2.8342
 1540TIP3    H226112   5.669   0.976   4.038 -0.4129 -2.2563  0.4706
 1541TIP3   OH226113   5.368   1.162  16.750 -0.3170 -0.1253  0.2473
 1541TIP3    H126114   5.283   1.123  16.734  0.5094 -1.7950 -0.1336
 1541TIP3    H226115   5.409   1.105  16.816  1.4494 -0.7349 -1.3354
 1542TIP3   OH226116   2.078   5.779   4.054 -0.0862  0.3041 -0.0087
 1542TIP3    H126117   2.037   5.751   4.136  0.0793 -1.9787 -0.6939
 1542TIP3    H226118   2.062   5.707   3.993  0.7234  1.5220 -1.6897
 1543TIP3   OH226119   5.071   1.179   1.025  0.6472 -0.6119 -0.6801
 1543TIP3    H126120   5.063   1.238   1.101 -0.0799  0.0614 -1.2669
 1543TIP3    H226121   4.990   1.192   0.976  1.7886  0.1461 -2.4165
 1544TIP3   OH226122   5.554   6.741  12.288 -0.1422 -0.8296 -0.2063
 1544TIP3    H126123   5.611   6.807  12.249  0.7434 -1.3480  0.1800
 1544TIP3    H226124   5.472   6.787  12.306  0.7476  0.3760  0.8189
 1545TIP3   OH226125   5.105   1.580   5.127  0.0291 -0.0893  0.3937
 1545TIP3    H126126   5.157   1.502   5.144 -0.6417 -0.5061  0.5352
 1545TIP3    H226127   5.132   1.642   5.194  0.6204 -0.1740  0.2342
 1546TIP3   OH226128   0.426   4.990   0.418 -0.6817 -0.0221  0.2503
 1546TIP3    H126129   0.430   4.894   0.420  0.5778  0.0101 -0.4603
 1546TIP3    H226130   0.443   5.017   0.508 -3.3071 -0.5167  0.9513
 1547TIP3   OH226131   5.570   6.435   3.629 -0.0564  0.4736 -0.9887
 1547TIP3    H126132   5.535   6.523   3.640 -0.7348  0.1350 -0.2861
 1547TIP3    H226133   5.497   6.378   3.653  1.5601 -0.2639  2.4306
 1548TIP3   OH226134   6.654   2.107   3.495 -0.3041  0.3386  0.3340
 1548TIP3    H126135   6.743   2.082   3.520 -0.7998 -1.8966  0.0190
 1548TIP3    H226136   6.609   2.122   3.578  0.3565  1.4203  0.4961
 1549TIP3   OH226137   4.224   4.479  15.551 -0.3320  0.2309  0.6632
 1549TIP3    H126138   4.180   4.564  15.557  3.0877  2.0215  2.3097
 1549TIP3    H226139   4.308   4.499  15.509  0.0761 -2.5515  0.0775
 1550TIP3   OH226140   6.195   1.998  11.607 -0.2773  0.8035  0.2184
 1550TIP3    H126141   6.205   1.933  11.676 -0.3539  0.3338 -0.2126
 1550TIP3    H226142   6.264   1.977  11.544  0.0035  1.4318  0.3034
 1551TIP3   OH226143   2.921   6.512   5.430  0.0028  0.4320 -1.0143
 1551TIP3    H126144   2.958   6.432   5.393 -0.3666  1.0122 -2.6930
 1551TIP3    H226145   2.997   6.563   5.457  0.2704 -0.1096 -0.7308
 1552TIP3   OH226146   2.976   3.837  11.538 -0.0742  0.2609 -0.9458
 1552TIP3    H126147   2.943   3.920  11.573 -1.0112 -0.6627  0.4134
 1552TIP3    H226148   3.052   3.817  11.592  0.9348  0.8537 -2.1064
 1553TIP3   OH226149   1.545   2.990   2.887  0.1920 -0.0867 -0.0631
 1553TIP3    H126150   1.618   2.937   2.855  0.3368 -0.1146  0.3061
 1553TIP3    H226151   1.516   3.041   2.811  0.2511 -0.4677 -0.3426
 1554TIP3   OH226152   3.680   4.858  14.600 -0.1136  0.0326  0.0550
 1554TIP3    H126153   3.661   4.951  14.611 -0.5079 -0.2279  1.8381
 1554TIP3    H226154   3.771   4.855  14.573 -0.2300  0.9632 -0.4576
 1555TIP3   OH226155   0.583   0.463  17.279 -0.2946 -0.1208  0.2991
 1555TIP3    H126156   0.677   0.454  17.262 -0.0729  1.0283  0.8893
 1555TIP3    H226157   0.566   0.402  17.351  0.2033  0.4163  0.8784
 1556TIP3   OH226158   1.758   0.151  13.007  0.0516 -0.0781 -0.4158
 1556TIP3    H126159   1.773   0.081  13.070 -0.9155  0.5174  0.4964
 1556TIP3    H226160   1.845   0.177  12.978  0.5251 -0.2537  0.8059
 1557TIP3   OH226161   1.960   3.658   5.147 -0.4966  0.1614  0.1912
 1557TIP3    H126162   2.036   3.665   5.204  0.4303  1.5147 -1.1557
 1557TIP3    H226163   1.993   3.615   5.068 -1.7455 -1.6405  0.6262
 1558TIP3   OH226164   6.462   4.977  16.475 -0.7582 -0.6057  0.3148
 1558TIP3    H126165   6.537   4.930  16.512 -1.2647 -1.1883  0.6023
 1558TIP3    H226166   6.436   5.038  16.544 -1.3003 -1.2470  0.6889
 1559TIP3   OH226167   0.451   6.614   5.253  0.4450 -0.3905 -0.6196
 1559TIP3    H126168   0.426   6.681   5.316 -1.2719 -2.3510  0.8559
 1559TIP3    H226169   0.378   6.608   5.192 -0.6829 -2.7608  0.8669
 1560TIP3   OH226170   0.909   0.463  15.825 -0.2669 -0.1817  0.1019
 1560TIP3    H126171   0.890   0.372  15.802  0.1857 -0.1769 -0.2869
 1560TIP3    H226172   0.825   0.498  15.855 -0.7043 -0.3997 -0.8424
 1561TIP3   OH226173   2.307   5.408   4.772  0.0260  0.1152 -0.6549
 1561TIP3    H126174   2.376   5.343   4.775  0.5669  0.7267  0.4154
 1561TIP3    H226175   2.246   5.375   4.706  1.1343 -0.6153 -1.3320
 1562TIP3   OH226176   5.586   4.728  12.103 -0.4952 -0.0999 -0.2957
 1562TIP3    H126177   5.664   4.774  12.071  0.0890  0.3414  1.7132
 1562TIP3    H226178   5.572   4.658  12.039  0.4427  0.9474 -1.6860
 1563TIP3   OH226179   5.755   0.370   2.430  0.1839 -0.5767  0.1565
 1563TIP3    H126180   5.728   0.340   2.517  0.4039 -1.5636 -0.1088
 1563TIP3    H226181   5.674   0.394   2.386  0.0207 -0.6168  0.4387
 1564TIP3   OH226182   2.619   0.595   4.875 -0.0789  0.7596  0.0729
 1564TIP3    H126183   2.532   0.631   4.887 -1.5585 -1.1667 -3.8913
 1564TIP3    H226184   2.607   0.500   4.882  2.3169  0.5776  2.5835
 1565TIP3   OH226185   6.810   3.771   5.869  0.2121 -0.1349 -0.1331
 1565TIP3    H126186   6.773   3.855   5.898  0.2474 -0.3226  0.4615
 1565TIP3    H226187   6.809   3.776   5.773  0.0106  0.4560 -0.1014
 1566TIP3   OH226188   5.165   1.117   4.563  0.3900 -0.2432 -0.1203
 1566TIP3    H126189   5.138   1.026   4.571  0.5927 -0.2375  0.7585
 1566TIP3    H226190   5.257   1.117   4.589  0.0481  0.4058  1.1324
 1567TIP3   OH226191   3.540   6.776   1.790  0.3195 -0.0852 -0.8151
 1567TIP3    H126192   3.634   6.793   1.786  0.4240 -0.1494  1.2023
 1567TIP3    H226193   3.528   6.695   1.741  1.1299  0.5919 -2.1699
 1568TIP3   OH226194   3.560   2.454   4.230 -0.1021  0.0459 -0.2831
 1568TIP3    H126195   3.592   2.449   4.140 -2.4337 -1.6927 -1.0387
 1568TIP3    H226196   3.622   2.401   4.280  1.1855  0.9931 -0.8213
 1569TIP3   OH226197   2.929   4.321   1.024  0.0073  0.4297 -1.0546
 1569TIP3    H126198   2.845   4.287   1.057  0.1427  1.6700  0.6522
 1569TIP3    H226199   2.905   4.377   0.951 -0.7001  0.9491 -0.4384
 1570TIP3   OH226200   2.994   0.020   6.517  0.4049  0.0938  0.4129
 1570TIP3    H126201   2.938   0.036   6.593  1.3473  1.3098  0.8716
 1570TIP3    H226202   3.083   0.032   6.550  0.8983 -0.9721 -0.5096
 1571TIP3   OH226203   1.038   4.591  17.015  0.2873  0.4794 -0.6711
 1571TIP3    H126204   1.047   4.497  17.032  0.6515  0.5330 -0.5495
 1571TIP3    H226205   1.102   4.632  17.074  1.5608  0.6714 -2.1253
 1572TIP3   OH226206   2.307   0.760  15.205 -0.5447 -0.0552  0.5588
 1572TIP3    H126207   2.312   0.696  15.276  0.3570 -0.8915 -0.2496
 1572TIP3    H226208   2.293   0.708  15.126  0.6828  0.7059 -0.1803
 1573TIP3   OH226209   0.791   1.696   2.115 -0.1769  0.1151 -1.1265
 1573TIP3    H126210   0.843   1.762   2.162  1.6519 -0.8059 -1.7901
 1573TIP3    H226211   0.734   1.659   2.182 -1.5821  2.6709 -0.8338
 1574TIP3   OH226212   5.541   0.571   2.564  0.5668  0.3626  0.0997
 1574TIP3    H126213   5.492   0.572   2.647  0.2817  0.4302 -0.0699
 1574TIP3    H226214   5.628   0.539   2.589 -0.7021 -3.6286 -0.1971
 1575TIP3   OH226215   4.416   2.272  12.062  0.5347 -0.7270 -0.2506
 1575TIP3    H126216   4.342   2.300  12.008 -0.8152 -1.9261  0.9280
 1575TIP3    H226217   4.489   2.264  12.000 -1.2558 -3.1887 -2.1525
 1576TIP3   OH226218   1.779   2.475   2.509 -0.0833  0.1398  0.1574
 1576TIP3    H126219   1.779   2.410   2.439  1.0120 -0.2816  0.5402
 1576TIP3    H226220   1.707   2.449   2.566 -1.3121  0.7763 -1.0640
 1577TIP3   OH226221   4.804   2.906  15.585  0.1785 -0.2781 -0.2114
 1577TIP3    H126222   4.775   2.851  15.658  0.9746 -0.7630 -0.2523
 1577TIP3    H226223   4.725   2.920  15.532 -0.3028 -0.2883  0.5053
 1578TIP3   OH226224   3.745   1.648  10.353  0.2599 -0.2148 -0.5119
 1578TIP3    H126225   3.825   1.655  10.405  0.6745 -0.8116 -1.0738
 1578TIP3    H226226   3.773   1.615  10.268 -0.7344 -1.7356 -0.2898
 1579TIP3   OH226227   6.375   2.956  12.954  0.0843 -0.5732 -0.4618
 1579TIP3    H126228   6.385   2.966  13.049 -0.1719  1.6293 -0.6566
 1579TIP3    H226229   6.465   2.960  12.921 -0.1001  2.6170 -0.6626
 1580TIP3   OH226230   3.203   0.225   2.065  0.5849  0.1668  0.1445
 1580TIP3    H126231   3.293   0.192   2.063  0.9018  1.0686 -0.7144
 1580TIP3    H226232   3.211   0.318   2.046 -0.7254 -0.2184 -2.5457
 1581TIP3   OH226233   0.678   4.342  15.541  0.1730 -0.3171  0.0756
 1581TIP3    H126234   0.733   4.326  15.465  0.6257 -0.9894  0.5371
 1581TIP3    H226235   0.598   4.381  15.506  0.6523  0.0040 -0.6710
 1582TIP3   OH226236   4.107   1.422   2.885  0.7639  0.0587 -0.6916
 1582TIP3    H126237   4.043   1.411   2.956 -1.0899  2.3595 -1.9588
 1582TIP3    H226238   4.082   1.356   2.820 -1.1757  1.7954 -1.7565
 1583TIP3   OH226239   5.701   5.602  11.593 -0.1150 -0.3876 -0.5405
 1583TIP3    H126240   5.685   5.668  11.660  1.0242 -0.8058  0.1508
 1583TIP3    H226241   5.792   5.616  11.567 -0.7832  0.3501 -2.6458
 1584TIP3   OH226242   0.300   5.024  13.014 -0.0502  0.4875  0.6697
 1584TIP3    H126243   0.239   4.955  13.040 -0.2086  0.1788 -0.4849
 1584TIP3    H226244   0.378   4.977  12.984 -0.7796  0.7302 -1.6998
 1585TIP3   OH226245   5.451   2.569   4.057 -0.1390 -0.3263 -0.3925
 1585TIP3    H126246   5.501   2.624   3.997 -0.3747  1.6603  1.2000
 1585TIP3    H226247   5.433   2.489   4.007  2.3523 -0.0072 -1.8881
 1586TIP3   OH226248   0.799   0.230  14.592  0.6915  0.2398 -0.4307
 1586TIP3    H126249   0.783   0.259  14.502 -1.0212 -1.5823 -0.7489
 1586TIP3    H226250   0.729   0.270  14.644  1.3178  0.7866  0.0049
 1587TIP3   OH226251   0.846   4.383   1.961  0.2686  0.2885 -0.4977
 1587TIP3    H126252   0.913   4.334   1.914  0.7837  1.9415 -1.5332
 1587TIP3    H226253   0.812   4.444   1.896 -1.4995  0.2048  0.3156
 1588TIP3   OH226254   4.658   5.352  11.284 -0.3484  0.6188 -0.1055
 1588TIP3    H126255   4.619   5.337  11.370 -0.5076 -2.0874 -0.5932
 1588TIP3    H226256   4.597   5.310  11.223  0.9431  0.4728 -1.3157
 1589TIP3   OH226257   6.262   3.706   3.509 -0.1354 -0.3779  0.4572
 1589TIP3    H126258   6.335   3.715   3.570  0.0991  0.8352  0.0041
 1589TIP3    H226259   6.200   3.773   3.537  0.3511  0.7703 -1.1737
 1590TIP3   OH226260   3.948   3.291   1.759  0.7231  1.0095 -0.4650
 1590TIP3    H126261   3.975   3.315   1.847 -1.1224  2.6274 -0.3128
 1590TIP3    H226262   3.898   3.366   1.727 -0.3245 -0.3491 -2.1315
 1591TIP3   OH226263   3.085   1.310   0.866  0.2176 -0.1510 -0.2889
 1591TIP3    H126264   3.052   1.230   0.906  0.7378 -0.6445 -0.8302
 1591TIP3    H226265   3.020   1.377   0.887  0.7570 -0.2607  1.8769
 1592TIP3   OH226266   4.782   3.987   5.051 -0.0187  0.5475  0.3524
 1592TIP3    H126267   4.719   3.915   5.053 -1.5167  1.8232 -0.0032
 1592TIP3    H226268   4.787   4.011   4.959  3.4708 -1.6302 -0.1274
 1593TIP3   OH226269   0.443   2.380   6.060  0.8627 -0.1880  0.1467
 1593TIP3    H126270   0.467   2.419   6.144 -0.1845 -1.6824  1.1618
 1593TIP3    H226271   0.511   2.315   6.043 -0.1376 -1.4573  0.9485
 1594TIP3   OH226272   1.387   0.727  13.622  0.4362 -0.3080 -0.5294
 1594TIP3    H126273   1.478   0.740  13.596  0.7164 -2.1465 -0.5283
 1594TIP3    H226274   1.387   0.644  13.670 -0.7811  0.9822  1.7963
 1595TIP3   OH226275   0.192   3.254   3.211 -0.0994  0.3387 -0.2291
 1595TIP3    H126276   0.239   3.215   3.284  1.3705 -0.9726 -1.8276
 1595TIP3    H226277   0.134   3.184   3.179  0.1216  0.5189 -1.0392
 1596TIP3   OH226278   3.103   0.161  14.486 -0.2026 -0.1518  0.0436
 1596TIP3    H126279   3.164   0.098  14.526 -0.1393 -0.5972 -0.7406
 1596TIP3    H226280   3.157   0.211  14.424  0.0889  1.7628  1.7949
 1597TIP3   OH226281   4.665   0.870  13.589  0.3090  0.0728 -0.3971
 1597TIP3    H126282   4.691   0.962  13.585  0.4358  0.1796  2.1044
 1597TIP3    H226283   4.730   0.825  13.534  2.6872  1.0079  1.5395
 1598TIP3   OH226284   1.437   1.917   4.181 -0.3152 -0.0632 -0.1080
 1598TIP3    H126285   1.503   1.920   4.112 -1.1986  1.0583 -0.9218
 1598TIP3    H226286   1.359   1.882   4.138 -0.9191  0.8030  0.2808
 1599TIP3   OH226287   1.027   1.175   1.106 -0.1498  0.1333  0.3446
 1599TIP3    H126288   1.089   1.143   1.040 -2.6103 -3.2457 -0.4668
 1599TIP3    H226289   1.039   1.115   1.180 -0.7217  0.9844  1.1373
 1600TIP3   OH226290   6.069   6.334  13.558  0.1018 -0.2391 -0.1079
 1600TIP3    H126291   6.102   6.406  13.504  0.0266 -0.1698 -0.0628
 1600TIP3    H226292   6.079   6.256  13.504  0.4368 -0.2332 -0.0510
 1601TIP3   OH226293   3.592   6.578   0.609  0.0651 -0.1611 -0.2729
 1601TIP3    H126294   3.656   6.577   0.539 -1.4607 -0.6919 -1.6878
 1601TIP3    H226295   3.544   6.496   0.600 -0.3006 -0.1380  1.2456
 1602TIP3   OH226296   1.831   5.209   3.278  0.3667  0.0794 -0.3421
 1602TIP3    H126297   1.807   5.296   3.246  0.2180  0.8421  1.7747
 1602TIP3    H226298   1.756   5.154   3.255 -1.3275  1.3969  1.8693
 1603TIP3   OH226299   0.151   2.491  14.911  0.7929 -0.3491 -0.1356
 1603TIP3    H126300   0.207   2.429  14.863  0.9147  0.9158 -1.6689
 1603TIP3    H226301   0.180   2.577  14.881  1.2417  0.5106  2.6442
 1604TIP3   OH226302   4.905   0.272   2.380  0.1173 -0.2880 -0.6574
 1604TIP3    H126303   4.841   0.310   2.319 -0.6930  0.3919  0.6047
 1604TIP3    H226304   4.948   0.347   2.420  1.2706 -0.7405 -1.0233
 1605TIP3   OH226305   3.490   2.080   2.667 -0.9615  0.1772  0.2771
 1605TIP3    H126306   3.414   2.029   2.640  0.1242 -2.0907  1.3611
 1605TIP3    H226307   3.556   2.015   2.692  0.8724  2.0951  0.6634
 1606TIP3   OH226308   0.215   3.869  15.140 -0.3354  0.3313  0.8295
 1606TIP3    H126309   0.271   3.799  15.107  0.2097  1.0152  0.2991
 1606TIP3    H226310   0.240   3.878  15.232 -1.6771 -1.3929  1.3933
 1607TIP3   OH226311   0.670   1.133  14.571 -0.2694 -0.4032  0.2742
 1607TIP3    H126312   0.706   1.202  14.626 -1.7556  0.3050  0.4024
 1607TIP3    H226313   0.617   1.180  14.506  0.8857 -1.2666 -1.3237
 1608TIP3   OH226314   6.152   6.745  12.128 -0.4008 -0.5211 -0.0777
 1608TIP3    H126315   6.140   6.722  12.035 -1.6775  2.4612 -0.6949
 1608TIP3    H226316   6.236   6.791  12.131 -0.2956 -0.7373  0.2775
 1609TIP3   OH226317   2.544   2.776   1.456 -0.3866 -0.5539  0.0921
 1609TIP3    H126318   2.509   2.793   1.369  1.0206 -0.4498 -0.4534
 1609TIP3    H226319   2.478   2.721   1.498 -0.8180 -1.0331 -1.2114
 1610TIP3   OH226320   4.004   5.651   3.546 -0.0835  0.3973  0.0390
 1610TIP3    H126321   4.069   5.706   3.503 -1.1413  1.3520 -0.3876
 1610TIP3    H226322   4.028   5.562   3.522  1.5516  0.6699  0.5931
 1611TIP3   OH226323   3.295   6.730   1.288 -0.5536 -0.7185  0.3024
 1611TIP3    H126324   3.329   6.673   1.357  0.9334  1.1014  1.0874
 1611TIP3    H226325   3.347   6.809   1.293 -2.9087  0.9431 -0.4722
 1612TIP3   OH226326   5.578   6.473  12.710  0.0757 -0.0857 -0.0216
 1612TIP3    H126327   5.522   6.436  12.641  1.1746 -0.3536 -0.7810
 1612TIP3    H226328   5.646   6.407  12.723  0.5516  0.5049  0.4787
 1613TIP3   OH226329   2.388   1.609  14.306 -0.2103 -0.1982 -0.1934
 1613TIP3    H126330   2.386   1.646  14.218 -0.3729  1.1766  0.3753
 1613TIP3    H226331   2.480   1.587  14.320 -0.2635 -0.8904 -0.8887
 1614TIP3   OH226332   5.883   6.795  14.045 -0.6747  0.4789 -0.4324
 1614TIP3    H126333   5.892   6.738  14.121 -1.1441  1.2714  0.2312
 1614TIP3    H226334   5.915   6.743  13.971 -1.1572 -0.6588  0.1536
 1615TIP3   OH226335   1.101   6.095  15.626 -0.0072  0.0191  0.3359
 1615TIP3    H126336   1.137   6.043  15.698 -0.6071  1.4723  1.7219
 1615TIP3    H226337   1.119   6.186  15.651 -1.5213  0.5975 -0.6260
 1616TIP3   OH226338   5.417   4.041  15.266 -0.5608  0.4857  0.1388
 1616TIP3    H126339   5.424   3.983  15.191 -0.0037  2.3255 -1.2727
 1616TIP3    H226340   5.323   4.058  15.275 -0.5187  1.3138 -0.9708
 1617TIP3   OH226341   3.047   0.424   5.149  0.0395 -0.1637  0.0181
 1617TIP3    H126342   3.092   0.424   5.234 -0.1766 -0.5421  0.1371
 1617TIP3    H226343   2.964   0.468   5.167  0.9163  1.7567 -0.5117
 1618TIP3   OH226344   3.191   4.899  13.153 -0.5846 -0.1032 -0.4368
 1618TIP3    H126345   3.229   4.986  13.136 -2.7473  1.0247  0.2671
 1618TIP3    H226346   3.194   4.891  13.249 -0.9021 -0.5625 -0.4666
 1619TIP3   OH226347   0.749   0.897  14.457 -0.3331 -0.2017  0.1813
 1619TIP3    H126348   0.724   0.984  14.488  1.4235  0.0271  0.9942
 1619TIP3    H226349   0.810   0.914  14.385 -1.0222 -0.7678 -0.5454
 1620TIP3   OH226350   2.768   6.488  14.286 -0.1195  0.4171 -0.3770
 1620TIP3    H126351   2.694   6.501  14.345 -0.1028  0.7308 -0.4277
 1620TIP3    H226352   2.834   6.551  14.315 -0.4977  1.2713 -1.3771
 1621TIP3   OH226353   0.315   0.373   1.687 -0.2559  0.4356  0.3889
 1621TIP3    H126354   0.320   0.327   1.603 -0.1907 -0.0334  0.6480
 1621TIP3    H226355   0.223   0.397   1.696 -0.2316  0.6339  0.1027
 1622TIP3   OH226356   3.506   4.857  12.978  0.2800 -0.1892 -0.3039
 1622TIP3    H126357   3.522   4.884  13.069  1.1580  0.7826 -0.7288
 1622TIP3    H226358   3.471   4.935  12.936  0.5360 -0.4351 -0.9730
 1623TIP3   OH226359   0.807   1.947   2.694 -0.2311 -0.2750  0.2265
 1623TIP3    H126360   0.763   2.032   2.686 -0.7173 -0.6929 -1.6677
 1623TIP3    H226361   0.861   1.956   2.773 -0.9390  1.4855  0.5388
 1624TIP3   OH226362   2.739   3.001  17.231 -0.2347 -0.3023  0.0391
 1624TIP3    H126363   2.683   2.979  17.305 -0.6165  1.1792  0.1992
 1624TIP3    H226364   2.716   2.937  17.164 -1.2762 -0.4437  0.5204
 1625TIP3   OH226365   5.333   1.373   2.428  0.5007  0.4143 -0.7048
 1625TIP3    H126366   5.325   1.293   2.480 -0.8162 -0.2423 -1.8988
 1625TIP3    H226367   5.272   1.435   2.468  0.8745  0.5406 -0.3231
 1626TIP3   OH226368   5.327   5.835  15.273 -0.0775 -0.5068 -0.6021
 1626TIP3    H126369   5.395   5.853  15.208  0.2931  0.8576  0.1417
 1626TIP3    H226370   5.262   5.904  15.259 -0.7100 -1.0836 -0.4986
 1627TIP3   OH226371   1.225   0.206   6.255 -0.8928  0.5635  0.1011
 1627TIP3    H126372   1.316   0.178   6.257 -1.2683 -0.6135  1.5151
 1627TIP3    H226373   1.187   0.157   6.182  0.1770  3.0174 -2.2018
 1628TIP3   OH226374   2.367   4.625  14.069 -0.0166  0.3813 -0.5393
 1628TIP3    H126375   2.438   4.579  14.024 -1.0987 -2.6903  0.7190
 1628TIP3    H226376   2.394   4.625  14.161  0.0999  2.6091 -0.5526
 1629TIP3   OH226377   4.906   0.052   0.877  0.3551  0.1287 -0.0451
 1629TIP3    H126378   4.937  -0.034   0.847  0.8592 -0.6962  2.7167
 1629TIP3    H226379   4.985   0.095   0.911  0.0039  1.4728 -0.9145
 1630TIP3   OH226380   6.683   2.871  12.233 -0.3936 -1.0711 -0.6586
 1630TIP3    H126381   6.756   2.849  12.175 -0.3020  0.2854 -1.0768
 1630TIP3    H226382   6.670   2.793  12.286  2.4289 -0.7992  0.5454
 1631TIP3   OH226383   6.070   0.156  15.510 -0.8013 -0.7993  0.2425
 1631TIP3    H126384   6.151   0.181  15.554 -1.2159 -0.1493  0.6478
 1631TIP3    H226385   6.098   0.096  15.441  0.1069  0.0616 -0.1468
 1632TIP3   OH226386   0.293   0.859   3.914  0.3635  0.3141 -0.0865
 1632TIP3    H126387   0.209   0.872   3.959  2.0189  1.6085  2.7255
 1632TIP3    H226388   0.319   0.770   3.937  0.1262  0.1662 -0.3793
 1633TIP3   OH226389   2.603   3.168   4.248 -0.3001 -0.4588  0.2338
 1633TIP3    H126390   2.636   3.084   4.217 -0.9773 -0.7903  0.3923
 1633TIP3    H226391   2.577   3.152   4.339  0.8986  0.2959  0.7161
 1634TIP3   OH226392   0.088   2.352  15.156 -0.0048  0.4974  0.5112
 1634TIP3    H126393   0.136   2.283  15.110 -1.5454 -0.1152 -0.2205
 1634TIP3    H226394   0.096   2.429  15.099  0.7741  0.6285  0.7890
 1635TIP3   OH226395   5.831   3.111  17.247  0.0431 -0.8204 -0.2696
 1635TIP3    H126396   5.916   3.104  17.292 -1.5887  0.4396  3.1497
 1635TIP3    H226397   5.787   3.028  17.268 -0.4335 -0.5450 -0.1858
 1636TIP3   OH226398   5.303   0.780  16.618 -0.0157  0.5515 -0.3112
 1636TIP3    H126399   5.253   0.698  16.612 -0.8810  0.9059  1.8828
 1636TIP3    H226400   5.393   0.751  16.632 -0.1711 -0.0323 -0.4827
 1637TIP3   OH226401   5.929   0.726   4.545 -0.6397 -0.1861 -0.0414
 1637TIP3    H126402   5.925   0.800   4.485 -3.4564  0.1962  0.5115
 1637TIP3    H226403   5.940   0.765   4.631 -1.5686 -0.4102  0.1916
 1638TIP3   OH226404   2.757   0.326  16.566  0.1584 -0.1033 -0.3774
 1638TIP3    H126405   2.684   0.350  16.509  1.2373 -1.5135 -2.3777
 1638TIP3    H226406   2.809   0.406  16.572  1.0577 -0.4572 -2.9522
 1639TIP3   OH226407   0.737   2.253   6.303 -0.1107 -0.4417  0.1577
 1639TIP3    H126408   0.754   2.324   6.365  1.5678 -1.0621  0.4330
 1639TIP3    H226409   0.657   2.211   6.335 -0.8633  1.0514  0.2398
 1640TIP3   OH226410   5.515   4.170  13.766  0.2060 -0.1489  0.0272
 1640TIP3    H126411   5.582   4.219  13.814  0.0116 -0.6611  0.8474
 1640TIP3    H226412   5.561   4.093  13.734  0.4881  0.5143 -1.1684
 1641TIP3   OH226413   3.573   5.086   6.054 -0.4605 -0.2590 -0.8606
 1641TIP3    H126414   3.493   5.139   6.049 -0.5074 -0.4396 -2.2142
 1641TIP3    H226415   3.629   5.133   6.115 -1.3147  0.2566 -0.4636
 1642TIP3   OH226416   6.537   4.547   1.780  0.0659  0.3591 -0.0174
 1642TIP3    H126417   6.560   4.599   1.703 -0.3784  0.8715  0.1914
 1642TIP3    H226418   6.459   4.498   1.755  0.2528  0.0912 -0.0796
 1643TIP3   OH226419   3.365   5.460  15.504  0.4498  0.0848 -0.6244
 1643TIP3    H126420   3.393   5.393  15.566  0.9741  0.7157 -0.1763
 1643TIP3    H226421   3.444   5.512  15.487 -0.1596  1.1339 -0.2828
 1644TIP3   OH226422   0.785   4.628   1.381  0.0410  0.4941 -0.0939
 1644TIP3    H126423   0.715   4.626   1.447 -0.0711 -0.6809 -0.2312
 1644TIP3    H226424   0.862   4.594   1.426  1.2099  4.0301  0.7699
 1645TIP3   OH226425   2.182   4.814  16.711 -0.4718  0.0289 -1.2005
 1645TIP3    H126426   2.183   4.783  16.620 -0.3096 -1.8000 -0.5977
 1645TIP3    H226427   2.104   4.869  16.717 -0.0666  0.8081 -2.6351
 1646TIP3   OH226428   4.922   6.251  11.958 -0.4604  0.4316  0.2109
 1646TIP3    H126429   5.013   6.275  11.973 -0.5569  1.1835 -0.4331
 1646TIP3    H226430   4.924   6.190  11.885 -0.4563  0.2625  0.3497
 1647TIP3   OH226431   3.557   4.360  15.371 -0.0720  0.2723  0.2574
 1647TIP3    H126432   3.622   4.353  15.441 -0.2425 -0.7270  0.3245
 1647TIP3    H226433   3.536   4.269  15.349  0.2621  0.5487 -1.3408
 1648TIP3   OH226434   4.880   6.100  11.432 -0.1586  0.7881 -0.6366
 1648TIP3    H126435   4.805   6.118  11.488 -0.4314 -1.0371 -0.4141
 1648TIP3    H226436   4.855   6.133  11.346 -1.4281 -0.2889 -0.6843
 1649TIP3   OH226437   1.187   1.043   2.174  0.1477  0.1092  0.2206
 1649TIP3    H126438   1.172   1.006   2.087 -1.3032 -2.3485  1.4661
 1649TIP3    H226439   1.142   0.983   2.234  3.2998  0.3077  2.9035
 1650TIP3   OH226440   0.539   0.113   6.187 -0.5266 -0.1488 -0.1331
 1650TIP3    H126441   0.512   0.176   6.120 -0.8641  0.3575  0.4763
 1650TIP3    H226442   0.557   0.166   6.265 -1.7538 -0.8925  0.6786
 1651TIP3   OH226443   1.231   1.720  12.987  0.3620  0.5108 -0.4372
 1651TIP3    H126444   1.269   1.699  12.902 -0.1482 -0.3734 -0.4573
 1651TIP3    H226445   1.284   1.793  13.021  1.2747  0.1114 -1.0012
 1652TIP3   OH226446   6.660   6.129   4.232 -0.3205 -0.0740  0.4128
 1652TIP3    H126447   6.609   6.070   4.287  0.9675 -0.2402  1.4524
 1652TIP3    H226448   6.721   6.072   4.185  0.1389  0.3076  0.5429
 1653TIP3   OH226449   4.218   5.269  10.273 -0.0476  0.1292  0.0787
 1653TIP3    H126450   4.162   5.319  10.213 -2.1778 -1.1784  0.9015
 1653TIP3    H226451   4.160   5.250  10.347  2.8590  2.8504  3.2015
 1654TIP3   OH226452   3.577   0.470   2.928  0.3180 -0.3253  0.1426
 1654TIP3    H126453   3.647   0.469   2.862  0.8339  0.3827  0.6750
 1654TIP3    H226454   3.585   0.555   2.970 -1.6370  0.2802 -0.6124
 1655TIP3   OH226455   3.505   1.963  16.585  0.3314  0.3107 -0.4882
 1655TIP3    H126456   3.500   1.956  16.489  0.4434  1.3368 -0.5843
 1655TIP3    H226457   3.494   2.057  16.602 -1.6704 -0.1037  0.6396
 1656TIP3   OH226458   0.618   4.352  13.289 -0.1644 -0.2944  0.1553
 1656TIP3    H126459   0.661   4.292  13.349 -1.2968  0.7744  2.0714
 1656TIP3    H226460   0.594   4.427  13.342 -0.7087  0.9194 -1.7461
 1657TIP3   OH226461   0.602   6.559   1.683 -0.0191 -0.5122  0.1364
 1657TIP3    H126462   0.613   6.621   1.756  0.2999  1.2027 -1.3153
 1657TIP3    H226463   0.522   6.588   1.639  0.0373 -1.2416 -0.4482
 1658TIP3   OH226464   3.556   2.281  12.932  0.2748  0.0382  0.1932
 1658TIP3    H126465   3.546   2.373  12.957 -0.7321 -0.0786  0.2248
 1658TIP3    H226466   3.640   2.255  12.971  0.2666  0.7671  0.7065
 1659TIP3   OH226467   4.595   2.934  17.087  0.2463 -0.4310 -0.8289
 1659TIP3    H126468   4.655   2.860  17.091  1.9061  0.8930 -0.6980
 1659TIP3    H226469   4.613   2.975  17.003  0.9874  1.1757  0.0980
 1660TIP3   OH226470   0.328   6.601   1.616  0.4940 -0.5247 -0.3759
 1660TIP3    H126471   0.339   6.507   1.600  1.6318 -0.6820  1.1894
 1660TIP3    H226472   0.260   6.606   1.683  0.8231 -0.2635 -0.0603
 1661TIP3   OH226473   3.152   6.764   3.857 -0.2915  0.6585 -0.0673
 1661TIP3    H126474   3.102   6.798   3.783 -0.4723 -0.4483 -0.4584
 1661TIP3    H226475   3.113   6.679   3.875 -0.2031  0.8960  1.2656
 1662TIP3   OH226476   0.010   4.382  15.545  0.1075  0.4916  0.1238
 1662TIP3    H126477   0.058   4.374  15.463 -1.1840  1.0732 -0.6920
 1662TIP3    H226478   0.031   4.302  15.593  1.0966  0.2856 -0.6359
 1663TIP3   OH226479   3.782   2.801   4.368  0.9140 -0.5030  0.4801
 1663TIP3    H126480   3.694   2.770   4.389  0.9940 -2.5567 -1.9695
 1663TIP3    H226481   3.839   2.750   4.426  0.6021 -0.4748  0.8120
 1664TIP3   OH226482   2.444   5.554  11.782  0.1438  0.2517  0.2329
 1664TIP3    H126483   2.452   5.527  11.873  1.9708 -1.9225 -0.5226
 1664TIP3    H226484   2.360   5.601  11.778 -0.3504 -0.3293  2.8363
 1665TIP3   OH226485   5.839   3.020   1.529 -0.5545 -0.2739 -0.1372
 1665TIP3    H126486   5.871   2.974   1.452 -1.9386 -0.0648 -0.8482
 1665TIP3    H226487   5.744   3.004   1.529 -0.7938  1.0685  0.6122
 1666TIP3   OH226488   4.737   4.882   4.600  0.2154  0.5609 -0.8055
 1666TIP3    H126489   4.646   4.863   4.625 -0.5387  1.7491 -2.5243
 1666TIP3    H226490   4.756   4.966   4.641  1.7593 -1.2735  2.4203
 1667TIP3   OH226491   0.614   6.306   6.057  0.1518  0.3112 -0.1295
 1667TIP3    H126492   0.709   6.317   6.047  0.3936 -3.3409 -2.9223
 1667TIP3    H226493   0.604   6.216   6.090 -2.3645  0.6590  0.1405
 1668TIP3   OH226494   4.883   4.288  11.863 -0.3389 -0.5797 -0.3598
 1668TIP3    H126495   4.885   4.296  11.958 -1.7389  0.6800 -0.4197
 1668TIP3    H226496   4.792   4.303  11.839  0.2701  0.6879 -2.0275
 1669TIP3   OH226497   5.390   5.879   4.122  0.4243  0.2045  0.4937
 1669TIP3    H126498   5.476   5.890   4.081  0.1219  3.2703  0.5826
 1669TIP3    H226499   5.408   5.882   4.216  0.3812 -0.6533  0.5342
 1670TIP3   OH226500   4.630   1.195  13.182  0.1573  0.5429  0.5263
 1670TIP3    H126501   4.605   1.105  13.165  2.2857  0.2604 -1.2586
 1670TIP3    H226502   4.623   1.204  13.277  1.0472 -1.8475  0.8383
 1671TIP3   OH226503   1.724   5.740  12.758 -0.6080  0.3722 -0.5491
 1671TIP3    H126504   1.638   5.747  12.716 -0.1690 -0.1420 -1.5545
 1671TIP3    H226505   1.731   5.649  12.784 -1.6928  1.1114  2.4528
 1672TIP3   OH226506   3.305   6.740   2.601 -0.0173 -0.8437  0.1774
 1672TIP3    H126507   3.356   6.707   2.527 -0.5314 -1.8363  0.2446
 1672TIP3    H226508   3.239   6.672   2.616 -2.0245  0.9115 -0.5825
 1673TIP3   OH226509   2.418   2.178  12.272  0.1705 -0.0091 -0.2683
 1673TIP3    H126510   2.500   2.166  12.320 -0.6508  2.1913  1.7708
 1673TIP3    H226511   2.371   2.096  12.285  0.2593  0.2854  2.1602
 1674TIP3   OH226512   4.868   4.769  15.863  0.0983  0.3032  0.2391
 1674TIP3    H126513   4.892   4.741  15.775 -1.9717 -0.6088 -0.0594
 1674TIP3    H226514   4.920   4.714  15.922  0.3277 -0.1505 -0.3898
 1675TIP3   OH226515   4.191   2.590  14.407 -0.1646 -0.5509 -0.2876
 1675TIP3    H126516   4.145   2.510  14.382 -2.1637 -0.4392  2.8484
 1675TIP3    H226517   4.127   2.660  14.395  0.6971  0.2258 -0.3973
 1676TIP3   OH226518   1.859   5.309   5.537  0.1885  0.1686  0.1588
 1676TIP3    H126519   1.883   5.241   5.473 -1.2179  0.0837 -0.3037
 1676TIP3    H226520   1.908   5.386   5.509 -1.0906  0.3826 -1.5745
 1677TIP3   OH226521   1.508   5.733  16.088  0.3374 -0.4105  0.5865
 1677TIP3    H126522   1.502   5.767  15.998 -0.8941 -0.9013  0.4735
 1677TIP3    H226523   1.599   5.748  16.113  0.2011  1.6278 -0.0018
 1678TIP3   OH226524   1.450   4.529  15.069  0.3007  0.2846  0.6034
 1678TIP3    H126525   1.523   4.590  15.081  0.8633 -0.4639  0.9985
 1678TIP3    H226526   1.486   4.457  15.017 -0.4922  0.5139 -0.2757
 1679TIP3   OH226527   2.065   5.621  14.073 -0.0045  0.0339  0.2010
 1679TIP3    H126528   2.143   5.577  14.039  0.0983 -0.2393  0.7845
 1679TIP3    H226529   2.000   5.610  14.004  0.6518  0.8002 -0.5566
 1680TIP3   OH226530   5.579   2.712   1.970 -0.0034 -0.2489 -0.3399
 1680TIP3    H126531   5.514   2.651   2.005 -1.2368  1.8198  1.0862
 1680TIP3    H226532   5.530   2.764   1.906  1.0351 -0.6947 -1.5189
 1681TIP3   OH226533   3.094   6.136  15.245 -0.4873 -0.0349  0.0090
 1681TIP3    H126534   3.099   6.040  15.253  0.5698  0.0860  0.8905
 1681TIP3    H226535   3.032   6.163  15.312  0.3104  0.0194  0.7342
 1682TIP3   OH226536   3.569   4.170   0.927  0.3301  0.1362 -0.3289
 1682TIP3    H126537   3.559   4.254   0.882 -0.2620  1.0961  1.5408
 1682TIP3    H226538   3.484   4.154   0.969  0.1333 -1.8686 -1.4211
 1683TIP3   OH226539   2.607   5.128   5.373  0.5160 -0.4134  0.3513
 1683TIP3    H126540   2.592   5.214   5.334 -0.3239 -0.2075  1.1143
 1683TIP3    H226541   2.547   5.125   5.448 -1.3007 -2.6492 -1.1266
 1684TIP3   OH226542   6.660   1.203   4.178  0.3440  0.1424  0.3713
 1684TIP3    H126543   6.624   1.210   4.266  0.8561  0.7796  0.5344
 1684TIP3    H226544   6.688   1.292   4.157  0.6233 -0.0961 -0.2651
 1685TIP3   OH226545   0.761   0.454   2.871 -0.4153  0.5901  0.3223
 1685TIP3    H126546   0.686   0.422   2.923  0.6760 -1.7740  0.5164
 1685TIP3    H226547   0.834   0.454   2.932  0.0334  1.6774 -0.2014
 1686TIP3   OH226548   2.266   3.899  16.125 -0.5015  0.0173  0.0021
 1686TIP3    H126549   2.299   3.947  16.200 -0.6320  0.3165 -0.1313
 1686TIP3    H226550   2.342   3.854  16.089 -0.2579  0.6209 -0.2451
 1687TIP3   OH226551   0.998   1.781  13.853  0.1521  0.2198 -0.6046
 1687TIP3    H126552   0.940   1.797  13.780  1.1533  1.4964 -1.1326
 1687TIP3    H226553   0.998   1.863  13.903  0.3966 -0.2383  0.1580
 1688TIP3   OH226554   2.229   2.773  14.321  0.4803  0.8731 -0.3771
 1688TIP3    H126555   2.218   2.845  14.383  0.8256  1.2016 -0.6950
 1688TIP3    H226556   2.142   2.761  14.283 -0.0364 -0.1877  1.0951
 1689TIP3   OH226557   4.595   4.862  12.547  0.0584  0.4752 -0.3591
 1689TIP3    H126558   4.551   4.936  12.588  0.2614  0.2363  0.3005
 1689TIP3    H226559   4.616   4.803  12.619 -0.8988 -0.6520 -0.9828
 1690TIP3   OH226560   1.205   1.067  13.483 -0.2673 -0.3358 -0.7132
 1690TIP3    H126561   1.162   1.028  13.559 -0.3297  0.3174 -0.4104
 1690TIP3    H226562   1.199   1.162  13.497  0.2017 -0.2160 -1.2608
 1691TIP3   OH226563   4.433   3.638  13.097  0.0718  0.2490 -0.2037
 1691TIP3    H126564   4.456   3.553  13.134  2.5992  0.3146 -1.5462
 1691TIP3    H226565   4.360   3.619  13.037 -0.4477 -0.6904  0.7094
 1692TIP3   OH226566   1.690   2.538   2.868  0.5092 -0.1974  0.3663
 1692TIP3    H126567   1.650   2.510   2.786 -1.7439  1.7917  0.7514
 1692TIP3    H226568   1.658   2.475   2.933  0.8895 -0.7146  0.0650
 1693TIP3   OH226569   2.325   0.716   1.206  0.7083 -0.5151 -0.4508
 1693TIP3    H126570   2.343   0.753   1.292 -0.8529  0.2715 -0.4419
 1693TIP3    H226571   2.336   0.790   1.146 -2.3533  0.0547 -0.4389
 1694TIP3   OH226572   6.811   6.238  11.435  0.6553 -0.5122  1.0977
 1694TIP3    H126573   6.807   6.290  11.354  0.2543 -0.0767  1.3908
 1694TIP3    H226574   6.889   6.271  11.480  0.1988  0.1043  1.4541
 1695TIP3   OH226575   5.979   2.388  13.400 -0.3618 -0.1676  0.8196
 1695TIP3    H126576   5.980   2.369  13.306 -0.1823  1.1121  0.5600
 1695TIP3    H226577   6.054   2.446  13.413 -0.7448  0.1378  1.6627
 1696TIP3   OH226578   0.902   0.918   4.298  0.2505 -0.0789 -0.6360
 1696TIP3    H126579   0.864   0.992   4.347 -0.8775 -0.8009 -0.4146
 1696TIP3    H226580   0.923   0.955   4.212  1.1168  0.8934 -0.0244
 1697TIP3   OH226581   2.202   4.589  15.803 -0.7487 -0.1713  0.8118
 1697TIP3    H126582   2.231   4.563  15.890  1.4810  1.1196  0.5043
 1697TIP3    H226583   2.199   4.685  15.806  1.0826 -0.0009 -0.9897
 1698TIP3   OH226584   3.410   2.191  11.422 -0.2950  0.2155  0.4243
 1698TIP3    H126585   3.428   2.282  11.397  2.5320 -0.6894 -1.0752
 1698TIP3    H226586   3.315   2.185  11.426 -0.5009  3.4209  1.2187
 1699TIP3   OH226587   2.400   5.004  15.536 -0.2135 -0.1696  0.3413
 1699TIP3    H126588   2.358   4.958  15.462  0.1208  0.1752 -0.0644
 1699TIP3    H226589   2.483   4.958  15.548 -0.5194 -0.5815  0.8669
 1700TIP3   OH226590   3.815   4.871   4.592 -0.2686  0.6281  0.4055
 1700TIP3    H126591   3.892   4.824   4.625 -1.3709 -0.2302  1.7805
 1700TIP3    H226592   3.774   4.907   4.670 -1.9249  0.0790 -0.2019
 1701TIP3   OH226593   4.013   3.156   1.549  0.1074 -0.2202  0.0462
 1701TIP3    H126594   4.009   3.210   1.628 -1.1045 -2.6747  1.7285
 1701TIP3    H226595   4.094   3.182   1.506  0.0516  2.1937  1.3317
 1702TIP3   OH226596   4.248   0.650   3.686 -0.5146  0.0262  0.5391
 1702TIP3    H126597   4.206   0.566   3.665 -3.2053  1.4886 -0.2801
 1702TIP3    H226598   4.285   0.679   3.603 -0.6386  0.1902  0.5398
 1703TIP3   OH226599   2.156   4.460   5.474 -0.3295 -0.2964 -0.7606
 1703TIP3    H126600   2.144   4.374   5.515 -1.0395  0.4472  0.6140
 1703TIP3    H226601   2.246   4.458   5.442  0.1107 -1.0639  0.4652
 1704TIP3   OH226602   2.127   0.115   1.306  0.5141 -0.0550  0.2095
 1704TIP3    H126603   2.175   0.181   1.356  2.2857 -0.5772 -0.7617
 1704TIP3    H226604   2.175   0.034   1.322 -1.4656 -1.0689  1.1549
 1705TIP3   OH226605   4.436   2.514  15.808  0.0245  0.8276  0.0908
 1705TIP3    H126606   4.441   2.587  15.746  0.1918  1.4690  0.8442
 1705TIP3    H226607   4.371   2.454  15.770  0.4094  1.0224 -0.8919
 1706TIP3   OH226608   1.509   5.324  15.028  0.7866 -0.3805 -0.2722
 1706TIP3    H126609   1.529   5.416  15.009  2.0386 -0.9048 -1.5763
 1706TIP3    H226610   1.459   5.294  14.951  0.5248 -0.8339  0.0742
 1707TIP3   OH226611   5.901   4.280  11.219  0.2457  0.2909 -0.3761
 1707TIP3    H126612   5.855   4.215  11.271 -0.0594  0.3039 -0.6318
 1707TIP3    H226613   5.987   4.241  11.202 -0.8556 -1.2041 -2.8163
 1708TIP3   OH226614   2.129   4.424   0.027 -0.1195  0.9554 -0.2937
 1708TIP3    H126615   2.062   4.399  -0.037 -0.9416 -1.0583  1.3163
 1708TIP3    H226616   2.211   4.421  -0.022 -0.9758  1.7014 -1.8228
 1709TIP3   OH226617   4.341   6.016  12.979  0.1357 -0.3669  0.0719
 1709TIP3    H126618   4.351   6.073  12.903 -0.7750 -0.3871 -0.0752
 1709TIP3    H226619   4.317   6.075  13.050  3.4186 -0.0085  0.9711
 1710TIP3   OH226620   1.895   6.384   4.839  0.3767 -0.2001 -0.3048
 1710TIP3    H126621   1.919   6.363   4.748  2.2290  2.5601 -0.5293
 1710TIP3    H226622   1.842   6.463   4.832 -1.5717 -1.3841  0.8701
 1711TIP3   OH226623   6.611   2.419   5.002 -0.5999  0.1131  0.4012
 1711TIP3    H126624   6.569   2.420   4.916  3.2802  0.0939 -1.6089
 1711TIP3    H226625   6.602   2.328   5.032  0.4433 -0.5642 -1.2816
 1712TIP3   OH226626   6.337   2.710  15.182 -0.7134 -0.2127  0.4856
 1712TIP3    H126627   6.409   2.769  15.203 -1.1647  0.0326  1.3925
 1712TIP3    H226628   6.360   2.628  15.224  0.5761 -1.1435 -1.9110
 1713TIP3   OH226629   0.173   4.516   1.001 -0.1215  0.0047  0.0402
 1713TIP3    H126630   0.115   4.557   0.938  0.0553  0.2268  0.0235
 1713TIP3    H226631   0.169   4.573   1.078 -0.5536 -0.4150  0.3304
 1714TIP3   OH226632   2.363   6.465  15.428 -0.2553 -0.1862 -0.1341
 1714TIP3    H126633   2.400   6.510  15.352  1.2635 -2.8600 -1.0561
 1714TIP3    H226634   2.307   6.530  15.470 -0.9915  1.4037 -3.4402
 1715TIP3   OH226635   4.514   5.278  12.830  0.1085 -0.1504 -0.3259
 1715TIP3    H126636   4.585   5.281  12.767  1.1993  1.5091  0.9402
 1715TIP3    H226637   4.466   5.359  12.817  1.5679  1.2290  2.2726
 1716TIP3   OH226638   5.201   0.973  14.755 -0.4021 -0.3649 -0.0383
 1716TIP3    H126639   5.160   0.979  14.669  0.3790 -2.0304 -0.5384
 1716TIP3    H226640   5.195   0.881  14.779 -1.8688  0.3049  2.3337
 1717TIP3   OH226641   4.893   0.368  15.760 -0.0695 -0.2779 -0.5239
 1717TIP3    H126642   4.866   0.430  15.692  0.6765  2.4957  1.6120
 1717TIP3    H226643   4.964   0.413  15.806 -0.3019 -2.2390  1.8472
 1718TIP3   OH226644   1.358   4.760   2.313  0.6152 -0.0594  0.2726
 1718TIP3    H126645   1.291   4.771   2.381  2.8617  2.9205  2.0658
 1718TIP3    H226646   1.323   4.807   2.237 -0.3217 -0.4265  0.4676
 1719TIP3   OH226647   6.219   4.517   3.657 -0.0332 -0.4273  0.1976
 1719TIP3    H126648   6.302   4.522   3.704 -0.4953  0.8816  0.9131
 1719TIP3    H226649   6.237   4.463   3.581  1.0218 -1.6498  1.3061
 1720TIP3   OH226650   6.407   3.937  16.930 -0.1541  0.0393 -0.1419
 1720TIP3    H126651   6.461   3.951  16.852  0.3395 -2.5394 -0.3051
 1720TIP3    H226652   6.438   4.003  16.993  0.3350  1.2851 -1.6539
 1721TIP3   OH226653   5.477   4.182   0.403 -0.0358 -0.4982  0.0964
 1721TIP3    H126654   5.516   4.098   0.425 -1.7751 -1.2475  0.3771
 1721TIP3    H226655   5.390   4.161   0.368 -0.8809  1.2110  1.0601
 1722TIP3   OH226656   5.726   4.851   3.999  0.3224  0.1735  0.0450
 1722TIP3    H126657   5.665   4.924   4.001  1.0484  0.8430 -1.3900
 1722TIP3    H226658   5.691   4.788   4.062 -0.2197  1.8232  1.4084
 1723TIP3   OH226659   5.910   5.055   4.031  0.4298 -0.2543 -0.4671
 1723TIP3    H126660   5.847   4.983   4.037 -0.9309  0.8315 -1.4716
 1723TIP3    H226661   5.980   5.021   3.975  0.7683 -1.4642  0.6609
 1724TIP3   OH226662   5.261   0.343  14.505  0.6969 -0.1668 -0.0140
 1724TIP3    H126663   5.327   0.277  14.524  1.2240  0.5729  0.8033
 1724TIP3    H226664   5.179   0.306  14.536  0.7304 -1.0982 -1.0449
 1725TIP3   OH226665   2.923   3.101  14.190  0.3611 -0.0520 -0.1026
 1725TIP3    H126666   3.006   3.057  14.205 -0.5828 -0.2198  5.8955
 1725TIP3    H226667   2.860   3.030  14.176  0.7609 -0.0255 -2.1526
 1726TIP3   OH226668   5.835   6.301   6.006  0.5254  0.1675 -0.2384
 1726TIP3    H126669   5.765   6.335   6.061  0.5495 -0.8735  0.4674
 1726TIP3    H226670   5.910   6.293   6.065  0.9355  0.2936 -0.7361
 1727TIP3   OH226671   6.512   3.570   0.650  0.3003 -0.0063 -0.0318
 1727TIP3    H126672   6.541   3.566   0.740  1.5882 -0.1304 -0.4495
 1727TIP3    H226673   6.477   3.658   0.639  0.1660  0.0128  0.5722
 1728TIP3   OH226674   1.631   6.437  15.164  0.2312 -0.0037 -0.7089
 1728TIP3    H126675   1.652   6.378  15.092  0.5934  1.0094 -1.4448
 1728TIP3    H226676   1.538   6.420  15.183  0.0165  0.0317 -1.6995
 1729TIP3   OH226677   0.267   1.651  16.649 -0.1531  0.5293  0.0189
 1729TIP3    H126678   0.241   1.632  16.559 -2.1692 -0.2195  0.7370
 1729TIP3    H226679   0.244   1.744  16.660 -1.9765  0.0395  0.4480
 1730TIP3   OH226680   0.221   5.793   2.342 -0.3018 -0.0705 -0.2487
 1730TIP3    H126681   0.130   5.809   2.368 -0.8475 -1.3372 -1.3154
 1730TIP3    H226682   0.232   5.846   2.263  0.0990  0.5745  0.2304
 1731TIP3   OH226683   3.544   4.624  10.724  0.2763  0.1459  0.3356
 1731TIP3    H126684   3.474   4.661  10.778 -0.6986 -0.8149 -0.2540
 1731TIP3    H226685   3.541   4.530  10.740  2.0475  0.1743  0.9930
 1732TIP3   OH226686   1.262   5.309  13.527 -0.2945  0.7314  0.2206
 1732TIP3    H126687   1.201   5.306  13.601 -1.7304  1.9477 -0.8834
 1732TIP3    H226688   1.208   5.292  13.450  1.2420 -0.8127 -0.5489
 1733TIP3   OH226689   4.879   5.957  12.354 -0.0914  0.1726  0.4003
 1733TIP3    H126690   4.970   5.947  12.382 -0.2637  0.7344  1.1445
 1733TIP3    H226691   4.878   6.038  12.303 -0.0175 -0.2418 -0.2654
 1734TIP3   OH226692   2.758   5.512  12.166 -0.5464 -0.1870  0.3667
 1734TIP3    H126693   2.841   5.557  12.181 -0.3341 -0.2155 -0.6939
 1734TIP3    H226694   2.718   5.559  12.093 -0.4408 -1.5237 -0.5766
 1735TIP3   OH226695   0.497   3.995  14.847  0.4252  0.1878  0.1367
 1735TIP3    H126696   0.410   4.002  14.885  1.4932 -0.5286  2.8630
 1735TIP3    H226697   0.547   4.065  14.889  1.2254  0.4359 -1.2177
 1736TIP3   OH226698   0.368   4.121  16.880 -1.0127 -0.2685  0.5146
 1736TIP3    H126699   0.461   4.117  16.902 -0.4799  0.2401 -1.5282
 1736TIP3    H226700   0.351   4.040  16.832 -1.6813 -0.4184  0.9836
 1737TIP3   OH226701   6.242   2.202   5.683 -0.0593  0.1617  0.2574
 1737TIP3    H126702   6.326   2.193   5.727 -1.1913  1.4181  2.7887
 1737TIP3    H226703   6.233   2.297   5.669 -0.7629 -0.0254 -0.6203
 1738TIP3   OH226704   6.461   2.220  16.185 -0.0049 -0.1520 -0.6011
 1738TIP3    H126705   6.510   2.140  16.168 -1.4756 -1.1154 -0.3027
 1738TIP3    H226706   6.390   2.220  16.121 -1.6019 -0.4635  1.1333
 1739TIP3   OH226707   6.366   1.298   1.530 -0.5376  0.2288  0.3991
 1739TIP3    H126708   6.388   1.280   1.622  0.4439  0.9653  0.3217
 1739TIP3    H226709   6.395   1.220   1.483  1.2402  0.8338  0.4138
 1740TIP3   OH226710   2.343   1.932  11.120 -0.0382 -0.0429  0.2340
 1740TIP3    H126711   2.253   1.947  11.150 -0.1131 -0.5806  0.2908
 1740TIP3    H226712   2.341   1.843  11.083 -0.0394  0.7627 -1.7439
 1741TIP3   OH226713   0.921   1.258  13.964  0.5269 -0.1411  0.0575
 1741TIP3    H126714   0.994   1.196  13.967  0.2483 -0.5831 -1.6114
 1741TIP3    H226715   0.879   1.251  14.050 -0.3006 -3.2670 -0.5561
 1742TIP3   OH226716   5.377   3.699  15.902 -0.1862  0.5797  0.3069
 1742TIP3    H126717   5.440   3.755  15.858  1.5808 -0.7127  1.1501
 1742TIP3    H226718   5.429   3.630  15.943 -1.9609  0.4259  2.4433
 1743TIP3   OH226719   4.686   1.055  15.543 -0.2569  0.1403 -0.3667
 1743TIP3    H126720   4.691   1.141  15.585 -0.8231  0.2893 -0.5987
 1743TIP3    H226721   4.635   1.001  15.605  1.3714 -0.4553  0.4806
 1744TIP3   OH226722   2.852   4.810  13.945  0.4137 -0.5669  0.1584
 1744TIP3    H126723   2.832   4.859  14.025  0.7553 -1.0602  0.5532
 1744TIP3    H226724   2.886   4.875  13.884  1.0110 -0.3436  0.7326
 1745TIP3   OH226725   2.733   5.262  15.435 -0.2390 -0.2607  0.9525
 1745TIP3    H126726   2.819   5.278  15.474 -0.4791 -0.1822  1.4535
 1745TIP3    H226727   2.675   5.248  15.509 -0.8607  0.6671  0.6572
 1746TIP3   OH226728   1.577   5.637  14.859  0.8113 -0.1175  0.0309
 1746TIP3    H126729   1.562   5.587  14.779 -3.1657  1.0883 -0.1040
 1746TIP3    H226730   1.638   5.707  14.834 -0.4912  0.3263 -1.9979
 1747TIP3   OH226731   2.440   0.547   3.325  0.5745  0.4614 -0.3621
 1747TIP3    H126732   2.384   0.568   3.400  0.6086  1.2840 -0.5672
 1747TIP3    H226733   2.462   0.632   3.287  1.0601  0.0766 -0.9406
 1748TIP3   OH226734   6.121   2.377   1.574  0.0255  0.4268  0.8298
 1748TIP3    H126735   6.057   2.308   1.594 -1.2424  1.8692  1.8971
 1748TIP3    H226736   6.069   2.457   1.573  1.2700  1.2566 -1.5757
 1749TIP3   OH226737   3.588   4.424   2.436 -0.1867  0.0573 -0.2531
 1749TIP3    H126738   3.639   4.481   2.493 -1.4008  1.1679 -0.2736
 1749TIP3    H226739   3.604   4.336   2.470  0.2963  0.5716  0.8705
 1750TIP3   OH226740   6.019   4.932  14.812 -0.3983 -0.1529  0.0734
 1750TIP3    H126741   6.031   4.871  14.884  0.7897 -1.3106 -1.0704
 1750TIP3    H226742   6.074   4.897  14.741 -1.4816  0.9781 -1.3658
 1751TIP3   OH226743   2.651   2.374  13.901 -0.1077 -0.1598 -0.0740
 1751TIP3    H126744   2.649   2.390  13.995 -0.5825  0.1551 -0.1312
 1751TIP3    H226745   2.675   2.282  13.891 -1.6306 -0.6237  0.4023
 1752TIP3   OH226746   6.705   1.603  11.738  0.1946 -0.1259  0.5570
 1752TIP3    H126747   6.620   1.644  11.723  0.1289  0.1700  1.7163
 1752TIP3    H226748   6.765   1.676  11.750  0.5100 -0.3436  0.3164
 1753TIP3   OH226749   6.170   5.881   6.323  0.1811 -0.1103  0.4210
 1753TIP3    H126750   6.166   5.901   6.230  0.8964  0.0950  0.4275
 1753TIP3    H226751   6.103   5.936   6.363 -1.0675 -1.2074 -0.1381
 1754TIP3   OH226752   2.105   6.033  15.202 -0.4230  0.2516 -0.2814
 1754TIP3    H126753   2.153   5.967  15.252  1.1894 -0.2641 -2.4340
 1754TIP3    H226754   2.168   6.104  15.191 -1.5507  1.3656  0.4382
 1755TIP3   OH226755   0.079   5.078   6.309  0.0829  0.3849  0.4743
 1755TIP3    H126756   0.051   5.031   6.388  1.5862 -1.3716  0.0031
 1755TIP3    H226757   0.041   5.028   6.237  0.4992  0.7227  0.0140
 1756TIP3   OH226758   3.536   0.864  14.807  0.3445 -0.0240  0.4802
 1756TIP3    H126759   3.516   0.808  14.731 -0.7808 -0.8479  1.3582
 1756TIP3    H226760   3.628   0.886  14.797 -0.0753  0.8717 -1.7828
 1757TIP3   OH226761   2.947   0.094  11.969 -0.2179  0.8096 -0.2634
 1757TIP3    H126762   2.855   0.069  11.974 -0.2260  1.0168  0.7533
 1757TIP3    H226763   2.953   0.149  11.890  0.0607 -3.2912 -3.2471
 1758TIP3   OH226764   2.989   4.360  12.042  0.0651 -0.4690 -0.0714
 1758TIP3    H126765   3.036   4.316  12.112  0.5803 -0.8677 -0.6658
 1758TIP3    H226766   2.920   4.409  12.087  0.5249 -0.5469  0.7263
 1759TIP3   OH226767   3.128   4.557  13.050  0.1189 -0.0871  0.0247
 1759TIP3    H126768   3.215   4.590  13.026 -0.1355 -0.4181 -1.3600
 1759TIP3    H226769   3.073   4.635  13.054 -0.3716 -0.2360 -2.7834
 1760TIP3   OH226770   0.931   4.651   5.547  0.3433  0.2153 -0.6356
 1760TIP3    H126771   0.977   4.699   5.617  0.3282 -0.7231  0.0360
 1760TIP3    H226772   1.001   4.624   5.488  0.4059  0.6559 -0.7656
 1761TIP3   OH226773   4.092   4.522  12.010 -0.0121  1.1441 -0.1415
 1761TIP3    H126774   4.132   4.493  11.928 -0.0839  0.9131 -0.0951
 1761TIP3    H226775   4.153   4.588  12.044  0.9173 -0.0348  0.4982
 1762TIP3   OH226776   6.564   5.302  14.723 -0.3811 -0.2208  0.4710
 1762TIP3    H126777   6.522   5.350  14.794 -1.1107  0.2992 -0.3077
 1762TIP3    H226778   6.492   5.266  14.671  0.1418 -0.7256  0.0844
 1763TIP3   OH226779   6.282   5.635   2.066 -0.1977  0.2888 -0.1766
 1763TIP3    H126780   6.273   5.730   2.073  1.2202  0.4459 -0.2520
 1763TIP3    H226781   6.289   5.618   1.972 -2.2385 -0.0823 -0.2731
 1764TIP3   OH226782   0.500   0.452  16.454 -0.2845 -0.0142  0.3923
 1764TIP3    H126783   0.412   0.418  16.469 -0.9146  0.6626 -1.5941
 1764TIP3    H226784   0.554   0.375  16.442 -0.8144 -0.4121  0.5461
 1765TIP3   OH226785   5.987   3.764  11.118 -0.3376 -0.1098 -0.3957
 1765TIP3    H126786   6.078   3.762  11.150 -1.1475 -3.0286  1.9177
 1765TIP3    H226787   5.991   3.718  11.034  0.1420 -1.1872  0.2083
 1766TIP3   OH226788   2.450   4.010  15.410 -0.3453  0.1611 -0.6052
 1766TIP3    H126789   2.491   4.062  15.478 -1.5580 -0.4479  0.6155
 1766TIP3    H226790   2.513   3.940  15.392 -0.1902  0.1027  0.1638
 1767TIP3   OH226791   2.352   1.971   3.723 -0.2272 -0.1875 -0.1305
 1767TIP3    H126792   2.308   1.947   3.805 -1.0658  2.1544  0.1764
 1767TIP3    H226793   2.420   2.033   3.750  0.4061 -0.4791 -1.0521
 1768TIP3   OH226794   5.137   0.217  15.063  0.0482  0.3457 -0.1508
 1768TIP3    H126795   5.126   0.249  15.152 -0.9630  0.3355 -0.2732
 1768TIP3    H226796   5.210   0.155  15.068 -1.7048 -1.6413  1.1582
 1769TIP3   OH226797   0.916   2.081   3.557 -0.3336  0.3145 -0.1160
 1769TIP3    H126798   0.867   2.163   3.561 -0.2938  0.3995 -1.1879
 1769TIP3    H226799   0.848   2.013   3.557 -0.3985  0.3792 -0.1316
 1770TIP3   OH226800   2.896   2.542  12.087  0.5604  0.1395  0.2511
 1770TIP3    H126801   2.935   2.586  12.012  1.9071 -2.2236 -0.4698
 1770TIP3    H226802   2.969   2.524  12.146  0.4939 -3.2910 -0.6000
 1771TIP3   OH226803   3.409   4.422  14.919 -0.4858 -0.5454 -0.3175
 1771TIP3    H126804   3.498   4.431  14.885 -0.4017 -0.5735 -0.1008
 1771TIP3    H226805   3.364   4.501  14.889  0.0720  0.2959  1.0260
 1772TIP3   OH226806   3.303   1.072   5.271  0.2130 -0.1142 -0.0341
 1772TIP3    H126807   3.247   1.054   5.347  0.9468  0.4524  0.6580
 1772TIP3    H226808   3.319   0.987   5.232 -1.4566 -0.2399 -0.4713
 1773TIP3   OH226809   5.151   5.321  13.169 -0.3840 -0.0823 -0.4684
 1773TIP3    H126810   5.195   5.238  13.188  2.5367  2.0611  2.7477
 1773TIP3    H226811   5.159   5.330  13.074  2.2323 -1.9437 -0.5069
 1774TIP3   OH226812   2.372   3.790   6.199 -0.2294  0.4417  0.3624
 1774TIP3    H126813   2.364   3.727   6.271 -0.7961  1.5187  1.2511
 1774TIP3    H226814   2.325   3.867   6.230  4.0471  2.9130  1.0665
 1775TIP3   OH226815   5.316   6.537   5.362 -0.4381 -0.8079 -0.5879
 1775TIP3    H126816   5.388   6.493   5.408 -2.4563 -0.3973  3.1213
 1775TIP3    H226817   5.356   6.615   5.323  0.9590  0.0455  2.4206
 1776TIP3   OH226818   5.861   1.024  14.217  0.0162 -0.1849 -0.0465
 1776TIP3    H126819   5.852   1.119  14.213 -0.1407 -0.1560  0.8827
 1776TIP3    H226820   5.791   0.991  14.160  0.8212  0.2710 -1.3186
 1777TIP3   OH226821   2.269   6.331  16.219  0.1591  0.0099  0.1123
 1777TIP3    H126822   2.173   6.326  16.220  0.1319  0.1869 -1.2876
 1777TIP3    H226823   2.291   6.365  16.306 -0.9418 -1.5480  1.0259
 1778TIP3   OH226824   1.839   5.353  12.045 -0.1008  0.3465  0.0242
 1778TIP3    H126825   1.796   5.384  11.966  0.3905 -0.3577 -0.5235
 1778TIP3    H226826   1.897   5.424  12.071  2.3740 -0.7662 -2.2301
 1779TIP3   OH226827   6.653   0.980   5.748  0.3695  0.0228  0.7193
 1779TIP3    H126828   6.714   0.934   5.805  0.3044 -2.9252 -1.4818
 1779TIP3    H226829   6.679   0.956   5.659 -1.2848  2.2215 -0.4413
 1780TIP3   OH226830   6.096   6.754   0.749 -0.4048  0.8639  0.6311
 1780TIP3    H126831   6.080   6.839   0.790  2.1135  2.0904 -0.7744
 1780TIP3    H226832   6.189   6.755   0.728 -0.6602 -1.6316 -0.8053
 1781TIP3   OH226833   2.925   1.261   0.109  0.6722  0.0200 -0.1950
 1781TIP3    H126834   3.008   1.290   0.072  0.0381  1.0609 -0.8394
 1781TIP3    H226835   2.931   1.166   0.111  0.7871 -0.0699 -2.8554
 1782TIP3   OH226836   4.193   4.799  14.206 -0.3037 -0.2897 -0.0675
 1782TIP3    H126837   4.132   4.727  14.191  2.2861 -2.2739 -1.3928
 1782TIP3    H226838   4.265   4.783  14.144  1.1501  2.4588  0.8401
 1783TIP3   OH226839   2.616   2.141  14.528  0.4903 -0.0243  0.0395
 1783TIP3    H126840   2.538   2.100  14.489 -0.2174 -1.1403  2.5072
 1783TIP3    H226841   2.678   2.068  14.538  0.3936  0.0876  1.5919
 1784TIP3   OH226842   3.531   0.599  14.435  0.2436  0.1333 -0.8261
 1784TIP3    H126843   3.607   0.583  14.378 -0.0466 -2.4595 -0.5642
 1784TIP3    H226844   3.567   0.600  14.523  0.4057  2.1189 -0.9012
 1785TIP3   OH226845   2.275   0.127   2.980 -0.1637  0.4816  0.0350
 1785TIP3    H126846   2.235   0.213   2.994 -1.1743  0.0539 -0.2024
 1785TIP3    H226847   2.304   0.100   3.067 -0.0886  0.9435  0.1551
 1786TIP3   OH226848   3.692   4.361   3.519 -0.1249 -0.3596  0.5053
 1786TIP3    H126849   3.675   4.270   3.541  0.3913 -0.7252 -0.5821
 1786TIP3    H226850   3.646   4.375   3.436  0.4196  0.1588  0.2865
 1787TIP3   OH226851   0.536   1.367   5.902 -0.0154  0.3871 -0.2803
 1787TIP3    H126852   0.471   1.300   5.879  0.2893  0.0784 -0.2486
 1787TIP3    H226853   0.484   1.445   5.921 -0.3097  0.5271 -1.5786
 1788TIP3   OH226854   2.869   1.910  10.699 -0.1149  0.1083  0.6521
 1788TIP3    H126855   2.820   1.829  10.712 -0.0403  0.2596  1.8968
 1788TIP3    H226856   2.808   1.968  10.653 -0.2771 -0.5364  0.0508
 1789TIP3   OH226857   6.071   0.905  14.353 -0.2230  0.4878  0.1277
 1789TIP3    H126858   6.027   0.932  14.272 -0.7907  0.3530  0.3896
 1789TIP3    H226859   6.163   0.897  14.328 -0.5420 -0.5631 -0.7605
 1790TIP3   OH226860   5.849   1.573  12.041  0.2610 -0.0843  0.2687
 1790TIP3    H126861   5.903   1.581  12.120 -0.1681  0.1262  0.5437
 1790TIP3    H226862   5.845   1.662  12.006 -0.6912  0.0725  0.7744
 1791TIP3   OH226863   3.134   1.964   4.147 -0.3989 -0.7164 -0.7901
 1791TIP3    H126864   3.175   2.033   4.198  0.0070 -2.4574  1.3008
 1791TIP3    H226865   3.196   1.947   4.075  0.5790 -0.4914 -0.0029
 1792TIP3   OH226866   3.262   3.172  13.305 -0.1571  0.2027 -0.0142
 1792TIP3    H126867   3.279   3.144  13.215 -0.4666 -1.1417  0.3317
 1792TIP3    H226868   3.343   3.151  13.352 -0.5625 -0.5745  0.3491
 1793TIP3   OH226869   4.742   1.831   0.428  0.3876 -0.6208 -1.3292
 1793TIP3    H126870   4.683   1.849   0.354  0.5707 -1.1225 -1.5993
 1793TIP3    H226871   4.746   1.736   0.433  1.0417 -0.5924 -1.2072
 1794TIP3   OH226872   0.115   2.921   1.166 -0.5925 -0.2960  0.3329
 1794TIP3    H126873   0.164   2.884   1.239 -1.0589 -0.9952  0.2962
 1794TIP3    H226874   0.127   3.016   1.175 -2.7997 -0.2115  2.8741
 1795TIP3   OH226875   1.203   4.942   2.766  0.0560  0.6147  0.1949
 1795TIP3    H126876   1.251   5.024   2.754  1.2821 -0.0401  0.5657
 1795TIP3    H226877   1.235   4.907   2.849 -0.8010 -0.0164  0.2706
 1796TIP3   OH226878   2.737   1.901  16.195 -0.3007 -0.3674 -0.7264
 1796TIP3    H126879   2.668   1.864  16.140 -0.3155 -1.1963 -0.1628
 1796TIP3    H226880   2.693   1.970  16.245 -0.5683 -0.4292 -0.8737
 1797TIP3   OH226881   5.321   0.728  12.332 -0.2068 -0.6559  0.1752
 1797TIP3    H126882   5.286   0.794  12.392  0.7512  0.0193 -0.0153
 1797TIP3    H226883   5.268   0.650  12.350 -0.4316 -0.2418  1.3653
 1798TIP3   OH226884   1.986   6.699   3.281  0.8527 -1.2024 -0.4034
 1798TIP3    H126885   1.994   6.628   3.345  0.9247 -0.3674  0.5233
 1798TIP3    H226886   1.935   6.661   3.210  0.7408 -2.1384  0.1643
 1799TIP3   OH226887   0.399   5.610   4.557  0.2020  0.1862  0.1761
 1799TIP3    H126888   0.421   5.702   4.539 -1.7609  0.8462  0.9608
 1799TIP3    H226889   0.456   5.560   4.499  0.5054  1.9437 -1.0919
 1800TIP3   OH226890   6.550   0.350  15.219  0.0535  0.2408 -0.5182
 1800TIP3    H126891   6.600   0.269  15.213 -1.4585 -0.7300 -0.2880
 1800TIP3    H226892   6.466   0.330  15.177 -0.8448  1.2670  0.7319
 1801TIP3   OH226893   6.716   6.613  15.473  0.1467 -0.1620 -0.2948
 1801TIP3    H126894   6.756   6.554  15.410 -0.1207  1.4373 -2.0259
 1801TIP3    H226895   6.635   6.569  15.500  0.9496 -1.4768  0.0060
 1802TIP3   OH226896   1.841   2.830   5.661  0.7849 -0.0869  0.2541
 1802TIP3    H126897   1.888   2.847   5.743 -0.5736  1.7617  0.6833
 1802TIP3    H226898   1.909   2.831   5.594  1.6247  0.6671  1.0909
 1803TIP3   OH226899   2.978   1.088   5.135  0.2180 -0.0442  0.1618
 1803TIP3    H126900   3.061   1.067   5.091 -0.8380 -0.9581 -1.4006
 1803TIP3    H226901   2.942   1.003   5.159 -1.0117  0.2880 -0.5147
 1804TIP3   OH226902   5.964   1.816   4.415  0.4327  0.5260  0.1011
 1804TIP3    H126903   5.914   1.881   4.365 -1.6543 -0.4878  0.8202
 1804TIP3    H226904   6.043   1.863   4.442  0.5546  1.7543 -2.2298
 1805TIP3   OH226905   1.329   4.068  13.338 -0.2582 -0.1942 -0.6275
 1805TIP3    H126906   1.250   4.022  13.310 -0.7289  0.0201  0.3185
 1805TIP3    H226907   1.371   4.008  13.400 -0.1232  0.0451 -0.4843
 1806TIP3   OH226908   4.389   2.863   4.651 -0.0648 -0.0782 -0.2929
 1806TIP3    H126909   4.299   2.887   4.629 -0.4938 -0.6806  0.7546
 1806TIP3    H226910   4.440   2.942   4.635 -0.8877  0.4540 -0.2944
 1807TIP3   OH226911   2.975   3.564   6.025  0.0186 -0.1218  0.0289
 1807TIP3    H126912   2.924   3.488   6.000 -0.7754  0.3426  0.2389
 1807TIP3    H226913   3.053   3.528   6.068 -1.7700 -0.7389  2.8199
 1808TIP3   OH226914   2.829   0.917  11.963 -0.0279  0.3348  0.9415
 1808TIP3    H126915   2.756   0.915  11.901 -0.2241  1.9151  1.1212
 1808TIP3    H226916   2.882   0.840  11.939  0.3334  1.3628 -1.7404
 1809TIP3   OH226917   5.823   0.048   3.073  0.0541 -0.1741  0.2281
 1809TIP3    H126918   5.903   0.022   3.117  0.4887  0.0400 -0.4284
 1809TIP3    H226919   5.771   0.091   3.141  0.4741 -0.3608  0.6674
 1810TIP3   OH226920   6.639   2.504   5.317  0.4747  0.5131 -0.3450
 1810TIP3    H126921   6.640   2.465   5.229 -0.1575 -1.6838  0.5897
 1810TIP3    H226922   6.565   2.566   5.314  0.1800  0.1407 -1.2328
 1811TIP3   OH226923   4.252   0.695   0.569  0.7233  0.4296  0.1379
 1811TIP3    H126924   4.194   0.677   0.643  0.6385  1.4417  0.3271
 1811TIP3    H226925   4.198   0.677   0.492  0.3839  0.6566  0.3178
 1812TIP3   OH226926   2.147   6.542  13.126  0.7226 -0.2024 -0.8642
 1812TIP3    H126927   2.062   6.522  13.165  0.2717  0.6973 -1.3640
 1812TIP3    H226928   2.185   6.607  13.185  0.5689  0.2497 -1.2651
 1813TIP3   OH226929   6.613   6.739  14.754 -0.2567  0.1869  0.5997
 1813TIP3    H126930   6.594   6.659  14.804 -0.1585 -0.7659 -0.8448
 1813TIP3    H226931   6.539   6.797  14.773 -1.3395 -1.0091  0.1412
 1814TIP3   OH226932   5.305   3.359   3.633 -0.1562 -0.4942 -0.5090
 1814TIP3    H126933   5.354   3.440   3.621  2.7214 -2.0859 -0.1987
 1814TIP3    H226934   5.325   3.307   3.555 -2.2590 -0.7696 -0.8876
 1815TIP3   OH226935   2.607   6.797  15.910  0.7017  0.0493  0.3921
 1815TIP3    H126936   2.523   6.809  15.953 -0.3420 -1.3936 -1.1604
 1815TIP3    H226937   2.664   6.759  15.977 -0.5278 -1.0017  0.8539
 1816TIP3   OH226938   3.239   1.054   2.760 -0.0678  0.3686  0.0897
 1816TIP3    H126939   3.163   0.995   2.759  0.9570 -0.9649 -0.7287
 1816TIP3    H226940   3.204   1.137   2.794 -2.1396  0.1102 -1.2954
 1817TIP3   OH226941   6.531   2.756  17.127 -0.0366 -0.1564  0.0988
 1817TIP3    H126942   6.497   2.673  17.095  0.2374  0.3557 -1.5463
 1817TIP3    H226943   6.454   2.812  17.138 -0.1066 -0.2567  0.1121
 1818TIP3   OH226944   4.347   4.116  16.691  0.3445  0.4635  0.1141
 1818TIP3    H126945   4.345   4.071  16.775  1.0928  0.2546  0.0243
 1818TIP3    H226946   4.294   4.062  16.632  0.1717  0.3905  0.3370
 1819TIP3   OH226947   0.734   1.057   3.200  0.1190 -0.5447  0.0765
 1819TIP3    H126948   0.780   1.130   3.158  0.8525 -1.1034 -0.1038
 1819TIP3    H226949   0.804   0.997   3.226 -0.3795 -0.5311  1.4723
 1820TIP3   OH226950   0.463   2.506   4.103 -0.2777 -0.5219  0.0270
 1820TIP3    H126951   0.457   2.498   4.007  1.3225 -1.6414 -0.0038
 1820TIP3    H226952   0.462   2.601   4.119  1.8557 -0.2175 -1.3111
 1821TIP3   OH226953   6.766   5.537  15.856  0.2316  0.5205 -0.1344
 1821TIP3    H126954   6.799   5.607  15.913 -0.1463  0.1505  0.5536
 1821TIP3    H226955   6.709   5.486  15.913  0.6111 -0.4291 -0.5980
 1822TIP3   OH226956   2.513   0.565   6.028 -0.5826 -0.1083 -0.1943
 1822TIP3    H126957   2.560   0.514   6.094  0.3438  0.1187 -0.6759
 1822TIP3    H226958   2.528   0.656   6.053 -0.1841 -0.0192 -0.7398
 1823TIP3   OH226959   5.667   4.528   1.817 -0.3017 -0.3478 -0.2922
 1823TIP3    H126960   5.707   4.466   1.879 -2.6692 -1.9126 -0.2581
 1823TIP3    H226961   5.579   4.543   1.852 -1.3542 -0.5573 -2.7885
 1824TIP3   OH226962   6.216   2.055  12.138  0.4444 -0.2993 -0.1591
 1824TIP3    H126963   6.280   1.984  12.129  0.5857  0.0224 -1.7625
 1824TIP3    H226964   6.135   2.017  12.104  0.6669  0.5105 -1.6032
 1825TIP3   OH226965   1.673   0.883   2.757 -0.2311  0.8453 -0.2553
 1825TIP3    H126966   1.709   0.795   2.742 -0.0450  0.8941 -0.0941
 1825TIP3    H226967   1.654   0.916   2.669 -0.9265  0.3830 -0.2885
 1826TIP3   OH226968   5.477   3.559   4.933 -0.6614  0.4275  0.2583
 1826TIP3    H126969   5.443   3.636   4.979 -1.5222  1.6673 -2.2975
 1826TIP3    H226970   5.556   3.590   4.889 -0.4090 -0.4415  0.0935
 1827TIP3   OH226971   0.798   5.300   2.601  0.2588  0.4575 -0.1561
 1827TIP3    H126972   0.743   5.222   2.612 -1.1298  1.6765  1.8655
 1827TIP3    H226973   0.826   5.296   2.510 -2.9732 -0.3592 -1.1811
 1828TIP3   OH226974   0.972   1.223   6.341 -0.4011  0.5078  0.4452
 1828TIP3    H126975   1.060   1.184   6.337 -1.5744 -2.3006  0.5070
 1828TIP3    H226976   0.958   1.260   6.255  0.4431 -0.0020  0.0748
 1829TIP3   OH226977   0.231   6.434   3.710  0.2558 -0.2719 -0.1722
 1829TIP3    H126978   0.297   6.370   3.737  0.0959  0.0419  0.9460
 1829TIP3    H226979   0.266   6.470   3.628  0.6907 -1.2676 -0.4438
 1830TIP3   OH226980   4.707   4.467  14.614  0.0434  0.0237  0.6688
 1830TIP3    H126981   4.736   4.430  14.697  0.0761 -1.6638 -0.0749
 1830TIP3    H226982   4.788   4.493  14.570 -0.0035  1.3878  1.3636
 1831TIP3   OH226983   6.177   3.534   1.453  0.0070 -0.0669 -0.3261
 1831TIP3    H126984   6.175   3.478   1.531  2.2661 -0.0363 -0.1963
 1831TIP3    H226985   6.090   3.526   1.415 -0.9654 -0.5083  1.9097
 1832TIP3   OH226986   2.788   1.997   0.549 -0.9533  0.0033 -0.4280
 1832TIP3    H126987   2.867   2.023   0.502 -0.8083  0.1374 -0.1093
 1832TIP3    H226988   2.755   2.079   0.587 -1.5682  0.0512 -1.0463
 1833TIP3   OH226989   2.115   3.624  16.736 -0.1951  0.3654  0.3128
 1833TIP3    H126990   2.151   3.696  16.789  0.4260  0.6880 -0.5303
 1833TIP3    H226991   2.190   3.566  16.722 -0.3106  0.3827 -0.3756
 1834TIP3   OH226992   5.949   1.597  13.762 -0.0573  0.3215 -0.3123
 1834TIP3    H126993   5.960   1.675  13.816  2.9211  0.4839 -1.0571
 1834TIP3    H226994   5.931   1.632  13.674  1.2535  0.1891 -0.6403
 1835TIP3   OH226995   5.444   2.843   0.461  0.3476 -0.3984 -0.1299
 1835TIP3    H126996   5.504   2.828   0.388  2.3819  0.5045  1.3124
 1835TIP3    H226997   5.490   2.808   0.537 -0.5365  1.2178  1.1595
 1836TIP3   OH226998   6.724   4.050  11.309  0.6098 -0.3897  1.4590
 1836TIP3    H126999   6.814   4.057  11.342  1.0652  0.5753  0.0451
 1836TIP3    H227000   6.729   3.981  11.243  0.6619  0.7517  0.2528
 1837TIP3   OH227001   4.661   2.201  15.954 -0.4734  0.0331  0.2256
 1837TIP3    H127002   4.682   2.168  16.042 -1.0228 -1.5591 -0.2268
 1837TIP3    H227003   4.740   2.185  15.903 -0.7497 -0.6033 -0.0019
 1838TIP3   OH227004   3.561   3.621   0.307  0.0789  0.2267  0.4530
 1838TIP3    H127005   3.568   3.540   0.256 -1.6154  1.2332 -1.4783
 1838TIP3    H227006   3.500   3.601   0.377 -0.7656 -0.0220 -0.3505
 1839TIP3   OH227007   0.477   0.123  11.865 -0.1423 -0.1824  0.5066
 1839TIP3    H127008   0.398   0.162  11.828  0.8243  1.9671  0.6273
 1839TIP3    H227009   0.547   0.184  11.841  1.1138 -0.8174  2.4398
 1840TIP3   OH227010   0.993   3.027  15.788 -0.0835  0.8907 -0.0878
 1840TIP3    H127011   0.903   3.042  15.815  0.4172  2.2000  0.9179
 1840TIP3    H227012   1.002   3.079  15.708 -1.3917 -2.5155 -2.5480
 1841TIP3   OH227013   6.223   3.750  13.088  0.0113 -0.2367 -0.4299
 1841TIP3    H127014   6.138   3.711  13.069 -0.7504  0.1647  1.9762
 1841TIP3    H227015   6.203   3.827  13.140  1.7747  0.7881 -1.2366
 1842TIP3   OH227016   3.916   0.008  14.204  0.1337 -0.2360 -0.1316
 1842TIP3    H127017   3.952  -0.069  14.160  0.6706 -0.2808  0.3804
 1842TIP3    H227018   3.932  -0.008  14.297 -0.2922  0.2169  0.0184
 1843TIP3   OH227019   4.628   1.636  12.450  0.1388 -0.0556  0.0199
 1843TIP3    H127020   4.580   1.576  12.506  2.5577 -0.8308  1.3005
 1843TIP3    H227021   4.720   1.625  12.475  1.0164  1.3453 -2.4084
 1844TIP3   OH227022   0.112   4.519   4.485  0.1202  0.0440  0.1057
 1844TIP3    H127023   0.050   4.536   4.555  0.9736 -0.4062  0.9799
 1844TIP3    H227024   0.159   4.602   4.474 -1.4555  0.7565 -1.3960
 1845TIP3   OH227025   1.682   2.578   5.109  0.4279 -0.1505  0.1836
 1845TIP3    H127026   1.608   2.634   5.085 -0.2646 -1.0123  0.3085
 1845TIP3    H227027   1.644   2.491   5.120  1.8669 -1.1172 -2.1855
 1846TIP3   OH227028   0.246   0.262  11.848 -0.3088  0.8490 -1.1067
 1846TIP3    H127029   0.177   0.219  11.899 -0.2086  0.1137 -1.5811
 1846TIP3    H227030   0.232   0.355  11.864  1.2337  0.5784  2.2084
 1847TIP3   OH227031   1.837   5.366   2.491 -0.4030 -0.1088 -0.0635
 1847TIP3    H127032   1.760   5.328   2.449 -0.4449  0.5200 -0.5597
 1847TIP3    H227033   1.824   5.349   2.584 -0.8252 -0.5799 -0.2075
 1848TIP3   OH227034   1.961   2.170   4.939  0.5511 -0.4726 -0.1012
 1848TIP3    H127035   2.036   2.192   4.884 -0.7611  1.3503 -1.2187
 1848TIP3    H227036   1.888   2.162   4.878 -0.5687 -0.2156  1.1822
 1849TIP3   OH227037   5.449   2.072  14.615 -0.6674  0.2603  0.6567
 1849TIP3    H127038   5.492   1.998  14.574  0.0885 -0.0250  1.9225
 1849TIP3    H227039   5.453   2.142  14.550  0.1714 -0.2876  0.1096
 1850TIP3   OH227040   6.374   2.985  14.772 -0.4995  0.2800  0.4645
 1850TIP3    H127041   6.460   2.942  14.769 -0.9039 -0.6194  1.3640
 1850TIP3    H227042   6.317   2.929  14.720 -0.8127  0.2226  0.8671
 1851TIP3   OH227043   1.976   6.312  16.169 -0.2924  0.2163 -0.1527
 1851TIP3    H127044   1.975   6.408  16.165 -0.7616  0.2519  0.9398
 1851TIP3    H227045   1.983   6.285  16.077  0.8383  1.3067 -0.4103
 1852TIP3   OH227046   5.026   5.804  13.397  0.1752  0.5156 -0.2611
 1852TIP3    H127047   5.012   5.727  13.341 -0.0401  1.1283 -1.0526
 1852TIP3    H227048   4.976   5.785  13.476  0.4313 -0.3332 -0.2955
 1853TIP3   OH227049   3.902   5.427   3.230 -0.3980 -0.2457 -0.5274
 1853TIP3    H127050   3.996   5.408   3.228 -0.1106  0.9055  1.1304
 1853TIP3    H227051   3.893   5.512   3.186 -0.7312 -0.5995 -1.1508
 1854TIP3   OH227052   1.866   2.775   5.032  0.2509  0.0723 -0.5370
 1854TIP3    H127053   1.851   2.688   5.068  1.3856  0.1889  0.2221
 1854TIP3    H227054   1.778   2.806   5.007 -0.5663 -0.0443  2.0302
 1855TIP3   OH227055   0.470   0.121   0.720 -0.3087 -0.2533  0.1270
 1855TIP3    H127056   0.520   0.039   0.715 -1.8152 -1.5213  3.9098
 1855TIP3    H227057   0.535   0.188   0.739  0.5041 -1.1076  0.4038
 1856TIP3   OH227058   4.128   6.238  14.180  0.2996 -0.0447  0.1755
 1856TIP3    H127059   4.038   6.257  14.207 -0.1507 -0.1199 -1.2445
 1856TIP3    H227060   4.134   6.143  14.183 -0.7810 -0.2791 -3.1039
 1857TIP3   OH227061   0.083   0.254  12.241  0.1589  0.6401  0.7774
 1857TIP3    H127062   0.038   0.328  12.201  1.0827  0.1738 -1.1853
 1857TIP3    H227063   0.176   0.270  12.223  0.3615 -1.0288  0.2260
 1858TIP3   OH227064   5.564   2.528   1.669  0.4069  0.0628  0.0928
 1858TIP3    H127065   5.497   2.555   1.732  0.4342 -1.1353  0.6320
 1858TIP3    H227066   5.518   2.529   1.584 -0.5079 -1.5038  0.5586
 1859TIP3   OH227067   4.878   5.013   5.290 -0.1928 -0.5404 -0.1172
 1859TIP3    H127068   4.870   4.934   5.342 -0.9779  1.0798  2.3267
 1859TIP3    H227069   4.967   5.045   5.307 -0.0377 -0.6366 -0.7249
 1860TIP3   OH227070   2.280   0.889  15.880 -0.1665  0.4065  0.4027
 1860TIP3    H127071   2.372   0.890  15.855  0.1043 -0.4294  1.3696
 1860TIP3    H227072   2.243   0.814  15.833 -0.6798  1.5401 -1.0704
 1861TIP3   OH227073   0.075   3.124   2.941  0.3228 -0.3316  0.0549
 1861TIP3    H127074   0.033   3.207   2.963  0.5867 -0.1702 -0.0433
 1861TIP3    H227075   0.052   3.109   2.849  2.3536  0.9082 -0.6935
 1862TIP3   OH227076   2.491   2.514  11.792  0.0343 -0.5668  0.1915
 1862TIP3    H127077   2.510   2.518  11.886  2.0924 -2.1086 -0.1201
 1862TIP3    H227078   2.530   2.593  11.756  0.6494 -0.7521  0.4338
 1863TIP3   OH227079   3.080   1.778  13.777  0.1465 -0.5159  0.0950
 1863TIP3    H127080   3.129   1.804  13.855  1.0846 -1.7160 -0.0906
 1863TIP3    H227081   3.095   1.849  13.715  1.3139 -0.6609  0.1912
 1864TIP3   OH227082   0.816   1.216  11.620 -0.0358  0.3412  0.0486
 1864TIP3    H127083   0.829   1.310  11.617 -0.2071  0.4833  2.6699
 1864TIP3    H227084   0.902   1.179  11.601 -0.4356  0.9577 -3.1529
 1865TIP3   OH227085   6.161   3.100   1.500  0.0147  0.1532 -0.5400
 1865TIP3    H127086   6.117   3.028   1.456  0.0616  0.0925 -0.4863
 1865TIP3    H227087   6.238   3.060   1.541 -1.7529 -0.3901  2.3571
 1866TIP3   OH227088   3.577   4.376  10.836 -0.5261 -0.6037  0.6267
 1866TIP3    H127089   3.618   4.366  10.922  2.3611  0.3190 -0.5742
 1866TIP3    H227090   3.622   4.312  10.780 -1.2711 -0.0997 -0.5809
 1867TIP3   OH227091   4.632   6.095  10.746 -0.3325 -0.0617  0.4023
 1867TIP3    H127092   4.703   6.059  10.692  0.4231  2.4235 -0.3391
 1867TIP3    H227093   4.563   6.117  10.683 -0.7298 -0.0862  0.8289
 1868TIP3   OH227094   6.369   2.479  13.595  0.2130 -0.0960 -0.1192
 1868TIP3    H127095   6.338   2.465  13.505  2.4718 -1.1645 -0.7847
 1868TIP3    H227096   6.396   2.570  13.598 -2.3445  0.6835  0.2971
 1869TIP3   OH227097   2.848   0.368   6.031  0.5922 -0.6206 -0.0220
 1869TIP3    H127098   2.865   0.459   6.007 -0.2945 -1.0151 -2.2425
 1869TIP3    H227099   2.907   0.352   6.105 -0.4185  2.2355  1.5060
 1870TIP3   OH227100   5.118   5.793  15.056  0.1143 -0.0618  0.2860
 1870TIP3    H127101   5.130   5.728  15.125  2.3866  0.6021  0.5415
 1870TIP3    H227102   5.165   5.757  14.981  0.4849  0.7941  0.1060
 1871TIP3   OH227103   4.394   4.647   0.475 -0.3441 -0.4728  0.2401
 1871TIP3    H127104   4.354   4.684   0.397  1.0912  0.7691  0.0711
 1871TIP3    H227105   4.341   4.680   0.548 -0.2877  0.2631 -0.0483
 1872TIP3   OH227106   5.529   2.583  14.440  0.4255  0.0700  0.1827
 1872TIP3    H127107   5.520   2.570  14.534  2.8100 -0.8059  0.3204
 1872TIP3    H227108   5.452   2.539  14.403  0.1231 -0.6789  1.6538
 1873TIP3   OH227109   4.221   3.899   3.933 -0.7435 -0.2357 -0.3644
 1873TIP3    H127110   4.133   3.860   3.933 -1.0908  0.4840 -2.0539
 1873TIP3    H227111   4.280   3.825   3.926 -1.2405 -0.6965  0.2677
 1874TIP3   OH227112   3.964   1.283  15.382  0.4169 -0.0445 -0.2923
 1874TIP3    H127113   3.958   1.216  15.314  3.0222 -1.1380  0.4851
 1874TIP3    H227114   3.903   1.253  15.450  0.6042 -0.9472 -0.5086
 1875TIP3   OH227115   2.546   1.697   1.814  0.2757  0.6354  0.2047
 1875TIP3    H127116   2.512   1.668   1.729 -1.3226 -0.7645  1.2675
 1875TIP3    H227117   2.625   1.646   1.828 -1.7279 -2.2991  1.3932
 1876TIP3   OH227118   5.956   5.347   6.237  0.2083  0.6873 -0.0521
 1876TIP3    H127119   6.051   5.348   6.231  0.3002  1.1739  1.2841
 1876TIP3    H227120   5.931   5.258   6.211  1.2945 -0.5356  2.9078
 1877TIP3   OH227121   1.536   5.368   4.909 -0.6049 -0.6913 -0.3270
 1877TIP3    H127122   1.507   5.429   4.841 -1.1143 -1.1343 -0.5121
 1877TIP3    H227123   1.478   5.386   4.984 -0.2363 -0.4071 -0.1040
 1878TIP3   OH227124   2.878   5.487   0.676  0.5103 -0.5358 -0.2241
 1878TIP3    H127125   2.834   5.436   0.607  0.8230 -2.1882  0.7652
 1878TIP3    H227126   2.808   5.506   0.739  0.1898  1.1194 -1.0682
 1879TIP3   OH227127   5.535   5.006   3.693  0.6706  0.2967  0.1447
 1879TIP3    H127128   5.475   4.933   3.678  1.1625  0.5622 -3.5341
 1879TIP3    H227129   5.530   5.022   3.788 -1.9807 -2.2826  0.5171
 1880TIP3   OH227130   2.871   3.772   5.016 -0.2464  0.0907 -0.0155
 1880TIP3    H127131   2.852   3.680   5.036 -0.7736  0.2627  0.2935
 1880TIP3    H227132   2.842   3.819   5.094 -1.8143  0.7165 -0.9694
 1881TIP3   OH227133   0.724   2.836   2.602  0.4988 -0.0394  0.5839
 1881TIP3    H127134   0.723   2.820   2.508 -2.0721 -3.6832  1.1484
 1881TIP3    H227135   0.803   2.791   2.633 -0.6103 -2.0241  0.6109
 1882TIP3   OH227136   5.327   0.536   6.033  0.2584 -0.0754  0.5322
 1882TIP3    H127137   5.406   0.566   5.988  0.5951 -1.2750  0.3335
 1882TIP3    H227138   5.359   0.494   6.113 -0.1556 -0.8994  0.2699
 1883TIP3   OH227139   4.189   3.460  15.592 -0.4029 -0.3294  0.3073
 1883TIP3    H127140   4.273   3.504  15.601 -0.0794 -0.4816 -1.7060
 1883TIP3    H227141   4.209   3.379  15.546 -1.3369 -1.4812  1.8717
 1884TIP3   OH227142   4.056   2.824  14.387  0.0809  0.1898  0.1887
 1884TIP3    H127143   4.140   2.855  14.354  0.0674 -0.0609 -0.0782
 1884TIP3    H227144   3.999   2.821  14.310  0.5903 -2.2585 -0.1307
 1885TIP3   OH227145   4.911   3.356   6.605 -0.2453  0.7245  0.1001
 1885TIP3    H127146   4.885   3.444   6.576 -0.9018  0.3220 -0.5650
 1885TIP3    H227147   5.005   3.351   6.587 -0.5561  0.6479 -1.5879
 1886TIP3   OH227148   6.600   6.261  13.450 -0.1506  0.2602 -0.3270
 1886TIP3    H127149   6.573   6.217  13.531  4.2094 -0.0149  1.1186
 1886TIP3    H227150   6.608   6.191  13.386 -0.7751  0.0766 -0.2118
 1887TIP3   OH227151   6.116   3.178  14.267  0.1137  0.7259 -0.7836
 1887TIP3    H127152   6.173   3.118  14.220  0.7926  0.4120  0.4138
 1887TIP3    H227153   6.044   3.123  14.300  0.7449  0.5538  0.3286
 1888TIP3   OH227154   4.783   1.212   3.757 -0.1216 -0.2708  0.0276
 1888TIP3    H127155   4.826   1.291   3.724  0.1192 -0.0463  0.8550
 1888TIP3    H227156   4.852   1.167   3.806 -0.8563  0.1358  1.4504
 1889TIP3   OH227157   5.703   5.001   2.154 -0.1426  0.0413 -0.1074
 1889TIP3    H127158   5.637   5.018   2.221  0.2706 -1.7840  0.8134
 1889TIP3    H227159   5.682   5.061   2.083 -2.0772  0.3005  0.6559
 1890TIP3   OH227160   1.558   5.445  12.658  0.2998 -0.2644  0.3453
 1890TIP3    H127161   1.589   5.455  12.748 -1.2373 -1.8756  1.0909
 1890TIP3    H227162   1.589   5.358  12.632 -1.2015 -0.7530  0.1399
 1891TIP3   OH227163   6.551   1.493   3.208 -0.4514  0.1215  0.0104
 1891TIP3    H127164   6.560   1.420   3.146 -1.9976 -0.5306  0.5523
 1891TIP3    H227165   6.459   1.493   3.232  0.4446 -0.7655  3.7341
 1892TIP3   OH227166   4.667   0.415   1.448 -0.5716 -0.4125 -0.2882
 1892TIP3    H127167   4.750   0.462   1.440 -0.5977 -0.2659  0.2756
 1892TIP3    H227168   4.691   0.323   1.452 -0.5191 -0.4502 -1.3844
 1893TIP3   OH227169   2.627   3.838   4.232 -0.2371  0.5625 -0.8498
 1893TIP3    H127170   2.659   3.901   4.167  1.3694  0.6275 -0.0094
 1893TIP3    H227171   2.622   3.889   4.314  0.6554 -0.2954 -0.2604
 1894TIP3   OH227172   3.302   3.988  12.636 -0.1746 -0.0784  0.4297
 1894TIP3    H127173   3.300   3.894  12.618  1.0458 -0.1582  0.7136
 1894TIP3    H227174   3.356   3.997  12.715  1.0595  1.0154 -0.5310
 1895TIP3   OH227175   5.177   0.358  11.885  0.2792 -0.1268 -0.2831
 1895TIP3    H127176   5.231   0.437  11.883  0.4154 -0.1940  0.5201
 1895TIP3    H227177   5.239   0.286  11.867  0.6721 -0.3033  1.6019
 1896TIP3   OH227178   5.612   4.973   1.041 -0.2318 -0.2356  0.4252
 1896TIP3    H127179   5.664   4.957   0.962 -2.0284 -0.5045 -0.7516
 1896TIP3    H227180   5.669   4.947   1.113  2.4550  2.5291 -0.5843
 1897TIP3   OH227181   5.024   4.761   4.965  0.4510 -0.2970 -0.2148
 1897TIP3    H127182   4.930   4.765   4.949  0.5253  2.9684 -0.1775
 1897TIP3    H227183   5.047   4.670   4.949 -2.9404 -1.4885  1.1614
 1898TIP3   OH227184   4.086   4.794   2.216 -0.1484  0.0615 -0.0411
 1898TIP3    H127185   4.038   4.809   2.134  1.2738  0.9777 -0.7282
 1898TIP3    H227186   4.035   4.727   2.262 -0.7688 -0.7216 -1.8324
 1899TIP3   OH227187   5.337   0.002   4.376 -0.3594 -0.0286 -0.2881
 1899TIP3    H127188   5.245   0.021   4.394 -0.5856 -0.7256 -0.6594
 1899TIP3    H227189   5.341  -0.094   4.378  0.0356 -0.0572 -1.8295
 1900TIP3   OH227190   6.699   3.087  15.460 -0.2338 -0.3496 -0.3728
 1900TIP3    H127191   6.719   3.167  15.508 -0.3911 -1.1842  1.1314
 1900TIP3    H227192   6.754   3.020  15.502 -0.9422 -1.2456 -0.8497
 1901TIP3   OH227193   3.531   0.587  17.057 -0.0511 -0.0088  0.2818
 1901TIP3    H127194   3.453   0.630  17.022 -2.0638 -0.6164  3.7899
 1901TIP3    H227195   3.596   0.657  17.064 -0.8417  0.8784 -1.0493
 1902TIP3   OH227196   0.153   4.448  12.309 -0.1483  0.4554  0.7380
 1902TIP3    H127197   0.245   4.446  12.336 -0.6042  1.4437  2.4875
 1902TIP3    H227198   0.138   4.362  12.270  1.7814  0.6593 -0.5423
 1903TIP3   OH227199   4.011   4.531  11.513 -0.2457  1.0026  0.6186
 1903TIP3    H127200   4.093   4.518  11.561  1.1556  0.7505 -1.7820
 1903TIP3    H227201   3.971   4.444  11.511  1.0311  0.4324 -1.0121
 1904TIP3   OH227202   6.466   4.246   5.220 -0.1593 -0.3553 -0.1653
 1904TIP3    H127203   6.517   4.323   5.244 -0.3248 -0.6312  1.1496
 1904TIP3    H227204   6.402   4.278   5.157  1.3920  0.0661 -1.5695
 1905TIP3   OH227205   3.215   1.118   0.097 -0.9505  0.0531  0.6256
 1905TIP3    H127206   3.308   1.139   0.085 -0.3758 -2.6596 -0.1781
 1905TIP3    H227207   3.176   1.136   0.011 -0.4858 -1.9226 -0.0225
 1906TIP3   OH227208   6.084   1.707  11.310  0.1573  0.0816 -0.2006
 1906TIP3    H127209   6.166   1.729  11.353  1.4505  0.0119 -2.6022
 1906TIP3    H227210   6.022   1.693  11.383  1.7193  2.1152  1.5656
 1907TIP3   OH227211   6.513   2.927  11.104  0.5565 -0.3051  0.1772
 1907TIP3    H127212   6.505   3.021  11.090 -0.8760 -0.4242  0.1077
 1907TIP3    H227213   6.484   2.913  11.194 -1.9941 -0.9918 -0.6988
 1908TIP3   OH227214   6.661   4.291  15.230  0.7102  0.1105 -0.1296
 1908TIP3    H127215   6.666   4.197  15.211  0.6268  0.1994 -0.6009
 1908TIP3    H227216   6.613   4.296  15.313 -0.8231 -0.1818 -0.9840
 1909TIP3   OH227217   4.978   6.781  17.154  0.4180  0.5769 -0.8743
 1909TIP3    H127218   4.885   6.758  17.163  0.5470  0.0870 -0.7950
 1909TIP3    H227219   4.980   6.877  17.161  0.3150  0.3682  2.7339
 1910TIP3   OH227220   0.835   3.156   2.888 -0.3767  0.5288  0.9643
 1910TIP3    H127221   0.833   3.133   2.981 -0.3224 -3.0906  0.1341
 1910TIP3    H227222   0.751   3.198   2.872 -2.2526 -2.7232  1.7696
 1911TIP3   OH227223   5.027   5.537  13.288  0.3194 -0.2814  0.1686
 1911TIP3    H127224   5.100   5.536  13.350 -0.1324  0.0396  0.7103
 1911TIP3    H227225   5.044   5.462  13.230  1.3427  0.0910 -0.0244
 1912TIP3   OH227226   6.088   0.329  15.986 -0.9135 -0.0596 -0.3950
 1912TIP3    H127227   6.085   0.377  15.904  0.0774 -0.7957 -0.8860
 1912TIP3    H227228   6.182   0.314  16.001 -1.0258  0.7992  1.3037
 1913TIP3   OH227229   2.149   0.159  14.898  0.3983  0.0987  0.4445
 1913TIP3    H127230   2.115   0.163  14.809 -1.0180 -1.1328  0.9133
 1913TIP3    H227231   2.237   0.122  14.889  0.0154 -0.6089 -0.3775
 1914TIP3   OH227232   5.600   6.490  17.067 -0.4959 -0.3203  0.2397
 1914TIP3    H127233   5.605   6.511  16.973 -0.3344  0.5232  0.4270
 1914TIP3    H227234   5.609   6.395  17.071 -2.2489 -0.5520 -0.7424
 1915TIP3   OH227235   3.773   5.556  11.578  0.6587 -0.6540 -0.4376
 1915TIP3    H127236   3.833   5.590  11.512  0.8308  0.5694  0.3283
 1915TIP3    H227237   3.831   5.513  11.642  0.7433  0.5366  0.3084
 1916TIP3   OH227238   0.797   5.726   3.828  0.0997 -0.1502 -0.2430
 1916TIP3    H127239   0.837   5.799   3.781 -2.9575  0.6800 -1.6761
 1916TIP3    H227240   0.788   5.657   3.762  0.0240 -0.6752  0.3069
 1917TIP3   OH227241   6.501   2.438   1.444 -0.0673 -0.5386  0.3684
 1917TIP3    H127242   6.548   2.452   1.527  1.1965 -0.2773 -0.3790
 1917TIP3    H227243   6.531   2.508   1.387 -1.7871 -0.0532  0.0325
 1918TIP3   OH227244   5.089   2.234   2.008  0.0109  0.0259  0.2324
 1918TIP3    H127245   5.029   2.301   1.976  1.0862  0.9448  0.1223
 1918TIP3    H227246   5.120   2.189   1.930  0.0630  0.0681  0.2287
 1919TIP3   OH227247   0.795   1.969   1.545 -0.1740  0.1071  0.0281
 1919TIP3    H127248   0.776   1.925   1.463 -0.2126  0.4733 -0.1599
 1919TIP3    H227249   0.716   1.957   1.598  0.0587 -0.6023  0.2208
 1920TIP3   OH227250   5.435   3.915   0.866 -0.0311  0.0224  0.1481
 1920TIP3    H127251   5.394   3.829   0.854 -0.2039  0.0592  0.4888
 1920TIP3    H227252   5.432   3.931   0.960 -1.3807  1.0693 -0.0443
 1921TIP3   OH227253   1.173   5.647  15.962  0.1758 -0.3530  0.2549
 1921TIP3    H127254   1.190   5.569  15.909  0.0052 -0.5803  0.5333
 1921TIP3    H227255   1.240   5.710  15.934 -0.5965 -0.0820 -1.0050
 1922TIP3   OH227256   5.658   3.771  15.191  0.2573  0.7342  0.4997
 1922TIP3    H127257   5.673   3.679  15.171  1.3235  1.4212 -1.9966
 1922TIP3    H227258   5.582   3.795  15.138  0.7927  1.6077  0.1151
 1923TIP3   OH227259   0.909   0.396  13.042  0.1815  0.0996 -0.4642
 1923TIP3    H127260   0.864   0.479  13.059  3.1264  1.8342 -0.6668
 1923TIP3    H227261   0.916   0.391  12.947 -1.8811 -1.4984 -0.5657
 1924TIP3   OH227262   1.816   4.292   2.086 -0.1270  0.1714  0.1952
 1924TIP3    H127263   1.839   4.221   2.147  2.3842 -1.3776 -2.4176
 1924TIP3    H227264   1.856   4.370   2.125  0.2148 -0.5231  1.2727
 1925TIP3   OH227265   5.915   6.737  12.263  0.1486 -0.5122 -0.2169
 1925TIP3    H127266   6.001   6.760  12.227 -0.5287  0.2842 -1.3483
 1925TIP3    H227267   5.919   6.642  12.274  1.1038 -0.5090 -0.4756
 1926TIP3   OH227268   5.280   0.224   0.209  0.7356  0.0398 -0.0477
 1926TIP3    H127269   5.234   0.204   0.291 -0.8582 -0.0411 -0.9498
 1926TIP3    H227270   5.354   0.163   0.208 -0.8967 -1.9854 -0.0633
 1927TIP3   OH227271   1.695   3.242  16.373 -0.4954 -0.2011 -0.1992
 1927TIP3    H127272   1.601   3.229  16.386 -0.2481 -1.1608  0.7151
 1927TIP3    H227273   1.703   3.269  16.282 -1.4366 -2.5142 -1.0159
 1928TIP3   OH227274   3.303   6.484   4.453  0.1791 -0.3423  0.6193
 1928TIP3    H127275   3.379   6.452   4.404 -1.3559  0.0419 -2.1439
 1928TIP3    H227276   3.228   6.459   4.399 -1.5633  0.5119  2.5982
 1929TIP3   OH227277   2.019   4.032  12.182  0.4073 -0.4069 -0.4859
 1929TIP3    H127278   2.037   4.025  12.276  0.8140  0.7579 -0.4713
 1929TIP3    H227279   2.045   4.122  12.159 -0.8546 -0.2798 -1.4599
 1930TIP3   OH227280   1.842   1.270   3.037  0.6229 -0.0809  0.6073
 1930TIP3    H127281   1.846   1.362   3.062 -1.0082 -0.4413  2.3288
 1930TIP3    H227282   1.775   1.267   2.968 -0.8885 -0.2785  2.0701
 1931TIP3   OH227283   6.621   3.025  12.831 -0.2286  0.0421  0.0659
 1931TIP3    H127284   6.700   2.980  12.802 -1.6531 -1.5210 -1.5377
 1931TIP3    H227285   6.619   3.106  12.780 -1.5014 -1.6090 -2.6447
 1932TIP3   OH227286   0.219   6.752  15.294 -0.1771  0.4356  0.2802
 1932TIP3    H127287   0.293   6.758  15.354 -0.5552 -0.2028  0.8166
 1932TIP3    H227288   0.251   6.791  15.212  1.0053 -0.5919  0.2501
 1933TIP3   OH227289   4.736   4.271   2.794 -0.6765 -0.0080 -0.0216
 1933TIP3    H127290   4.735   4.197   2.732 -0.2463 -0.3859  0.4195
 1933TIP3    H227291   4.643   4.288   2.811 -0.7814 -2.0511  1.7474
 1934TIP3   OH227292   5.524   0.263  11.622  0.0841  0.5282  0.3178
 1934TIP3    H127293   5.443   0.305  11.650 -1.2347 -1.6639 -0.0598
 1934TIP3    H227294   5.529   0.281  11.528 -0.1419  0.3806  0.2780
 1935TIP3   OH227295   2.233   1.359   1.978  0.1145  0.5446  0.0438
 1935TIP3    H127296   2.198   1.421   1.913  2.1458  1.4864 -0.1861
 1935TIP3    H227297   2.172   1.285   1.975 -0.2877  0.9103 -2.3647
 1936TIP3   OH227298   1.632   2.796   0.334  0.3449  0.5154  0.1845
 1936TIP3    H127299   1.570   2.832   0.397  0.4578  1.0531 -0.0053
 1936TIP3    H227300   1.618   2.847   0.255  2.6100  2.2199  0.8337
 1937TIP3   OH227301   4.218   6.105   6.170 -0.1932 -0.1613 -0.4342
 1937TIP3    H127302   4.264   6.173   6.120 -1.2524  0.6392 -0.3415
 1937TIP3    H227303   4.248   6.023   6.131  1.9877  0.2840  0.1953
 1938TIP3   OH227304   3.679   6.321  14.424 -0.7016  0.5337 -0.3108
 1938TIP3    H127305   3.661   6.375  14.501 -2.3326  3.0882 -2.3947
 1938TIP3    H227306   3.605   6.260  14.420 -1.0577  0.9671 -0.3394
 1939TIP3   OH227307   6.157   1.479   0.545  0.2099 -0.1135  0.0209
 1939TIP3    H127308   6.079   1.531   0.564  0.8753  1.1532 -0.6576
 1939TIP3    H227309   6.131   1.423   0.471  0.0580  0.5885 -0.4651
 1940TIP3   OH227310   2.566   1.152  13.839 -0.1366 -0.4055 -0.3455
 1940TIP3    H127311   2.558   1.057  13.849  1.0427 -0.5977 -1.1764
 1940TIP3    H227312   2.643   1.165  13.783  1.1511  1.1297  1.6861
 1941TIP3   OH227313   0.224   4.442   4.169 -0.4409  0.5075  0.8027
 1941TIP3    H127314   0.319   4.441   4.163 -0.4196 -1.8978  1.1797
 1941TIP3    H227315   0.194   4.473   4.084  0.6859  1.5431  0.7832
 1942TIP3   OH227316   0.686   5.773  13.046  0.2193 -0.1164  0.1458
 1942TIP3    H127317   0.711   5.758  12.955 -0.8287  1.4160 -0.4175
 1942TIP3    H227318   0.751   5.724  13.097  1.2834 -0.3588 -1.3920
 1943TIP3   OH227319   0.671   0.356   0.754  0.2410 -0.0791 -0.0547
 1943TIP3    H127320   0.637   0.444   0.740  1.5258  0.5169  0.4684
 1943TIP3    H227321   0.707   0.330   0.669 -2.2278 -1.0411 -0.8265
 1944TIP3   OH227322   2.219   6.032  15.497 -0.9962 -0.1918  0.4154
 1944TIP3    H127323   2.140   6.042  15.551 -1.2549  0.5628 -0.0933
 1944TIP3    H227324   2.250   6.122  15.485  0.0318 -0.4983  0.7444
 1945TIP3   OH227325   1.321   2.397   0.428  0.2943 -0.0438  0.7701
 1945TIP3    H127326   1.291   2.316   0.385 -0.9538  0.5730  0.4514
 1945TIP3    H227327   1.263   2.406   0.504  1.4582 -0.2751  1.7044
 1946TIP3   OH227328   3.264   2.725   1.972 -0.2096 -0.0772 -0.1853
 1946TIP3    H127329   3.251   2.634   1.995  1.5500 -0.5864 -1.1307
 1946TIP3    H227330   3.352   2.746   2.003  0.3804  0.5494 -2.1938
 1947TIP3   OH227331   2.438   3.023  11.976  0.4711 -0.1224  0.0379
 1947TIP3    H127332   2.417   3.028  11.883  3.8270  0.1953 -0.7494
 1947TIP3    H227333   2.443   3.115  12.005  3.4115 -0.0652 -0.4764
 1948TIP3   OH227334   5.933   6.040  13.629  0.2817 -0.3752  0.2960
 1948TIP3    H127335   5.902   6.127  13.606 -0.6719 -0.1938  2.1850
 1948TIP3    H227336   5.855   5.992  13.656  0.5750 -2.2877 -2.1005
 1949TIP3   OH227337   0.864   6.484  14.080  0.1597 -0.2723  0.5848
 1949TIP3    H127338   0.932   6.480  14.011  1.6562 -0.5273  2.0432
 1949TIP3    H227339   0.851   6.577  14.095 -0.2277 -0.2115 -0.0800
 1950TIP3   OH227340   1.347   3.124   5.031  0.7028  0.3499  0.2606
 1950TIP3    H127341   1.323   3.037   5.000 -1.0681  1.3388 -1.2045
 1950TIP3    H227342   1.295   3.136   5.111  1.6642 -0.2903  0.9981
 1951TIP3   OH227343   0.693   2.231   1.861 -0.4697 -0.1403 -0.2013
 1951TIP3    H127344   0.677   2.201   1.950 -1.3010  0.2146 -0.2338
 1951TIP3    H227345   0.778   2.192   1.838  0.4534  0.9614  1.2670
 1952TIP3   OH227346   4.679   1.492  11.511  0.4945  0.0075  0.2747
 1952TIP3    H127347   4.705   1.470  11.421  1.4602 -1.0277  0.7891
 1952TIP3    H227348   4.762   1.496  11.559 -0.0649 -0.0913  1.2572
 1953TIP3   OH227349   3.562   6.691  11.405  0.1809  0.3123  0.0974
 1953TIP3    H127350   3.586   6.676  11.313 -1.9043 -1.9356 -0.1446
 1953TIP3    H227351   3.470   6.663  11.410  0.1739  0.7166  2.8062
 1954TIP3   OH227352   1.048   0.728   3.519  0.1434  0.0241  0.5117
 1954TIP3    H127353   1.117   0.777   3.564 -0.3870  0.1212  1.2296
 1954TIP3    H227354   0.996   0.690   3.590  0.2358 -1.1539 -0.0337
 1955TIP3   OH227355   6.002   5.621  15.717  0.2324  0.6555  0.0426
 1955TIP3    H127356   5.955   5.687  15.768  1.4479  1.6235 -0.0736
 1955TIP3    H227357   6.063   5.671  15.663  0.7664 -0.5295 -0.4813
 1956TIP3   OH227358   5.803   4.091  11.382 -0.4476  0.3145 -0.2395
 1956TIP3    H127359   5.789   4.003  11.346 -2.5035  0.0782  0.9910
 1956TIP3    H227360   5.798   4.078  11.477  1.4372  1.4391  0.0361
 1957TIP3   OH227361   4.103   4.986  16.611  0.1914  0.7072 -0.2806
 1957TIP3    H127362   4.175   4.970  16.672  1.6099  0.2762 -2.0184
 1957TIP3    H227363   4.032   5.022  16.665  1.2400 -0.1176  1.6741
 1958TIP3   OH227364   1.598   2.502  15.799 -0.1255 -0.4821  0.5396
 1958TIP3    H127365   1.570   2.532  15.885 -2.3298 -0.4097 -0.1548
 1958TIP3    H227366   1.541   2.548  15.738 -0.1100 -2.2153 -0.8300
 1959TIP3   OH227367   3.098   5.293  17.153  0.2119 -0.0839 -0.1147
 1959TIP3    H127368   3.072   5.385  17.157  2.3317  0.5115  0.7081
 1959TIP3    H227369   3.112   5.275  17.060  0.0913  0.5127 -0.2482
 1960TIP3   OH227370   6.265   6.162  11.044 -0.1212 -0.4930  0.1746
 1960TIP3    H127371   6.307   6.244  11.070  0.2077 -1.2648  2.1925
 1960TIP3    H227372   6.174   6.173  11.071 -0.5980  0.0733 -1.6158
 1961TIP3   OH227373   1.125   6.271   0.784 -0.5582  0.2537  0.1174
 1961TIP3    H127374   1.097   6.362   0.793 -0.0183  0.4963 -0.5761
 1961TIP3    H227375   1.195   6.274   0.719 -0.3667 -0.6262  0.2756
 1962TIP3   OH227376   5.295   0.456   0.098 -0.2393  0.7212 -0.1375
 1962TIP3    H127377   5.305   0.362   0.114  2.4305  1.0440  0.2202
 1962TIP3    H227378   5.228   0.483   0.161 -1.5603 -1.0541 -0.7367
 1963TIP3   OH227379   2.271   6.419   4.373  0.4058  0.2086 -0.0549
 1963TIP3    H127380   2.193   6.466   4.343 -1.9070 -1.9500  2.3562
 1963TIP3    H227381   2.238   6.334   4.402  4.0973 -1.8926 -1.6591
 1964TIP3   OH227382   4.820   0.671  16.381 -0.0246 -0.4838 -0.6346
 1964TIP3    H127383   4.859   0.616  16.448 -0.1563  0.9644  0.6400
 1964TIP3    H227384   4.874   0.657  16.303  1.3224 -0.6318  0.3280
 1965TIP3   OH227385   5.285   4.420  11.542  0.1012  0.0235  0.0503
 1965TIP3    H127386   5.224   4.493  11.551  0.2205  0.1919 -0.4758
 1965TIP3    H227387   5.258   4.358  11.610  0.0497  0.5895  0.5527
 1966TIP3   OH227388   0.079   4.937   4.895  0.6253  0.4121 -0.3406
 1966TIP3    H127389   0.098   4.958   4.804 -1.5472 -0.4301 -1.0369
 1966TIP3    H227390   0.041   5.017   4.931  2.3848  1.0482  0.1042
 1967TIP3   OH227391   2.016   2.657  16.342 -0.3278  0.3830 -0.3246
 1967TIP3    H127392   1.968   2.679  16.422  0.1220 -1.1698  0.3774
 1967TIP3    H227393   1.977   2.576  16.311 -0.0453  0.6144 -1.3214
 1968TIP3   OH227394   0.467   4.941  10.600 -0.2239 -0.1632 -0.3627
 1968TIP3    H127395   0.441   4.857  10.638  0.1589 -0.2609 -0.3190
 1968TIP3    H227396   0.430   4.940  10.512  0.3957 -0.6815 -0.6159
 1969TIP3   OH227397   4.849   6.234   0.986  0.1509  0.0295  0.1269
 1969TIP3    H127398   4.848   6.180   0.906  0.5557  1.1645 -0.6626
 1969TIP3    H227399   4.926   6.290   0.976 -0.7410  1.3536  0.5173
 1970TIP3   OH227400   2.887   1.196   3.941  0.9175  0.3266 -0.4681
 1970TIP3    H127401   2.962   1.137   3.949  0.2851 -0.6683 -1.7118
 1970TIP3    H227402   2.906   1.248   3.863  1.5374  1.8943  0.6993
 1971TIP3   OH227403   0.353   5.172  11.209 -0.0614  0.0344 -0.1362
 1971TIP3    H127404   0.440   5.180  11.249  0.5323  1.3860 -1.6519
 1971TIP3    H227405   0.303   5.245  11.247 -0.9001 -1.3892  1.5712
 1972TIP3   OH227406   5.261   6.401  12.333 -0.5607 -0.1771 -0.0015
 1972TIP3    H127407   5.287   6.463  12.265  0.2193  0.9892  1.3388
 1972TIP3    H227408   5.310   6.321  12.314 -0.7244 -0.0236 -1.0888
 1973TIP3   OH227409   0.806   0.322   1.687  0.5501 -0.5871 -0.1446
 1973TIP3    H127410   0.749   0.246   1.700  0.1232 -0.0243  1.3242
 1973TIP3    H227411   0.829   0.318   1.594 -0.2649 -1.9503 -0.3117
 1974TIP3   OH227412   6.542   3.597   5.527 -0.3791  0.3794  0.0076
 1974TIP3    H127413   6.515   3.682   5.562  0.3369  0.5595  0.1271
 1974TIP3    H227414   6.609   3.618   5.462  1.0186 -0.1891  1.2276
 1975TIP3   OH227415   5.097   6.106   1.527 -0.1585 -0.0278 -0.3549
 1975TIP3    H127416   5.002   6.101   1.534 -0.3205  0.8843 -1.6973
 1975TIP3    H227417   5.113   6.116   1.433  1.2694 -0.4027 -0.1541
 1976TIP3   OH227418   5.198   5.675   3.517 -0.0362 -0.2008 -0.0433
 1976TIP3    H127419   5.152   5.614   3.459 -0.4147 -0.2586  0.3173
 1976TIP3    H227420   5.147   5.675   3.597 -0.2178  0.8405 -0.1496
 1977TIP3   OH227421   5.151   0.632  12.728  0.7754  0.0286 -0.3544
 1977TIP3    H127422   5.093   0.561  12.701  1.5209 -0.4446 -0.7400
 1977TIP3    H227423   5.096   0.710  12.726  0.1095 -0.4390 -0.5440
 1978TIP3   OH227424   3.396   2.413  11.069  0.0737  0.7008  0.4448
 1978TIP3    H127425   3.373   2.324  11.043 -0.0890  1.2930 -1.5210
 1978TIP3    H227426   3.435   2.452  10.991  1.6935  1.8418  1.7686
 1979TIP3   OH227427   5.742   2.424   2.911  0.5833  0.2934  0.2056
 1979TIP3    H127428   5.745   2.482   2.836 -0.4027 -1.8763 -1.5530
 1979TIP3    H227429   5.834   2.401   2.927  0.8664  1.4161  0.1903
 1980TIP3   OH227430   0.288   3.280  15.596  0.3155 -0.0291  0.1973
 1980TIP3    H127431   0.300   3.348  15.662  0.2647 -1.5618  1.8351
 1980TIP3    H227432   0.328   3.315  15.517  1.4534  1.3564  1.3704
 1981TIP3   OH227433   5.865   5.842  15.800  0.3645 -0.0867 -0.0848
 1981TIP3    H127434   5.770   5.846  15.812  0.3729  1.2695 -0.3868
 1981TIP3    H227435   5.882   5.893  15.720  1.2962 -0.7217 -0.3013
 1982TIP3   OH227436   5.028   1.873  14.179  0.3671 -0.2230  0.0486
 1982TIP3    H127437   5.008   1.831  14.096  0.1793 -2.0947  1.0183
 1982TIP3    H227438   5.012   1.966  14.163 -3.4604 -0.9612 -0.9047
 1983TIP3   OH227439   1.649   6.664   0.729 -0.0234  0.6828  0.6957
 1983TIP3    H127440   1.636   6.747   0.774  1.4478  1.4725 -0.3337
 1983TIP3    H227441   1.675   6.688   0.641  0.4858 -0.8796  0.4083
 1984TIP3   OH227442   0.709   6.559   5.282  0.2896 -0.1614 -0.1473
 1984TIP3    H127443   0.729   6.466   5.299  1.2206  0.0830  0.1536
 1984TIP3    H227444   0.617   6.559   5.256  0.1459 -1.1187  0.3112
 1985TIP3   OH227445   2.484   3.698   0.675 -0.1460  0.4645  0.5398
 1985TIP3    H127446   2.487   3.642   0.597  1.6508  1.1205  0.1168
 1985TIP3    H227447   2.456   3.639   0.745  0.3224 -0.6367 -0.1718
 1986TIP3   OH227448   0.968   3.872   5.960  0.0148 -0.2292 -0.6927
 1986TIP3    H127449   0.938   3.962   5.945 -1.5973 -0.4383  1.0744
 1986TIP3    H227450   1.055   3.882   5.998 -0.9549  0.6820  1.3670
 1987TIP3   OH227451   1.019   3.405   0.524 -0.0880 -0.0525 -0.1288
 1987TIP3    H127452   0.960   3.343   0.567  0.2355 -1.0059 -1.0288
 1987TIP3    H227453   1.007   3.388   0.431  0.2738  1.0010 -0.3706
 1988TIP3   OH227454   2.566   2.703  16.826 -0.3674 -0.5569  0.2719
 1988TIP3    H127455   2.513   2.755  16.767  0.6388  1.4541  1.0946
 1988TIP3    H227456   2.507   2.635  16.858 -1.6763  0.0147 -0.8783
 1989TIP3   OH227457   4.653   4.381  11.726 -0.3159  0.3084  0.5454
 1989TIP3    H127458   4.600   4.445  11.775  0.2261 -0.4152  2.0931
 1989TIP3    H227459   4.592   4.344  11.662 -0.2737  3.4798 -1.4925
 1990TIP3   OH227460   6.566   5.389   3.970  0.8263  0.2787  0.1561
 1990TIP3    H127461   6.592   5.366   3.880 -0.1136  0.8213 -0.2657
 1990TIP3    H227462   6.524   5.309   4.003  0.0789  0.4554 -0.3288
 1991TIP3   OH227463   1.073   4.431  11.250  0.0696  0.6482  0.5111
 1991TIP3    H127464   1.101   4.346  11.284  0.4744 -0.2631 -1.9661
 1991TIP3    H227465   1.031   4.410  11.166 -0.1583  2.8523  0.0499
 1992TIP3   OH227466   1.537   6.035  10.777 -0.5095  0.2646 -0.4074
 1992TIP3    H127467   1.489   6.106  10.820 -0.5152 -0.0156  0.0515
 1992TIP3    H227468   1.471   5.989  10.725 -0.7469 -0.1367  0.2444
 1993TIP3   OH227469   1.309   5.786   2.265  0.0421  0.1719  0.4701
 1993TIP3    H127470   1.219   5.816   2.270 -0.2832 -0.9839  1.8129
 1993TIP3    H227471   1.357   5.861   2.229 -1.3491  0.9638  0.2205
 1994TIP3   OH227472   0.502   1.915  13.518 -0.2511  0.1914 -0.1816
 1994TIP3    H127473   0.498   1.854  13.592 -0.6981 -0.6460 -0.9037
 1994TIP3    H227474   0.450   1.874  13.449  1.2388  0.3563 -1.4296
 1995TIP3   OH227475   5.331   0.159   3.264 -0.2440  0.0448 -0.0966
 1995TIP3    H127476   5.318   0.069   3.233 -1.9804  0.1091  0.4016
 1995TIP3    H227477   5.320   0.154   3.359  1.1069  0.5489  0.1018
 1996TIP3   OH227478   4.834   4.914  12.434 -0.5789  0.3732  0.9591
 1996TIP3    H127479   4.782   4.906  12.514 -2.7251  0.4246 -0.4167
 1996TIP3    H227480   4.814   4.836  12.384 -0.3804  1.0473 -0.1931
 1997TIP3   OH227481   3.774   0.133   2.052  0.1084  0.5495  0.0601
 1997TIP3    H127482   3.713   0.090   2.112  0.7407 -0.9959 -0.4034
 1997TIP3    H227483   3.834   0.180   2.110 -0.3747  0.5406  0.5762
 1998TIP3   OH227484   1.590   4.126  11.848 -0.0986 -0.2476 -0.7931
 1998TIP3    H127485   1.647   4.070  11.900  0.2042 -0.8476 -1.7551
 1998TIP3    H227486   1.562   4.070  11.775  0.7087  1.0382 -2.1128
 1999TIP3   OH227487   0.167   6.476   5.953 -0.2255 -0.2590  1.1665
 1999TIP3    H127488   0.097   6.476   5.887 -0.8381 -1.2790  1.7834
 1999TIP3    H227489   0.197   6.385   5.956  1.3365  0.2337  0.7094
 2000TIP3   OH227490   3.060   5.899  14.176  0.0098  0.4407 -0.6334
 2000TIP3    H127491   2.989   5.917  14.115 -0.9094  0.3945  0.4035
 2000TIP3    H227492   3.039   5.814  14.214  0.4295  0.5878 -0.0557
 2001TIP3   OH227493   5.888   6.159  12.178 -0.2787 -0.1697  0.7597
 2001TIP3    H127494   5.969   6.164  12.127 -0.2937 -0.6143  0.6842
 2001TIP3    H227495   5.827   6.217  12.132 -0.3824 -0.7975  0.0870
 2002TIP3   OH227496   1.699   5.965   0.568 -0.0257  0.3716 -0.4144
 2002TIP3    H127497   1.791   5.988   0.551  0.3113 -0.2057  0.5729
 2002TIP3    H227498   1.693   5.960   0.664 -0.9000 -0.3684 -0.5036
 2003TIP3   OH227499   5.350   4.888  12.611  0.4763  0.3251 -0.0851
 2003TIP3    H127500   5.434   4.869  12.570  0.1934 -1.1060 -0.0202
 2003TIP3    H227501   5.285   4.868  12.544  0.0947 -0.5160  0.5277
 2004TIP3   OH227502   0.173   6.131   3.548 -0.4876  0.0586 -0.0520
 2004TIP3    H127503   0.181   6.042   3.513  1.2860  0.0451  0.3280
 2004TIP3    H227504   0.179   6.121   3.643 -1.5542  0.4597  0.0573
 2005TIP3   OH227505   1.741   5.147  13.609 -0.2297 -0.4177  0.1453
 2005TIP3    H127506   1.740   5.236  13.643  0.4909 -0.2328 -0.3178
 2005TIP3    H227507   1.648   5.125  13.598 -0.3904  0.5803 -0.5404
 2006TIP3   OH227508   2.744   1.022   6.104 -0.3950  0.0288  0.0831
 2006TIP3    H127509   2.757   1.085   6.174  0.7419  1.3325 -1.2430
 2006TIP3    H227510   2.797   0.947   6.130 -0.6381  0.1739  1.0147
 2007TIP3   OH227511   3.621   2.036  12.740  0.1370  0.1902  0.4225
 2007TIP3    H127512   3.618   2.103  12.672  1.7197 -1.5437 -1.4226
 2007TIP3    H227513   3.568   2.072  12.811 -1.2907  2.2068 -1.5744
 2008TIP3   OH227514   4.243   5.447  15.085 -0.6019  0.5772 -0.1349
 2008TIP3    H127515   4.308   5.378  15.072 -0.6723  0.8854 -2.3135
 2008TIP3    H227516   4.269   5.517  15.025 -1.7999  1.5467  0.4374
 2009TIP3   OH227517   6.601   3.025  14.478 -0.1744 -0.0463 -0.8509
 2009TIP3    H127518   6.652   2.978  14.413  0.1089  0.2739 -0.8640
 2009TIP3    H227519   6.571   3.104  14.432  0.6876  0.5785 -0.3735
 2010TIP3   OH227520   6.171   0.861   6.007 -0.0670  0.5406  0.2604
 2010TIP3    H127521   6.148   0.777   5.967 -0.5563 -0.1599  1.9811
 2010TIP3    H227522   6.260   0.878   5.978  0.0326 -0.5680 -0.1100
 2011TIP3   OH227523   4.258   3.994  17.187  0.0814  0.2030  0.4487
 2011TIP3    H127524   4.311   3.924  17.149 -2.0065 -0.8140 -0.7042
 2011TIP3    H227525   4.256   4.062  17.120  1.1658  0.8977  1.1098
 2012TIP3   OH227526   2.213   5.473  12.764  0.8020  0.6940  0.1484
 2012TIP3    H127527   2.235   5.392  12.810  1.4302  0.1567 -1.0668
 2012TIP3    H227528   2.186   5.533  12.833 -1.1615 -1.0337  0.9252
 2013TIP3   OH227529   1.369   3.478   4.316 -0.0275  0.2251  0.4082
 2013TIP3    H127530   1.386   3.383   4.311  1.1924  0.2961  2.5908
 2013TIP3    H227531   1.442   3.517   4.268  0.0048  0.0909  0.3461
 2014TIP3   OH227532   4.947   4.369  14.212 -0.3243  0.3847  0.0758
 2014TIP3    H127533   4.922   4.425  14.138 -1.3749 -0.5286 -0.2756
 2014TIP3    H227534   4.910   4.283  14.190  0.3097 -0.1638  1.1444
 2015TIP3   OH227535   4.236   0.004  14.766 -0.1035  0.4976 -0.5374
 2015TIP3    H127536   4.273   0.091  14.746  0.5189 -0.0038 -1.6080
 2015TIP3    H227537   4.263  -0.051  14.692 -2.2281 -0.1113 -0.8963
 2016TIP3   OH227538   1.437   6.735   0.411  0.6588 -0.0790  0.2333
 2016TIP3    H127539   1.393   6.664   0.458 -1.4189  2.5151  2.4202
 2016TIP3    H227540   1.515   6.753   0.462  1.7369 -1.4247 -0.9013
 2017TIP3   OH227541   4.981   5.248  14.985 -0.2033 -0.1636  0.5654
 2017TIP3    H127542   4.968   5.261  14.891  2.4402  2.3802  0.4784
 2017TIP3    H227543   4.918   5.308  15.027 -0.4112 -0.2667  0.3982
 2018TIP3   OH227544   2.148   6.530   5.244  0.4464 -0.1371  0.1055
 2018TIP3    H127545   2.218   6.518   5.309  1.4286  1.7428 -0.5578
 2018TIP3    H227546   2.191   6.575   5.172 -1.1262 -0.3515 -0.9737
 2019TIP3   OH227547   5.005   3.289   4.033  0.3346 -0.4130 -0.3804
 2019TIP3    H127548   5.042   3.377   4.039  0.8476 -0.5803 -0.9977
 2019TIP3    H227549   5.069   3.233   4.077 -0.2002 -0.4227  0.3931
 2020TIP3   OH227550   5.919   2.164   0.754 -0.0130  0.0680 -0.1607
 2020TIP3    H127551   5.988   2.116   0.801  0.8824  1.6437  0.1680
 2020TIP3    H227552   5.960   2.247   0.730 -1.2692  0.3177 -1.5090
 2021TIP3   OH227553   0.165   1.364   1.535  0.2369  0.2912 -0.3572
 2021TIP3    H127554   0.231   1.295   1.536  0.0003  0.0286 -2.0872
 2021TIP3    H227555   0.084   1.319   1.511 -0.2096  0.9330 -0.0801
 2022TIP3   OH227556   2.638   6.082  15.461  0.0048 -0.5540  0.2261
 2022TIP3    H127557   2.602   5.998  15.489  0.5575 -0.7668  0.3130
 2022TIP3    H227558   2.570   6.146  15.483 -0.1481 -0.8955  0.7579
 2023TIP3   OH227559   3.120   4.139   1.089 -0.7028 -0.0781  0.3431
 2023TIP3    H127560   3.111   4.063   1.147  1.4291  0.8467  1.9644
 2023TIP3    H227561   3.050   4.198   1.115 -1.8012 -1.0844 -0.2931
 2024TIP3   OH227562   2.455   2.729  13.320 -0.6332 -0.5674  0.4034
 2024TIP3    H127563   2.544   2.695  13.310 -0.5644 -0.4487  0.6007
 2024TIP3    H227564   2.399   2.652  13.318 -0.2459 -0.9891  3.8268
 2025TIP3   OH227565   4.445   4.722   6.361 -0.0330  0.0914  1.0000
 2025TIP3    H127566   4.441   4.638   6.406 -0.6158  0.5944  1.9059
 2025TIP3    H227567   4.381   4.777   6.407 -0.5970  0.6406 -0.3936
 2026TIP3   OH227568   5.192   1.828  15.425  0.4104 -0.0138 -0.4069
 2026TIP3    H127569   5.172   1.750  15.478 -1.3825  0.1565 -0.8110
 2026TIP3    H227570   5.285   1.843  15.440  0.3912 -1.1989  1.0727
 2027TIP3   OH227571   4.726   4.470  15.522  0.0246  0.0799  0.6729
 2027TIP3    H127572   4.774   4.519  15.589 -3.8818  2.9596  1.6063
 2027TIP3    H227573   4.778   4.480  15.443  2.5315  0.3872  2.3271
 2028TIP3   OH227574   4.576   1.399   1.620  0.0648  0.2003  0.0105
 2028TIP3    H127575   4.534   1.316   1.639 -0.3392  0.6538  1.1264
 2028TIP3    H227576   4.587   1.441   1.705 -0.7386  1.7598 -0.6326
 2029TIP3   OH227577   6.031   2.902   1.375 -0.3750  0.6370 -0.1250
 2029TIP3    H127578   6.028   2.884   1.281 -0.7327  1.4631 -0.2766
 2029TIP3    H227579   6.082   2.830   1.412  2.7350  2.1446 -1.3747
 2030TIP3   OH227580   1.669   1.100   5.184 -0.3253  0.1005  0.6241
 2030TIP3    H127581   1.761   1.071   5.188 -0.7706 -1.4995 -0.2487
 2030TIP3    H227582   1.660   1.140   5.098 -0.7584 -0.8849  0.2034
 2031TIP3   OH227583   6.175   4.878   4.848  0.5264  0.2727 -0.6265
 2031TIP3    H127584   6.126   4.957   4.870 -0.3868 -0.2243 -0.8248
 2031TIP3    H227585   6.153   4.816   4.917 -0.1987 -0.3951 -1.4375
 2032TIP3   OH227586   6.300   6.068  16.017  0.1773 -0.7575 -0.0158
 2032TIP3    H127587   6.237   6.074  15.945  0.3923 -1.0384 -0.2282
 2032TIP3    H227588   6.273   5.991  16.067 -0.7005  0.1353  0.9098
 2033TIP3   OH227589   5.293   2.938  15.420  0.2025 -0.3634 -0.1268
 2033TIP3    H127590   5.216   2.899  15.461  1.0928 -1.8797  0.1454
 2033TIP3    H227591   5.364   2.925  15.483  0.8591  0.2902 -0.7163
 2034TIP3   OH227592   3.488   1.549  15.148 -0.1992 -0.0091 -0.0966
 2034TIP3    H127593   3.513   1.628  15.101  2.0754  0.0218  1.1119
 2034TIP3    H227594   3.418   1.578  15.207 -2.4947  0.1134 -2.7641
 2035TIP3   OH227595   4.511   3.813   0.488 -0.0462 -0.4545  0.4959
 2035TIP3    H127596   4.572   3.885   0.500 -0.2971  0.0578 -1.0887
 2035TIP3    H227597   4.447   3.846   0.424 -1.0816 -1.5145  0.9562
 2036TIP3   OH227598   3.227   3.489   1.217 -0.3604 -0.6565 -0.4222
 2036TIP3    H127599   3.283   3.413   1.232  0.2825  0.2117  1.8518
 2036TIP3    H227600   3.139   3.453   1.208 -0.3922 -1.5336  2.8876
 2037TIP3   OH227601   3.661   6.450  10.981  0.7817 -0.1076  0.4596
 2037TIP3    H127602   3.629   6.417  10.897  0.6087  1.7123 -0.2108
 2037TIP3    H227603   3.635   6.383  11.045  3.0776 -2.7483 -1.2318
 2038TIP3   OH227604   3.472   5.860  12.632 -0.0852  0.1031 -0.3153
 2038TIP3    H127605   3.409   5.803  12.676 -1.3203  0.5313 -1.4680
 2038TIP3    H227606   3.501   5.921  12.699 -1.5984  0.4720  0.0279
 2039TIP3   OH227607   1.596   4.608  17.128  0.0359 -0.1439  0.5108
 2039TIP3    H127608   1.601   4.513  17.124  0.3615 -0.1202  0.3019
 2039TIP3    H227609   1.567   4.627  17.217  0.2396 -0.4343  0.6414
 2040TIP3   OH227610   1.836   3.982   3.112 -0.1554  0.4527 -0.4486
 2040TIP3    H127611   1.774   3.934   3.057  0.2768  0.9523 -1.3778
 2040TIP3    H227612   1.845   3.928   3.191 -3.2074  1.2909  0.5234
 2041TIP3   OH227613   3.442   6.682  13.956 -0.0508  0.1566  0.1852
 2041TIP3    H127614   3.402   6.720  14.034  0.1068  0.1305  0.2807
 2041TIP3    H227615   3.428   6.587  13.966 -2.6437  0.3357 -1.2882
 2042TIP3   OH227616   2.075   2.501  15.861 -0.3984  0.3374 -0.1035
 2042TIP3    H127617   2.135   2.490  15.787 -0.9572 -0.9836 -0.3888
 2042TIP3    H227618   2.055   2.594  15.863 -1.7728  0.1529 -2.7635
 2043TIP3   OH227619   1.270   5.986   1.500 -0.1727 -0.2303 -0.3704
 2043TIP3    H127620   1.310   6.061   1.456 -1.3979 -0.3144 -1.6792
 2043TIP3    H227621   1.196   5.962   1.444 -1.6820 -0.4577  1.6529
 2044TIP3   OH227622   5.689   1.986   3.977  0.1622  0.7123 -0.1965
 2044TIP3    H127623   5.698   1.952   4.067  1.0428  0.3286 -0.4225
 2044TIP3    H227624   5.770   2.033   3.961  0.7737 -0.7185 -1.4175
 2045TIP3   OH227625   0.626   4.878   5.393  0.2809  0.0098  0.0142
 2045TIP3    H127626   0.617   4.784   5.408 -0.2568  0.1284  0.4439
 2045TIP3    H227627   0.657   4.913   5.477 -0.2138  0.3151  0.0706
 2046TIP3   OH227628   0.422   1.990   5.708 -0.1585  0.1407 -0.1907
 2046TIP3    H127629   0.370   1.986   5.788  2.5796 -2.2912  1.5712
 2046TIP3    H227630   0.375   1.935   5.646 -1.2712  0.4467  0.3748
 2047TIP3   OH227631   4.451   2.170   1.876  0.5929  0.1300 -1.1596
 2047TIP3    H127632   4.379   2.126   1.829  0.9143 -1.6674 -0.0268
 2047TIP3    H227633   4.408   2.241   1.924 -0.2873 -0.3265 -1.2591
 2048TIP3   OH227634   0.932   4.696  14.177  0.3206  0.0141  0.0329
 2048TIP3    H127635   0.852   4.674  14.224  0.8274  0.9603  1.3605
 2048TIP3    H227636   0.984   4.615  14.178  0.6499  0.2270  1.7758
 2049TIP3   OH227637   2.925   2.697   4.143 -0.2507 -0.0183 -0.1468
 2049TIP3    H127638   2.943   2.669   4.054 -2.0641  2.0922 -1.2232
 2049TIP3    H227639   2.923   2.615   4.194  0.2791 -1.2837 -2.1164
 2050TIP3   OH227640   3.108   3.083  16.978 -0.3725 -0.5656  0.1837
 2050TIP3    H127641   3.097   3.171  16.944 -0.1936 -0.5982  0.0404
 2050TIP3    H227642   3.157   3.037  16.910 -2.9321 -1.5954 -1.0260
 2051TIP3   OH227643   1.056   3.411   1.779  0.0183 -0.0338  0.4532
 2051TIP3    H127644   1.058   3.319   1.752  0.0466  0.2323 -0.4753
 2051TIP3    H227645   1.043   3.459   1.697  0.3312  0.8067  0.8958
 2052TIP3   OH227646   1.544   0.699   3.161 -0.2782 -0.0505  0.1749
 2052TIP3    H127647   1.477   0.686   3.229 -1.4094 -0.8744 -1.0638
 2052TIP3    H227648   1.624   0.665   3.199 -0.8979 -0.5005  1.1015
 2053TIP3   OH227649   2.585   0.797  11.560  0.4152 -0.0814 -0.0045
 2053TIP3    H127650   2.495   0.794  11.529 -0.3998 -2.9195  2.4354
 2053TIP3    H227651   2.636   0.757  11.490 -0.2798  0.9231 -1.1077
 2054TIP3   OH227652   1.682   1.992  15.815 -0.2507 -0.4785  0.3889
 2054TIP3    H127653   1.733   1.938  15.754  0.3786 -0.4489  0.8898
 2054TIP3    H227654   1.592   1.988  15.781 -0.0075 -0.9461 -0.2026
 2055TIP3   OH227655   3.266   2.157  16.045 -0.8748  0.1170  0.3139
 2055TIP3    H127656   3.212   2.085  16.012  1.2019 -1.2351 -0.2895
 2055TIP3    H227657   3.303   2.123  16.127  1.3702 -0.1534 -0.7709
 2056TIP3   OH227658   6.111   4.180   1.557  0.4271  0.0777 -0.2809
 2056TIP3    H127659   6.088   4.139   1.474  0.8491 -0.3964 -0.1669
 2056TIP3    H227660   6.141   4.107   1.612 -0.4189  0.3038  0.4872
 2057TIP3   OH227661   0.557   0.532  12.287 -0.2752  0.3171  0.2854
 2057TIP3    H127662   0.523   0.586  12.358  0.9657  3.4632 -1.4107
 2057TIP3    H227663   0.488   0.534  12.220  0.8110  1.9269 -0.8084
 2058TIP3   OH227664   4.808   2.013  11.812  0.2890 -0.7930 -0.1099
 2058TIP3    H127665   4.727   2.038  11.767  0.4225 -0.7159 -0.3077
 2058TIP3    H227666   4.808   1.917  11.811  1.4055 -0.8035 -2.3065
 2059TIP3   OH227667   5.482   4.872  13.638  0.3593  0.0390 -0.5257
 2059TIP3    H127668   5.434   4.803  13.682 -0.0727  1.1107  0.7212
 2059TIP3    H227669   5.421   4.946  13.636  1.0244  0.5781 -1.2735
 2060TIP3   OH227670   2.117   3.502   4.008  0.7147 -0.0641  0.1350
 2060TIP3    H127671   2.139   3.480   4.098 -0.7491 -0.6451  0.3573
 2060TIP3    H227672   2.158   3.587   3.993  1.1324 -0.0583  1.2747
 2061TIP3   OH227673   3.908   5.115  16.773 -0.1395  0.0427  0.0619
 2061TIP3    H127674   3.872   5.197  16.740 -0.3484 -0.2944 -0.5403
 2061TIP3    H227675   3.836   5.052  16.765  0.1424 -0.2931  0.1710
 2062TIP3   OH227676   5.579   1.253   0.141  0.1180  0.0831 -0.4409
 2062TIP3    H127677   5.558   1.344   0.164 -0.3084 -0.2946  0.6842
 2062TIP3    H227678   5.498   1.219   0.102 -0.4793 -0.5144  1.2906
 2063TIP3   OH227679   3.692   4.947   4.831  0.5385  0.0247  0.0756
 2063TIP3    H127680   3.647   5.030   4.847  0.8602 -0.0278  1.3035
 2063TIP3    H227681   3.665   4.890   4.903 -0.6641 -1.3627 -1.4161
 2064TIP3   OH227682   4.472   4.872   2.542  0.0128 -0.4117  0.1806
 2064TIP3    H127683   4.562   4.869   2.575 -0.0837 -1.1247  0.3968
 2064TIP3    H227684   4.481   4.877   2.447  0.2810 -0.1016  0.2209
 2065TIP3   OH227685   1.095   1.556  11.674 -0.3360  0.1218 -0.0924
 2065TIP3    H127686   1.005   1.525  11.663 -0.2729 -1.1254  2.6926
 2065TIP3    H227687   1.098   1.638  11.624 -2.8206 -0.1466 -0.7396
 2066TIP3   OH227688   1.941   4.212  11.483 -0.5019 -0.3609 -0.6765
 2066TIP3    H127689   1.858   4.242  11.519 -0.2176 -0.4172  0.0266
 2066TIP3    H227690   1.919   4.135  11.431 -0.6638 -1.4068  0.9015
 2067TIP3   OH227691   4.446   3.463  12.691  0.0711 -0.6505 -0.0771
 2067TIP3    H127692   4.376   3.526  12.673  2.1189  1.3022 -1.3965
 2067TIP3    H227693   4.488   3.496  12.770  1.7926  0.2614 -1.3411
 2068TIP3   OH227694   5.232   5.302  14.290  0.2633 -0.3703  0.0380
 2068TIP3    H127695   5.251   5.386  14.249 -0.6263 -1.1904 -2.1699
 2068TIP3    H227696   5.295   5.295  14.362  2.1625  0.9649 -1.4420
 2069TIP3   OH227697   2.595   3.170  12.331  0.3406  0.2255 -0.5414
 2069TIP3    H127698   2.636   3.109  12.392  2.2915  1.7288 -0.3040
 2069TIP3    H227699   2.635   3.149  12.246  0.6299  0.8000 -0.5516
 2070TIP3   OH227700   0.177   3.819   4.006 -0.0680  0.1081  0.6828
 2070TIP3    H127701   0.127   3.884   4.055 -2.4599  0.0760 -1.5825
 2070TIP3    H227702   0.168   3.739   4.056 -0.3533  0.6496  1.5057
 2071TIP3   OH227703   2.067   1.421   2.761  0.7425 -0.0808 -0.1627
 2071TIP3    H127704   2.012   1.495   2.733 -0.8199 -0.6403  1.3481
 2071TIP3    H227705   2.107   1.451   2.843 -0.3211 -1.1100  0.7364
 2072TIP3   OH227706   2.516   5.178  16.354  0.0911  0.2730  0.5990
 2072TIP3    H127707   2.456   5.113  16.390 -0.2322 -0.2982 -0.9407
 2072TIP3    H227708   2.492   5.184  16.262  1.2914  1.2879  0.3401
 2073TIP3   OH227709   1.792   5.502  13.152  0.2204 -0.0750  0.3186
 2073TIP3    H127710   1.886   5.518  13.144  0.1657 -0.0393 -0.2581
 2073TIP3    H227711   1.786   5.422  13.204  0.5523  0.3419  1.0035
 2074TIP3   OH227712   4.120   5.411   2.006 -0.0979  0.2284  0.1932
 2074TIP3    H127713   4.033   5.447   2.026  0.5338  1.5813  0.5316
 2074TIP3    H227714   4.119   5.398   1.911 -0.6125  0.4242  0.1680
 2075TIP3   OH227715   0.864   1.008  13.200 -0.7294 -0.2502 -0.4504
 2075TIP3    H127716   0.881   1.100  13.181 -0.7799  0.7296  3.6256
 2075TIP3    H227717   0.769   0.999  13.194 -0.6367 -0.3232 -1.9136
 2076TIP3   OH227718   3.939   1.619   5.861 -0.2329 -0.3105 -0.0193
 2076TIP3    H127719   3.940   1.602   5.766  2.2577 -1.6584  0.1924
 2076TIP3    H227720   4.024   1.661   5.878 -0.1650 -1.1588  1.7793
 2077TIP3   OH227721   5.153   2.240  13.516  0.3333 -0.5273  0.6486
 2077TIP3    H127722   5.178   2.257  13.606 -0.0673  0.1519  0.6326
 2077TIP3    H227723   5.225   2.276  13.464  0.0750  0.0039  0.6594
 2078TIP3   OH227724   5.750   1.875  11.764 -0.0678 -0.6508  0.4186
 2078TIP3    H127725   5.806   1.886  11.686  1.0583  1.7035  1.5093
 2078TIP3    H227726   5.683   1.813  11.736  1.5167 -1.4640 -1.7834
 2079TIP3   OH227727   6.537   5.418  15.668  0.6727 -0.4001 -0.1161
 2079TIP3    H127728   6.598   5.461  15.729  0.4451 -0.5189  0.1981
 2079TIP3    H227729   6.548   5.325  15.686  1.6970 -0.5083 -1.3123
 2080TIP3   OH227730   1.186   3.326  12.442 -0.7109 -0.0970 -0.1792
 2080TIP3    H127731   1.278   3.313  12.463 -0.0887  0.9820 -2.1504
 2080TIP3    H227732   1.171   3.420  12.456 -1.3916 -0.1697 -0.3863
 2081TIP3   OH227733   3.353   1.856  12.965  0.1706  0.3679  0.1499
 2081TIP3    H127734   3.305   1.825  12.888 -4.1298  0.0353  2.8293
 2081TIP3    H227735   3.338   1.950  12.966  0.2747  0.3797  0.5957
 2082TIP3   OH227736   2.728   3.483  12.463 -0.0384  0.0954  0.0796
 2082TIP3    H127737   2.806   3.535  12.483 -0.0776  0.0032  0.4593
 2082TIP3    H227738   2.749   3.440  12.380  0.6651 -0.6452  0.6457
 2083TIP3   OH227739   2.237   2.747  12.032 -0.3044  0.0266 -0.1076
 2083TIP3    H127740   2.283   2.813  12.085 -0.0196  0.9988 -1.5396
 2083TIP3    H227741   2.271   2.760  11.944 -0.9760 -1.4097 -0.5761
 2084TIP3   OH227742   4.881   2.751  12.091  0.5406  0.3936 -0.3019
 2084TIP3    H127743   4.892   2.688  12.020  2.9802  1.9209 -1.3391
 2084TIP3    H227744   4.823   2.818  12.055  0.0942  0.1083 -0.1186
 2085TIP3   OH227745   5.487   1.022   1.504 -0.3119 -0.1253  0.1707
 2085TIP3    H127746   5.463   0.977   1.423 -0.0862 -2.2398  1.2248
 2085TIP3    H227747   5.492   0.952   1.569  3.4086  0.9281  1.1723
 2086TIP3   OH227748   6.351   5.853  16.530 -0.1739 -0.2475  0.1742
 2086TIP3    H127749   6.256   5.857  16.535 -0.1322  0.2068  0.6526
 2086TIP3    H227750   6.369   5.786  16.464 -0.8219 -0.2642  0.0159
 2087TIP3   OH227751   6.557   0.831  11.868 -0.2943 -0.0534  0.0030
 2087TIP3    H127752   6.566   0.737  11.855 -0.1125 -0.0174 -0.1336
 2087TIP3    H227753   6.477   0.854  11.821  0.6005  0.1512 -1.4733
 2088TIP3   OH227754   2.565   1.481  17.072  0.9728  0.1711 -0.1602
 2088TIP3    H127755   2.629   1.464  17.141  1.1629 -1.2712 -0.6945
 2088TIP3    H227756   2.480   1.468  17.115  1.0922 -0.8110 -0.2257
 2089TIP3   OH227757   2.187   2.369  16.721  0.3396  0.0176  0.0779
 2089TIP3    H127758   2.128   2.402  16.652  1.0440  1.1015 -0.0206
 2089TIP3    H227759   2.129   2.320  16.780 -0.3907 -0.3162 -0.9002
 2090TIP3   OH227760   0.575   6.744  13.351  1.0645 -0.2383 -0.7826
 2090TIP3    H127761   0.486   6.711  13.357  1.2319 -0.9212 -1.9177
 2090TIP3    H227762   0.606   6.715  13.265  2.2852  0.2184 -0.5108
 2091TIP3   OH227763   4.908   3.818  16.358 -0.5326 -0.1653  0.3003
 2091TIP3    H127764   4.868   3.748  16.410 -0.0620 -0.5997  0.0849
 2091TIP3    H227765   4.982   3.848  16.411 -0.3444 -0.2751  0.0990
 2092TIP3   OH227766   1.948   5.889  14.272 -0.4539  0.0653  0.3577
 2092TIP3    H127767   1.861   5.902  14.310 -1.2572  0.6301 -1.6276
 2092TIP3    H227768   1.963   5.795  14.279 -1.4271 -0.0968  0.2982
 2093TIP3   OH227769   1.206   5.936  12.890 -0.5691 -0.0165 -0.2506
 2093TIP3    H127770   1.245   6.002  12.947  2.5728 -0.2368 -2.0170
 2093TIP3    H227771   1.115   5.930  12.918 -0.8000  4.5968  0.3707
 2094TIP3   OH227772   4.928   2.211  15.862 -0.0991 -0.4702 -0.3238
 2094TIP3    H127773   4.979   2.135  15.891 -0.1885 -0.1215  0.8026
 2094TIP3    H227774   4.991   2.283  15.863 -0.6044 -0.0275  1.1150
 2095TIP3   OH227775   6.448   4.654  15.234 -0.1352 -0.5127  0.3244
 2095TIP3    H127776   6.359   4.661  15.269 -0.3500  0.2830 -0.3589
 2095TIP3    H227777   6.499   4.717  15.286  0.0805 -1.0898  0.8312
 2096TIP3   OH227778   0.855   3.812  16.024  0.2474  0.1642  0.4886
 2096TIP3    H127779   0.793   3.885  16.036  0.8112  0.8514 -0.5986
 2096TIP3    H227780   0.871   3.811  15.929  0.1835 -1.4410  0.4902
 2097TIP3   OH227781   1.922   0.782   0.079  0.4252 -0.0209 -0.1283
 2097TIP3    H127782   1.942   0.715   0.014  0.4808 -0.0610 -0.0697
 2097TIP3    H227783   2.007   0.815   0.107  0.4144 -0.3111  0.2455
 2098TIP3   OH227784   5.681   1.805   2.262 -0.5093  0.0588  0.0805
 2098TIP3    H127785   5.754   1.803   2.200 -1.1062 -1.1707 -0.6029
 2098TIP3    H227786   5.667   1.898   2.280  2.0604  0.2559  1.2270
 2099TIP3   OH227787   3.849   1.401  15.911  0.3718 -0.1923 -0.3589
 2099TIP3    H127788   3.937   1.396  15.947  1.0098  2.0836 -1.4972
 2099TIP3    H227789   3.792   1.414  15.988  1.6532  4.0633  0.0046
 2100TIP3   OH227790   5.790   0.502  10.919  0.1200 -0.0800 -0.1117
 2100TIP3    H127791   5.863   0.513  10.858 -0.4685 -1.0208 -1.0023
 2100TIP3    H227792   5.765   0.410  10.909 -0.9068  0.1298  0.5090
 2101TIP3   OH227793   4.743   5.841  15.116 -0.0034  0.1764  0.5035
 2101TIP3    H127794   4.739   5.770  15.181  1.3213 -0.5371 -0.1690
 2101TIP3    H227795   4.741   5.796  15.032 -1.8619  1.1049  0.0115
 2102TIP3   OH227796   5.284   2.412  15.211  0.1229  0.1989 -0.3612
 2102TIP3    H127797   5.292   2.332  15.159 -0.8478 -0.7374  0.8836
 2102TIP3    H227798   5.330   2.391  15.293 -3.2226 -0.4459  1.4606
 2103TIP3   OH227799   0.524   3.064  13.961 -0.1607  0.4135  0.0171
 2103TIP3    H127800   0.548   3.073  13.869 -0.8819 -1.6038 -0.3845
 2103TIP3    H227801   0.429   3.061  13.961 -0.1375 -0.7855  0.7000
 2104TIP3   OH227802   4.130   3.167   0.490  0.0398  0.1778 -0.2116
 2104TIP3    H127803   4.202   3.160   0.553 -0.6514  0.6274  0.6470
 2104TIP3    H227804   4.101   3.077   0.477 -0.1398  0.1197  0.5206
 2105TIP3   OH227805   3.670   5.861  11.173 -0.4227  0.4659 -0.1795
 2105TIP3    H127806   3.621   5.861  11.255 -0.1065  0.2377  0.0091
 2105TIP3    H227807   3.689   5.954  11.157 -0.0104  0.4669  0.2904
 2106TIP3   OH227808   1.942   4.091  16.360 -0.0717  0.1669 -0.9295
 2106TIP3    H127809   1.865   4.111  16.306 -0.7267 -0.0864 -0.1047
 2106TIP3    H227810   1.913   4.110  16.450  0.8267  0.0493 -0.6154
 2107TIP3   OH227811   2.281   6.180  14.096 -0.1795  0.5087  0.1260
 2107TIP3    H127812   2.266   6.091  14.127  1.6931  0.2235  0.3000
 2107TIP3    H227813   2.195   6.211  14.067 -0.5270 -1.9902 -1.6645
 2108TIP3   OH227814   5.516   5.689   2.069  0.8138 -0.0825 -0.5359
 2108TIP3    H127815   5.573   5.637   2.126  0.3382 -2.4076 -2.1634
 2108TIP3    H227816   5.432   5.692   2.116  1.6306  1.6674  0.9034
 2109TIP3   OH227817   1.534   3.096   2.093  0.1294 -0.2516 -0.0182
 2109TIP3    H127818   1.512   3.046   2.173  0.2341  0.5922  0.5387
 2109TIP3    H227819   1.458   3.153   2.079 -0.1926 -0.8897 -0.9209
 2110TIP3   OH227820   4.636   1.557   4.277  0.0932  0.0617  0.3373
 2110TIP3    H127821   4.719   1.589   4.241  0.6823 -0.4418  1.2135
 2110TIP3    H227822   4.660   1.479   4.328 -1.0243 -0.5352 -0.0168
 2111TIP3   OH227823   2.532   6.787   2.387 -0.3111  0.3220  0.0167
 2111TIP3    H127824   2.572   6.742   2.312 -1.1251 -0.0318 -0.2198
 2111TIP3    H227825   2.556   6.733   2.463 -0.2344  0.1829 -0.1060
 2112TIP3   OH227826   4.841   2.448   1.587  0.0436 -0.2246  0.0507
 2112TIP3    H127827   4.843   2.455   1.683  0.1937  2.3706 -0.1141
 2112TIP3    H227828   4.778   2.515   1.560 -0.3692 -1.2914 -1.6519
 2113TIP3   OH227829   4.720   4.195   2.196 -0.0293  0.3320  0.0929
 2113TIP3    H127830   4.663   4.159   2.264  0.4971 -0.6409  0.0298
 2113TIP3    H227831   4.706   4.137   2.121 -0.2114  1.0884 -0.4668
 2114TIP3   OH227832   0.850   2.629   5.274 -0.1576 -0.0801 -0.2983
 2114TIP3    H127833   0.853   2.656   5.366 -0.5161  1.8421 -0.8451
 2114TIP3    H227834   0.776   2.567   5.270  1.5753 -2.3563  1.2383
 2115TIP3   OH227835   5.528   4.020  14.786 -0.0466  0.0082 -0.2069
 2115TIP3    H127836   5.458   4.053  14.729 -0.5612 -0.5765  0.0792
 2115TIP3    H227837   5.535   3.927  14.765 -2.3741 -0.9319  2.8159
 2116TIP3   OH227838   6.035   6.272   4.127  0.6265 -0.6463  0.3853
 2116TIP3    H127839   6.009   6.259   4.218  0.2085 -0.1659  0.3347
 2116TIP3    H227840   6.113   6.327   4.132 -1.5742  2.5764  0.2995
 2117TIP3   OH227841   5.582   5.414   0.633  0.6166  1.1908 -0.4611
 2117TIP3    H127842   5.499   5.366   0.634  1.5715 -0.5814 -2.0008
 2117TIP3    H227843   5.563   5.498   0.674 -0.8000 -1.0412  3.7069
 2118TIP3   OH227844   6.772   1.340  12.688  0.1177  0.0152  0.3532
 2118TIP3    H127845   6.867   1.335  12.679  0.2119 -0.0212  1.2809
 2118TIP3    H227846   6.743   1.249  12.694 -0.1889 -0.0565 -1.8507
 2119TIP3   OH227847   4.895   2.908  14.973 -0.6271 -0.1662 -0.2446
 2119TIP3    H127848   4.914   2.911  15.067 -1.4375  0.4723 -0.0962
 2119TIP3    H227849   4.808   2.947  14.965  0.2184  1.5236 -1.4679
 2120TIP3   OH227850   2.901   0.482  11.102  0.5792  0.7273 -0.4207
 2120TIP3    H127851   2.967   0.493  11.170 -0.6216 -0.6744  0.9974
 2120TIP3    H227852   2.931   0.406  11.051  0.0294  0.0347  0.2781
 2121TIP3   OH227853   1.166   5.097  16.075 -0.0174  0.3126 -0.4359
 2121TIP3    H127854   1.227   5.153  16.124  0.2600 -0.6106  0.2843
 2121TIP3    H227855   1.219   5.058  16.006  0.0752 -0.0071 -0.1872
 2122TIP3   OH227856   1.159   0.503   0.155  0.1878 -0.2306 -0.4258
 2122TIP3    H127857   1.251   0.511   0.131 -0.0099 -0.9582 -1.4638
 2122TIP3    H227858   1.147   0.410   0.175 -0.2215 -0.0623  0.1371
 2123TIP3   OH227859   4.293   2.985  11.312  0.3938  0.7530  0.4971
 2123TIP3    H127860   4.336   2.975  11.226  0.4098 -0.2236  0.6129
 2123TIP3    H227861   4.291   2.896  11.348  1.1901  1.2816  1.8987
 2124TIP3   OH227862   2.108   4.700  16.422 -0.0833  0.0124  0.4360
 2124TIP3    H127863   2.062   4.766  16.369 -1.7653 -0.8885  0.7660
 2124TIP3    H227864   2.082   4.616  16.383  1.9426 -0.4870  0.1086
 2125TIP3   OH227865   0.226   4.543  14.317  0.3895  0.3775 -0.5270
 2125TIP3    H127866   0.233   4.637  14.332  0.3463  0.3336 -0.2324
 2125TIP3    H227867   0.275   4.502  14.388 -0.0091  0.1652 -0.3713
 2126TIP3   OH227868   4.275   2.274  14.094 -0.4425 -0.3777 -0.0790
 2126TIP3    H127869   4.358   2.302  14.131 -0.3625 -1.0484  0.2637
 2126TIP3    H227870   4.297   2.197  14.041 -0.9752 -1.1214  0.7652
 2127TIP3   OH227871   0.204   0.798   0.780 -0.6773  0.0498 -0.1384
 2127TIP3    H127872   0.255   0.720   0.762  0.0366  0.7420 -1.1926
 2127TIP3    H227873   0.255   0.846   0.845 -0.5515  0.1908 -0.3415
 2128TIP3   OH227874   2.322   0.460   0.346 -0.4052  0.2001 -0.2199
 2128TIP3    H127875   2.317   0.538   0.290 -2.1205  2.3809  2.8232
 2128TIP3    H227876   2.416   0.448   0.361  0.0612 -0.1045 -3.0140
 2129TIP3   OH227877   4.298   6.331   4.279  0.1660  0.0208 -0.1127
 2129TIP3    H127878   4.290   6.336   4.184 -3.0748 -0.7899  0.0524
 2129TIP3    H227879   4.305   6.422   4.307  2.7964  0.1935 -1.1970
 2130TIP3   OH227880   0.143   4.302   1.818 -0.4744  0.1858 -0.1945
 2130TIP3    H127881   0.122   4.329   1.907  1.2219 -0.3134  0.3787
 2130TIP3    H227882   0.180   4.381   1.777  1.9849 -0.4675  0.6526
 2131TIP3   OH227883   6.207   6.596   0.361  0.3836 -0.2245 -0.5910
 2131TIP3    H127884   6.181   6.677   0.317  0.8193 -0.4208 -1.2124
 2131TIP3    H227885   6.243   6.625   0.445 -0.7110  0.1298 -0.2375
 2132TIP3   OH227886   0.145   4.432   1.423  0.0647  1.2588  0.0913
 2132TIP3    H127887   0.099   4.394   1.348  0.7580 -0.1722  0.3799
 2132TIP3    H227888   0.166   4.357   1.479  0.8021  2.1498  1.0246
 2133TIP3   OH227889   1.702   3.860   5.526 -0.2149  0.6299 -0.4770
 2133TIP3    H127890   1.662   3.946   5.521  1.5156  1.5114  0.4480
 2133TIP3    H227891   1.775   3.870   5.587  1.3124 -0.9543 -1.9624
 2134TIP3   OH227892   0.970   4.394   2.961 -0.2305  0.2400 -0.2401
 2134TIP3    H127893   1.016   4.311   2.945  1.5912  1.0563  0.6623
 2134TIP3    H227894   0.903   4.371   3.027  0.2140 -0.5287 -0.0418
 2135TIP3   OH227895   6.719   3.154   5.690  0.6808 -0.5732 -0.7555
 2135TIP3    H127896   6.756   3.069   5.713 -0.7676 -0.4918  2.1869
 2135TIP3    H227897   6.792   3.215   5.695  0.8536 -0.9300  1.8049
 2136TIP3   OH227898   2.910   3.728   4.291 -0.1759 -0.3068  0.8678
 2136TIP3    H127899   2.827   3.726   4.243 -0.3177  0.0242  1.0997
 2136TIP3    H227900   2.976   3.706   4.225  0.0521  3.7143 -0.3583
 2137TIP3   OH227901   6.422   6.817  15.511 -0.0431  0.3190  0.0559
 2137TIP3    H127902   6.510   6.839  15.543  0.9651 -1.5369 -1.3300
 2137TIP3    H227903   6.404   6.884  15.445  1.4627 -0.7581 -1.5158
 2138TIP3   OH227904   6.645   0.866   1.218  0.5075  0.5045  0.0167
 2138TIP3    H127905   6.723   0.904   1.177 -0.1568 -0.2812 -2.0271
 2138TIP3    H227906   6.651   0.772   1.200  0.8769 -0.0942  2.9142
 2139TIP3   OH227907   6.444   1.912   5.387  0.0936 -0.1798 -0.0385
 2139TIP3    H127908   6.486   1.827   5.372  0.4760  0.1241 -0.7568
 2139TIP3    H227909   6.371   1.913   5.325  0.4708  0.2677 -0.4802
 2140TIP3   OH227910   5.432   3.778   4.408  0.4646  0.0401 -0.3386
 2140TIP3    H127911   5.377   3.754   4.483  2.6150 -2.6300  0.4386
 2140TIP3    H227912   5.483   3.853   4.439 -0.3102  0.3951  0.0863
 2141TIP3   OH227913   5.844   6.277   0.601 -0.6256 -0.1982  0.5791
 2141TIP3    H127914   5.750   6.257   0.605 -0.7755  0.3925  0.0680
 2141TIP3    H227915   5.859   6.331   0.679 -0.3193 -1.8530  1.6947
 2142TIP3   OH227916   6.809   0.902  12.546  0.3170  0.1664 -0.8879
 2142TIP3    H127917   6.782   0.811  12.557  0.7816  0.3118  1.6611
 2142TIP3    H227918   6.901   0.896  12.519  1.2197 -0.1008  2.1014
 2143TIP3   OH227919   2.148   6.267   0.357 -0.4493  0.4333  0.2276
 2143TIP3    H127920   2.098   6.346   0.337 -1.2275  0.0295  0.5911
 2143TIP3    H227921   2.082   6.200   0.374  0.1808 -0.8106 -2.0403
 2144TIP3   OH227922   5.087   4.622  14.154 -0.6943  0.6200 -0.2423
 2144TIP3    H127923   5.028   4.695  14.139 -2.7035 -0.5794  1.5495
 2144TIP3    H227924   5.117   4.633  14.244  0.3069  0.1447 -0.5063
 2145TIP3   OH227925   5.988   2.717  17.055 -0.5502  0.2740  0.1405
 2145TIP3    H127926   5.896   2.736  17.069 -0.5794 -0.8664  1.5540
 2145TIP3    H227927   6.019   2.684  17.139  0.6320 -1.3658 -0.9034
 2146TIP3   OH227928   3.065   3.048   3.478  0.1682  0.1384 -0.2834
 2146TIP3    H127929   3.147   3.075   3.519 -0.3101  0.0949  0.7055
 2146TIP3    H227930   3.089   2.972   3.425  0.7227 -0.0487  0.2257
 2147TIP3   OH227931   6.113   4.866  11.665 -0.3576 -0.5246 -0.4062
 2147TIP3    H127932   6.124   4.933  11.732 -0.5998  0.4263 -1.3051
 2147TIP3    H227933   6.190   4.876  11.608 -1.1946  0.0657 -1.4576
 2148TIP3   OH227934   4.220   4.039  12.743 -0.1216  0.8238  0.0424
 2148TIP3    H127935   4.257   3.959  12.780 -1.9733  0.2417  0.7120
 2148TIP3    H227936   4.231   4.104  12.812  0.6937  0.9521 -0.2071
 2149TIP3   OH227937   2.356   0.613   4.321 -0.8946 -0.0516  0.1355
 2149TIP3    H127938   2.376   0.524   4.351 -0.4885 -0.4066 -1.1915
 2149TIP3    H227939   2.293   0.601   4.250  0.5440  0.6086 -1.2715
 2150TIP3   OH227940   6.555   6.041  14.050 -0.7327  0.2985  0.2983
 2150TIP3    H127941   6.626   6.104  14.036  0.0346 -0.3795  1.0810
 2150TIP3    H227942   6.549   5.993  13.967  0.0500  0.0391  0.3853
 2151TIP3   OH227943   6.668   0.534  14.319  0.1763 -0.1826  0.3556
 2151TIP3    H127944   6.755   0.572  14.307 -1.1050  2.6635 -0.3873
 2151TIP3    H227945   6.677   0.478  14.396  2.7042 -0.1413  0.1475
 2152TIP3   OH227946   4.966   5.162  15.897  0.1948 -0.1648 -0.1582
 2152TIP3    H127947   5.004   5.142  15.983  0.7537  1.7874  0.0682
 2152TIP3    H227948   4.914   5.241  15.912 -1.0888 -0.7988 -1.2513
 2153TIP3   OH227949   0.220   1.990   0.205  0.8302  0.6272  0.9710
 2153TIP3    H127950   0.303   2.008   0.161 -0.7150 -0.2392 -2.3835
 2153TIP3    H227951   0.168   2.069   0.191  0.0715  0.0692  0.6545
 2154TIP3   OH227952   5.270   0.203   2.737  0.0287  0.3220  0.1082
 2154TIP3    H127953   5.300   0.264   2.804  0.0150 -0.9777  1.3458
 2154TIP3    H227954   5.328   0.127   2.747 -0.5306 -0.2280 -0.7678
 2155TIP3   OH227955   2.726   1.213   0.926 -0.2330  0.1627  1.3620
 2155TIP3    H127956   2.635   1.185   0.925 -0.5793  1.3082  0.4372
 2155TIP3    H227957   2.728   1.293   0.874  1.5193 -0.5019  0.3515
 2156TIP3   OH227958   5.557   6.084  12.803 -0.5438 -0.0963 -0.0322
 2156TIP3    H127959   5.640   6.050  12.834 -0.1368  0.4413 -0.5344
 2156TIP3    H227960   5.525   6.018  12.741  2.3549  2.4015 -4.4210
 2157TIP3   OH227961   0.139   0.467  15.112  0.1761  0.1244 -0.4153
 2157TIP3    H127962   0.100   0.385  15.142  1.2051  1.0643  3.9997
 2157TIP3    H227963   0.104   0.533  15.172  1.4576  2.4662 -2.1538
 2158TIP3   OH227964   4.858   0.610   1.349  0.3822 -0.2288 -0.0267
 2158TIP3    H127965   4.890   0.587   1.261  1.7989 -0.4390  0.5398
 2158TIP3    H227966   4.831   0.702   1.342 -0.4078 -0.5168 -0.9220
 2159TIP3   OH227967   2.681   3.887  16.601  0.1002  0.3072  0.2686
 2159TIP3    H127968   2.742   3.817  16.578 -0.7636 -0.9174  1.6104
 2159TIP3    H227969   2.599   3.862  16.556 -0.3854  0.1187  1.2506
 2160TIP3   OH227970   3.670   3.209   6.390 -0.0144  0.3225 -0.4692
 2160TIP3    H127971   3.723   3.289   6.387  1.9498 -0.9763 -2.0974
 2160TIP3    H227972   3.642   3.196   6.299 -0.8534 -0.4888 -0.0939
 2161TIP3   OH227973   0.466   2.252  15.141 -0.3854  0.1037  0.3334
 2161TIP3    H127974   0.375   2.221  15.139 -0.9593  1.7724 -1.1265
 2161TIP3    H227975   0.472   2.301  15.223  0.4071 -3.3166  2.4535
 2162TIP3   OH227976   6.756   2.199   1.765  0.2011  0.0936 -0.2104
 2162TIP3    H127977   6.823   2.215   1.831  0.3179  1.6115 -0.6717
 2162TIP3    H227978   6.683   2.256   1.789  1.2980  2.7944 -2.8704
 2163TIP3   OH227979   2.324   6.688   6.140 -0.0565 -0.0993  0.1646
 2163TIP3    H127980   2.389   6.734   6.192  0.9568  0.1738 -1.3052
 2163TIP3    H227981   2.240   6.718   6.174  0.5985  1.3128  0.5571
 2164TIP3   OH227982   6.055   2.259   2.561  0.2913 -0.4176  0.0758
 2164TIP3    H127983   5.997   2.207   2.504 -0.8143 -0.0832  0.8799
 2164TIP3    H227984   6.063   2.207   2.640  1.2673 -0.5549 -0.1142
 2165TIP3   OH227985   3.254   6.361  13.243  0.2880  1.0710  0.2849
 2165TIP3    H127986   3.233   6.272  13.270  0.4621  1.0386  0.3150
 2165TIP3    H227987   3.347   6.371  13.263  0.6893  0.6848 -1.2643
 2166TIP3   OH227988   4.914   6.187  10.702  0.2402 -0.5057  0.7593
 2166TIP3    H127989   4.887   6.174  10.611  0.5695  0.2286  0.5521
 2166TIP3    H227990   4.985   6.251  10.697  0.4927 -0.7242  1.5041
 2167TIP3   OH227991   4.887   0.548  16.619  0.3503 -0.7500 -0.4000
 2167TIP3    H127992   4.828   0.491  16.668 -1.4612  3.0922  2.1582
 2167TIP3    H227993   4.974   0.511  16.634 -0.8247 -3.3267  0.3824
 2168TIP3   OH227994   1.031   1.531  15.465 -0.1849  0.2050  0.2375
 2168TIP3    H127995   1.102   1.555  15.525 -0.0977 -0.4350  0.3977
 2168TIP3    H227996   1.052   1.576  15.383  0.6739 -0.3857  0.1353
 2169TIP3   OH227997   0.369   5.376  15.442 -0.0748  0.0702  0.7220
 2169TIP3    H127998   0.338   5.448  15.386 -0.0628  0.1518  0.8211
 2169TIP3    H227999   0.340   5.297  15.397  1.8668  0.0666 -0.5659
 2170TIP3   OH228000   4.546   5.191  11.491 -0.3781  0.3427  0.1029
 2170TIP3    H128001   4.569   5.112  11.541  2.1506  0.7112 -0.3914
 2170TIP3    H228002   4.513   5.158  11.408  0.0015 -0.2159  0.1709
 2171TIP3   OH228003   1.560   1.801   3.889 -0.0496 -0.1086  0.3471
 2171TIP3    H128004   1.528   1.711   3.894 -0.2239 -0.0169  0.9360
 2171TIP3    H228005   1.635   1.797   3.829 -1.3398 -0.2722 -1.2665
 2172TIP3   OH228006   0.027   2.612   2.830  0.0744 -0.0762 -0.0894
 2172TIP3    H128007   0.023   2.658   2.913  2.7908  0.2732 -0.1244
 2172TIP3    H228008  -0.059   2.626   2.791 -0.1080  2.5968  1.1551
 2173TIP3   OH228009   0.285   6.398   4.492  0.0369  0.3337 -1.0362
 2173TIP3    H128010   0.379   6.395   4.506 -0.0136 -1.3084 -0.9451
 2173TIP3    H228011   0.248   6.345   4.563 -1.0415  1.9281 -0.3671
 2174TIP3   OH228012   3.912   0.879   2.665 -0.5268 -0.3892 -0.3016
 2174TIP3    H128013   3.884   0.843   2.749 -0.9779 -1.3841 -0.8745
 2174TIP3    H228014   3.914   0.974   2.680  1.5578 -0.6639  1.4893
 2175TIP3   OH228015   2.435   5.080   4.463  0.3133  0.2628  0.6912
 2175TIP3    H128016   2.368   5.020   4.496 -0.5377  0.9314  0.2424
 2175TIP3    H228017   2.436   5.063   4.368  0.3232  0.6911  0.6144
 2176TIP3   OH228018   6.235   4.706   0.846 -0.1265  0.1820  0.1248
 2176TIP3    H128019   6.204   4.619   0.824 -3.0734  0.4027  2.9818
 2176TIP3    H228020   6.323   4.693   0.879  0.2928 -1.3834 -1.5143
 2177TIP3   OH228021   0.953   5.631   2.101 -0.5603  0.1665 -0.0228
 2177TIP3    H128022   0.869   5.659   2.137  0.3403 -0.1485  2.4400
 2177TIP3    H228023   1.018   5.666   2.162  0.8932 -2.5074  0.0325
 2178TIP3   OH228024   1.402   5.757  16.476 -0.3889  0.1050  0.3718
 2178TIP3    H128025   1.346   5.689  16.439 -0.6178  0.5744 -0.1355
 2178TIP3    H228026   1.466   5.708  16.529 -0.2820 -0.5408 -0.3414
 2179TIP3   OH228027   6.490   0.300  17.125  0.7121 -0.4393 -0.3256
 2179TIP3    H128028   6.431   0.303  17.050 -0.1278 -1.5486  0.2676
 2179TIP3    H228029   6.500   0.206  17.143  3.1786 -0.2949 -0.8221
 2180TIP3   OH228030   5.231   0.486   1.118 -0.0513 -0.3135  0.1182
 2180TIP3    H128031   5.154   0.441   1.086  0.0909  0.1039 -0.8128
 2180TIP3    H228032   5.243   0.454   1.208  0.2316 -2.3440 -0.6381
 2181TIP3   OH228033   6.237   6.073  15.054 -0.0842  0.2728 -0.4273
 2181TIP3    H128034   6.148   6.038  15.046  0.6288 -1.5974 -0.6494
 2181TIP3    H228035   6.265   6.087  14.964  0.7298 -1.5916 -0.5025
 2182TIP3   OH228036   2.108   2.549   5.238  0.5239 -0.4102  1.1127
 2182TIP3    H128037   2.164   2.611   5.191 -0.0793  0.4575  1.5215
 2182TIP3    H228038   2.057   2.506   5.169  1.8815 -1.4170  0.7105
 2183TIP3   OH228039   3.564   3.470  11.569 -0.0399 -0.3138 -0.3956
 2183TIP3    H128040   3.587   3.556  11.604  2.9797 -0.6434 -1.3683
 2183TIP3    H228041   3.643   3.443  11.522 -1.4202 -3.0547 -1.1839
 2184TIP3   OH228042   5.438   1.270  15.650 -0.6284  0.1933 -0.0885
 2184TIP3    H128043   5.434   1.364  15.633 -0.7215  0.4716  1.3467
 2184TIP3    H228044   5.351   1.238  15.628 -0.6033  0.4518 -0.5582
 2185TIP3   OH228045   1.362   3.475   0.330  0.1408 -0.2188 -0.2210
 2185TIP3    H128046   1.286   3.532   0.342  0.4000  0.4490 -1.5543
 2185TIP3    H228047   1.326   3.387   0.324 -0.1797 -0.3530  2.9410
 2186TIP3   OH228048   3.218   1.903   6.143 -0.3795  0.1191 -1.0966
 2186TIP3    H128049   3.279   1.917   6.215 -0.9638  0.0156 -0.5732
 2186TIP3    H228050   3.182   1.815   6.158 -1.5206  0.6304 -0.7297
 2187TIP3   OH228051   5.579   0.134  13.557  0.6593  0.3959 -0.0304
 2187TIP3    H128052   5.506   0.098  13.607  0.9842  1.1329  1.0077
 2187TIP3    H228053   5.614   0.060  13.508 -0.7448  0.0294 -0.5075
 2188TIP3   OH228054   3.212   4.249   2.164 -0.2492 -0.1572 -0.3599
 2188TIP3    H128055   3.183   4.283   2.249  1.2474  2.7511 -0.9669
 2188TIP3    H228056   3.133   4.210   2.125 -1.8057  1.7915  0.7742
 2189TIP3   OH228057   2.054   3.576  14.438  0.0511 -0.1941  0.4648
 2189TIP3    H128058   1.962   3.561  14.418  0.2634 -0.6145 -0.2186
 2189TIP3    H228059   2.086   3.491  14.469  0.1437  0.0201  0.9645
 2190TIP3   OH228060   0.063   6.005   5.157 -0.1785  0.3930 -0.3699
 2190TIP3    H128061   0.054   5.914   5.131  0.1836  0.7387 -1.7247
 2190TIP3    H228062  -0.027   6.039   5.157 -0.0908  0.7083 -2.4088
 2191TIP3   OH228063   4.870   4.997  14.411 -0.0804  0.3845  0.0731
 2191TIP3    H128064   4.873   4.929  14.343 -0.5771  0.5903 -0.1552
 2191TIP3    H228065   4.894   4.951  14.491  1.4759  0.3433 -0.4046
 2192TIP3   OH228066   4.128   1.760  14.532 -0.3259 -0.3113  0.2065
 2192TIP3    H128067   4.095   1.786  14.446  0.4579 -0.3556 -0.1130
 2192TIP3    H228068   4.182   1.683  14.514 -2.0092 -1.7092  1.0388
 2193TIP3   OH228069   2.936   6.377  14.527  0.6236  0.2973 -0.4665
 2193TIP3    H128070   2.873   6.308  14.509  0.3268  0.5113 -0.2586
 2193TIP3    H228071   2.883   6.448  14.563  1.0819  0.2229  0.3443
 2194TIP3   OH228072   2.445   1.035   4.732  0.1851  0.2922  0.1529
 2194TIP3    H128073   2.540   1.035   4.733  0.2169 -1.5963 -1.9438
 2194TIP3    H228074   2.421   0.982   4.657 -2.5193  2.8462 -0.8849
 2195TIP3   OH228075   3.864   5.498  13.409  0.0740  0.2839  0.3185
 2195TIP3    H128076   3.842   5.429  13.346 -0.5527  0.6861  0.1044
 2195TIP3    H228077   3.895   5.571  13.356  2.5879 -0.5133  0.6453
 2196TIP3   OH228078   3.523   5.038  11.100  0.0404  0.3085  0.1258
 2196TIP3    H128079   3.564   4.970  11.046 -0.1147  0.1816  0.1691
 2196TIP3    H228080   3.518   4.999  11.187 -0.2077  0.3087  0.1130
 2197TIP3   OH228081   0.941   6.527  16.688 -0.4727  0.5311 -0.1717
 2197TIP3    H128082   0.874   6.514  16.620 -0.5790 -1.2057  0.2375
 2197TIP3    H228083   0.909   6.478  16.763 -0.3427  2.4404  1.1567
 2198TIP3   OH228084   3.474   1.428  12.266  0.2051 -0.2830 -0.2270
 2198TIP3    H128085   3.491   1.510  12.313  1.3925  0.1224 -1.3441
 2198TIP3    H228086   3.537   1.428  12.194 -3.3209  0.4567 -3.4993
 2199TIP3   OH228087   1.092   3.731  16.936 -0.5434 -0.2444  0.5215
 2199TIP3    H128088   1.127   3.695  17.017 -0.0739  0.4495  0.6292
 2199TIP3    H228089   1.157   3.709  16.870 -0.5263 -0.0879  0.4855
 2200TIP3   OH228090   1.063   1.189  16.435 -0.5319 -0.1858 -0.0756
 2200TIP3    H128091   1.032   1.173  16.524 -1.1338  0.7213 -0.1205
 2200TIP3    H228092   1.130   1.122  16.420 -0.1853 -0.1265  1.1869
 2201TIP3   OH228093   6.332   3.555  12.256  0.3972  0.2341 -0.4188
 2201TIP3    H128094   6.288   3.536  12.173  0.6427  1.0028 -0.7203
 2201TIP3    H228095   6.272   3.521  12.322 -0.6014  1.1480 -0.8377
 2202TIP3   OH228096   4.723   6.562  16.947  0.1240 -0.4650 -0.6519
 2202TIP3    H128097   4.673   6.489  16.985  0.6620 -0.6974 -0.3689
 2202TIP3    H228098   4.736   6.623  17.020  0.8392 -0.7347 -0.5450
 2203TIP3   OH228099   1.979   4.210   1.823  0.2951  0.0452 -0.1332
 2203TIP3    H128100   2.024   4.239   1.902  1.3638 -3.1407  0.5260
 2203TIP3    H228101   1.897   4.171   1.855 -0.7283  1.5469 -0.8967
 2204TIP3   OH228102   5.556   2.153  16.133 -0.0312  0.5038  0.3000
 2204TIP3    H128103   5.546   2.170  16.039 -2.0276 -1.5717  0.0947
 2204TIP3    H228104   5.650   2.163  16.149  0.1620  2.1777 -1.6338
 2205TIP3   OH228105   1.512   0.786  14.605  0.0833  0.0219  0.7857
 2205TIP3    H128106   1.514   0.725  14.531 -0.6981  0.4337  0.4121
 2205TIP3    H228107   1.505   0.730  14.682 -1.2662 -0.3518  0.4068
 2206TIP3   OH228108   0.919   5.210  14.582  0.0221  0.1373  0.2198
 2206TIP3    H128109   0.909   5.153  14.659  0.2816 -2.3757 -1.5626
 2206TIP3    H228110   0.830   5.223  14.551  0.0488 -0.1319  0.0311
 2207TIP3   OH228111   5.617   1.616   0.964  0.1893 -0.4380  0.4304
 2207TIP3    H128112   5.626   1.672   1.041  2.5267 -0.1184 -0.0449
 2207TIP3    H228113   5.542   1.651   0.917 -1.0579 -0.4350  2.3725
 2208TIP3   OH228114   0.200   2.524   6.542 -0.1442 -0.1219 -0.3760
 2208TIP3    H128115   0.264   2.567   6.486  1.6500  2.0564  3.1720
 2208TIP3    H228116   0.239   2.438   6.561  0.8287  0.4419  0.2073
 2209TIP3   OH228117   0.482   0.453  13.269 -0.1820  0.5605  0.0303
 2209TIP3    H128118   0.520   0.412  13.191  0.9056  0.8252  0.4077
 2209TIP3    H228119   0.552   0.451  13.334 -1.5125 -0.9252  1.4730
 2210TIP3   OH228120   4.371   0.520  15.486 -0.0736 -0.1188  0.1165
 2210TIP3    H128121   4.392   0.427  15.496  0.0442 -0.2244 -1.0509
 2210TIP3    H228122   4.379   0.556  15.574 -0.5115 -1.2933  0.6433
 2211TIP3   OH228123   5.925   1.911  11.547  0.1023 -0.4472  0.4218
 2211TIP3    H128124   5.888   1.938  11.463  0.5146 -0.7471  0.1390
 2211TIP3    H228125   6.002   1.966  11.558 -1.4982  1.5544  1.9541
 2212TIP3   OH228126   1.999   2.776   5.440 -0.3940  0.2265 -0.2700
 2212TIP3    H128127   1.970   2.836   5.372 -1.2928 -0.8808 -0.8849
 2212TIP3    H228128   2.091   2.760   5.421 -0.7361 -0.3771 -1.4702
 2213TIP3   OH228129   4.453   4.911   1.565  0.3346 -0.6669 -0.0880
 2213TIP3    H128130   4.419   4.822   1.565 -0.0559 -0.5205 -0.0414
 2213TIP3    H228131   4.448   4.939   1.474 -1.2534 -0.0560  0.1690
 2214TIP3   OH228132   5.157   6.267   3.288  0.5438  0.5083  0.2452
 2214TIP3    H128133   5.227   6.248   3.225  2.2702  2.2408  1.5808
 2214TIP3    H228134   5.198   6.253   3.373 -0.6445  1.8863  1.0510
 2215TIP3   OH228135   1.039   6.812  17.266 -0.1316  0.1697 -0.0583
 2215TIP3    H128136   1.135   6.809  17.261 -0.0149  0.6812  1.6896
 2215TIP3    H228137   1.012   6.721  17.275  0.2118  0.0657 -0.0785
 2216TIP3   OH228138   0.730   3.826   5.604 -0.0806 -0.4180  0.1769
 2216TIP3    H128139   0.816   3.790   5.623  1.2153  1.3419 -2.1449
 2216TIP3    H228140   0.695   3.771   5.534 -0.6311 -0.7843  0.7299
 2217TIP3   OH228141   5.428   5.171  14.645  0.2235  0.8154  0.2373
 2217TIP3    H128142   5.373   5.210  14.713 -0.8518  2.7842 -1.6892
 2217TIP3    H228143   5.513   5.159  14.687 -0.3367  2.2605  1.8557
 2218TIP3   OH228144   4.350   4.956   2.988 -0.3192  0.0153 -0.3610
 2218TIP3    H128145   4.260   4.988   2.998 -0.2830  0.2026 -0.6398
 2218TIP3    H228146   4.340   4.865   2.960 -0.4223 -0.1168  0.0992
 2219TIP3   OH228147   0.354   0.196  17.097  0.1756 -0.7576 -0.4511
 2219TIP3    H128148   0.270   0.189  17.142  0.7237  0.0195  0.7479
 2219TIP3    H228149   0.340   0.261  17.029  0.3085  0.8539  1.0245
 2220TIP3   OH228150   6.145   0.445  14.271 -0.5007 -0.4373  0.3329
 2220TIP3    H128151   6.229   0.421  14.309 -0.9619 -1.8595  0.5015
 2220TIP3    H228152   6.152   0.421  14.179 -1.1627 -1.7721  0.6194
 2221TIP3   OH228153   1.550   3.800  14.207  0.3505 -0.7790  0.3412
 2221TIP3    H128154   1.637   3.777  14.239  0.1337 -3.0411 -0.5649
 2221TIP3    H228155   1.491   3.778  14.280  0.5034  0.4269  0.8302
 2222TIP3   OH228156   0.325   5.110  13.498  0.0616  0.5234  0.1524
 2222TIP3    H128157   0.340   5.074  13.585  1.0899  1.1898  0.2593
 2222TIP3    H228158   0.230   5.122  13.493  0.1254  1.8784  1.7509
 2223TIP3   OH228159   2.538   5.241   1.423  0.6576 -0.5371 -0.4436
 2223TIP3    H128160   2.631   5.237   1.441  0.6449 -1.2896 -0.5169
 2223TIP3    H228161   2.497   5.253   1.508  0.9128  1.5721 -0.5907
 2224TIP3   OH228162   4.593   3.548   3.565  0.0982 -0.0262 -0.5631
 2224TIP3    H128163   4.543   3.629   3.579 -1.5223 -1.5873  3.7089
 2224TIP3    H228164   4.683   3.571   3.586 -0.0016  1.1763 -1.4466
 2225TIP3   OH228165   5.946   2.843  11.290 -0.4079 -0.0148  0.0601
 2225TIP3    H128166   5.910   2.881  11.210 -2.1131 -1.1328  0.2621
 2225TIP3    H228167   5.887   2.873  11.359  0.4105  0.0336  0.7462
 2226TIP3   OH228168   2.236   6.033  16.007  0.5360 -0.6009  0.7345
 2226TIP3    H128169   2.236   6.046  16.102  0.5632 -0.2214  0.6867
 2226TIP3    H228170   2.152   5.993  15.988 -0.0993  0.7191  0.7424
 2227TIP3   OH228171   5.738   4.937  13.466  0.6183  0.0978 -0.0476
 2227TIP3    H128172   5.800   4.939  13.538  0.7670  0.7364 -0.1882
 2227TIP3    H228173   5.652   4.939  13.508  0.7048  0.5571  0.1072
 2228TIP3   OH228174   0.377   6.047   3.276  0.0737  0.3233  0.1522
 2228TIP3    H128175   0.321   6.050   3.198  1.7460  0.2829 -1.0593
 2228TIP3    H228176   0.360   5.961   3.314 -2.3893  1.1674  1.0996
 2229TIP3   OH228177   4.908   5.893  16.557 -0.6858  0.0297  0.0058
 2229TIP3    H128178   4.859   5.943  16.623 -1.6850 -0.9450  0.0017
 2229TIP3    H228179   4.847   5.827  16.526  0.1538 -0.2417 -1.0935
 2230TIP3   OH228180   5.691   1.379  12.538  0.3158 -0.8145 -0.1297
 2230TIP3    H128181   5.624   1.319  12.569 -0.2092 -2.0035 -3.3742
 2230TIP3    H228182   5.773   1.331  12.546  0.3868 -0.5058  0.9587
 2231TIP3   OH228183   2.834   0.399   1.110  0.1826  0.5097 -0.5755
 2231TIP3    H128184   2.894   0.430   1.178  0.0022  0.4195 -0.3762
 2231TIP3    H228185   2.892   0.371   1.038  0.3685  0.6905 -0.4968
 2232TIP3   OH228186   3.351   1.518  14.267  0.1750  0.2635 -0.1561
 2232TIP3    H128187   3.402   1.459  14.211 -0.1834  0.0982 -0.3104
 2232TIP3    H228188   3.347   1.474  14.352 -1.6037 -0.7889 -0.7605
 2233TIP3   OH228189   0.956   0.595  14.681  0.1479  0.3754  0.0225
 2233TIP3    H128190   1.015   0.541  14.629 -1.6368 -1.8059  0.1888
 2233TIP3    H228191   0.884   0.536  14.705 -2.0202  2.8926 -0.0489
 2234TIP3   OH228192   5.601   6.687   1.713 -0.3550  0.7022  0.1138
 2234TIP3    H128193   5.523   6.640   1.741  0.3877 -1.0050 -0.6359
 2234TIP3    H228194   5.628   6.643   1.632  1.3099  1.3357  0.3090
 2235TIP3   OH228195   6.507   1.523  14.155  0.2474  0.1301  0.4113
 2235TIP3    H128196   6.569   1.544  14.225  0.9713 -2.0458  0.4489
 2235TIP3    H228197   6.494   1.429  14.161 -2.3735  0.4130 -0.1946
 2236TIP3   OH228198   0.170   4.608   2.606  0.2598 -0.0722  0.1948
 2236TIP3    H128199   0.092   4.661   2.590  0.4518  0.2232  0.2396
 2236TIP3    H228200   0.243   4.671   2.604  0.5427 -0.4175 -0.3129
 2237TIP3   OH228201   6.161   1.346  12.097 -0.4323 -0.5087 -0.0370
 2237TIP3    H128202   6.073   1.318  12.123  0.4899 -1.6904  1.9656
 2237TIP3    H228203   6.158   1.351  12.002 -3.3352  1.8186  0.1327
 2238TIP3   OH228204   1.025   5.510   5.622  0.2090 -0.1329 -0.6543
 2238TIP3    H128205   0.935   5.510   5.588  0.5412 -1.5902 -1.5750
 2238TIP3    H228206   1.020   5.458   5.702  0.5390 -1.7193 -1.6316
 2239TIP3   OH228207   4.585   3.908   6.012 -0.5320  0.0996 -0.0801
 2239TIP3    H128208   4.507   3.964   6.013 -1.8157 -1.6258 -0.4423
 2239TIP3    H228209   4.606   3.894   6.104 -0.5315  0.7033  0.0179
 2240TIP3   OH228210   1.668   3.041  16.719 -0.4307  0.6287  0.3503
 2240TIP3    H128211   1.739   2.977  16.731 -0.1478  1.2015  1.8429
 2240TIP3    H228212   1.712   3.126  16.725 -1.2052  0.9833  1.1271
 2241TIP3   OH228213   2.995   6.686   3.412  0.2556  0.4330 -0.1521
 2241TIP3    H128214   2.968   6.661   3.501  2.0149  0.1026  0.2993
 2241TIP3    H228215   2.944   6.764   3.393  0.3629  0.9053  1.4327
 2242TIP3   OH228216   2.838   0.341  12.417 -0.8594 -0.1305 -0.4499
 2242TIP3    H128217   2.900   0.325  12.347 -0.4591 -0.4450 -0.0292
 2242TIP3    H228218   2.855   0.430  12.445  1.2530 -1.0862  1.4690
 2243TIP3   OH228219   3.565   1.814  12.161  0.0045 -0.1398 -0.2005
 2243TIP3    H128220   3.506   1.762  12.107 -0.6087  2.6336 -2.2697
 2243TIP3    H228221   3.543   1.905  12.142  1.7022  0.9447  2.6146
 2244TIP3   OH228222   4.514   0.789   0.030  0.3169 -0.5439  0.0171
 2244TIP3    H128223   4.545   0.699   0.020  0.7921 -0.4115  0.2818
 2244TIP3    H228224   4.585   0.843  -0.004 -0.1711 -0.2799 -0.6069
 2245TIP3   OH228225   4.023   6.026   0.364  0.1185  0.1203 -0.2266
 2245TIP3    H128226   3.965   5.964   0.408  0.5640  0.0129  0.2119
 2245TIP3    H228227   4.104   5.977   0.349  1.4146  1.3515  2.4433
 2246TIP3   OH228228   4.984   3.523  14.755 -0.4615  0.4278 -0.4882
 2246TIP3    H128229   4.957   3.454  14.694 -2.3150  0.2352  0.5108
 2246TIP3    H228230   5.066   3.493  14.792 -1.0725 -1.0714 -0.3337
 2247TIP3   OH228231   4.676   4.236   0.559 -0.1075  0.5178 -0.8277
 2247TIP3    H128232   4.698   4.323   0.525  1.2624  0.7737  0.6383
 2247TIP3    H228233   4.654   4.185   0.481 -3.3889  2.8302 -1.4999
 2248TIP3   OH228234   5.494   2.542   4.603  0.4661 -0.6686  0.0333
 2248TIP3    H128235   5.426   2.524   4.668  1.6191  0.5958  1.6680
 2248TIP3    H228236   5.489   2.637   4.589 -0.0153 -0.9881 -2.0332
 2249TIP3   OH228237   5.987   1.063  15.739  0.0418 -0.6914  0.3889
 2249TIP3    H128238   5.981   1.148  15.695 -0.5601 -0.9000  0.0678
 2249TIP3    H228239   5.908   1.057  15.792  0.8536 -0.3654  1.6459
 2250TIP3   OH228240   4.047   4.879   3.124 -0.1163  0.0052  0.0704
 2250TIP3    H128241   4.024   4.925   3.205 -1.2891  0.1389 -0.3304
 2250TIP3    H228242   4.031   4.787   3.143 -1.8797  0.1854 -0.5006
 2251TIP3   OH228243   2.261   4.496  11.527 -0.0769 -0.3742 -0.7933
 2251TIP3    H128244   2.280   4.492  11.621  0.8700  0.8514 -0.9260
 2251TIP3    H228245   2.168   4.472  11.521 -0.3710  0.3683  0.5282
 2252TIP3   OH228246   0.506   3.473   2.699 -0.5050  0.6171 -0.1499
 2252TIP3    H128247   0.437   3.466   2.633 -0.2624  3.3216 -0.7647
 2252TIP3    H228248   0.585   3.494   2.649  0.4763 -0.9997  0.6825
 2253TIP3   OH228249   3.844   1.658   3.905  0.0596 -0.3180 -0.0440
 2253TIP3    H128250   3.796   1.581   3.935 -1.9844  0.9141 -0.0996
 2253TIP3    H228251   3.908   1.624   3.843 -0.4747 -2.0176  0.3222
 2254TIP3   OH228252   5.281   4.862   4.806 -0.2359 -0.1485  0.4063
 2254TIP3    H128253   5.189   4.841   4.793 -0.0015 -1.1393  0.2647
 2254TIP3    H228254   5.316   4.787   4.853  1.4765 -1.8883 -3.4368
 2255TIP3   OH228255   5.355   4.213  12.481 -0.1615  0.3971 -0.0245
 2255TIP3    H128256   5.388   4.203  12.392  1.4956 -2.7754  0.8629
 2255TIP3    H228257   5.265   4.181  12.477 -0.4976  1.4284 -0.8064
 2256TIP3   OH228258   4.809   6.730  15.845 -0.2801  0.3026 -0.0897
 2256TIP3    H128259   4.758   6.795  15.797  1.0847  0.9805 -0.6398
 2256TIP3    H228260   4.897   6.768  15.852  1.1281 -2.3501 -2.2939
 2257TIP3   OH228261   5.952   3.804  14.692 -0.2704 -0.0116  0.2771
 2257TIP3    H128262   5.950   3.858  14.614  0.1128  0.1378  0.3681
 2257TIP3    H228263   5.933   3.865  14.764 -1.8598 -0.3685  0.1910
 2258TIP3   OH228264   4.636   5.305   4.448  0.3133  0.0678  1.1002
 2258TIP3    H128265   4.550   5.332   4.414  0.3152  1.0975  1.8919
 2258TIP3    H228266   4.668   5.242   4.384 -1.0141 -0.2828  0.7633
 2259TIP3   OH228267   6.277   1.988  14.973  0.0629  0.2278 -0.1755
 2259TIP3    H128268   6.358   1.982  14.923 -0.2102 -1.4219 -0.4376
 2259TIP3    H228269   6.304   2.027  15.057  1.0900 -0.1832 -0.3075
 2260TIP3   OH228270   6.731   6.500   1.215  0.2403  0.0002  0.4470
 2260TIP3    H128271   6.779   6.565   1.265 -0.3756  0.0919  0.9312
 2260TIP3    H228272   6.731   6.533   1.125 -1.1684  1.3302  0.9080
 2261TIP3   OH228273   1.029   5.714   4.638 -0.3603  0.0911  0.2452
 2261TIP3    H128274   0.963   5.695   4.571  1.2313 -0.3596 -1.2514
 2261TIP3    H228275   1.084   5.636   4.640  0.1157  0.4502  1.5042
 2262TIP3   OH228276   1.831   6.167   5.003  0.1114  0.1851 -0.3345
 2262TIP3    H128277   1.864   6.228   4.936  2.0116 -0.2198  0.2106
 2262TIP3    H228278   1.822   6.084   4.956  0.9111  0.0361 -0.2325
 2263TIP3   OH228279   2.246   2.816   3.315 -0.0804  0.1283 -0.3423
 2263TIP3    H128280   2.326   2.851   3.276  0.1391  1.2056  1.0797
 2263TIP3    H228281   2.230   2.870   3.391 -1.6447 -0.6970 -0.0638
 2264TIP3   OH228282   2.423   2.961  15.393  0.2495  0.2480 -1.0500
 2264TIP3    H128283   2.483   3.028  15.362  0.0442  0.9892  0.1130
 2264TIP3    H228284   2.336   2.995  15.370  0.1714  0.1547 -0.8941
 2265TIP3   OH228285   2.243   6.730   0.653 -0.1474 -0.1785 -0.0208
 2265TIP3    H128286   2.258   6.793   0.724  0.5688 -0.9145  0.4971
 2265TIP3    H228287   2.256   6.645   0.694 -1.3595 -0.6750 -0.6618
 2266TIP3   OH228288   2.741   4.646  16.047  0.1476 -0.0897 -0.3163
 2266TIP3    H128289   2.796   4.712  16.005 -0.6622  0.5273 -0.4064
 2266TIP3    H228290   2.796   4.609  16.116 -0.0486  2.0367  1.0173
 2267TIP3   OH228291   1.973   6.186  15.431 -0.0383  0.2045  0.5210
 2267TIP3    H128292   2.027   6.238  15.490  0.8412  0.4623 -0.4898
 2267TIP3    H228293   2.034   6.120  15.397 -0.1161  1.0805 -1.3530
 2268TIP3   OH228294   5.162   6.458  16.650 -0.6757  0.1342 -0.7034
 2268TIP3    H128295   5.067   6.461  16.665 -0.5134  0.1429  0.3415
 2268TIP3    H228296   5.193   6.388  16.708  0.2440  1.5582  0.5310
 2269TIP3   OH228297   0.544   5.734   2.676  0.2994 -0.0684  0.5266
 2269TIP3    H128298   0.627   5.686   2.675 -0.1595 -0.8522 -1.0877
 2269TIP3    H228299   0.516   5.736   2.585  0.5388  3.7447  0.4419
 2270TIP3   OH228300   6.302   3.687   2.225 -0.2618 -0.3975  0.9924
 2270TIP3    H128301   6.318   3.665   2.317  0.4705  0.1574  1.0056
 2270TIP3    H228302   6.346   3.618   2.176  0.1144 -0.2016  1.0526
 2271TIP3   OH228303   3.315   1.303   6.144  0.4675  0.1478  0.0737
 2271TIP3    H128304   3.327   1.398   6.152  2.3945 -0.1037  0.2163
 2271TIP3    H228305   3.223   1.294   6.119 -0.0185  2.0012  1.0507
 2272TIP3   OH228306   5.100   3.306  16.706  0.3712  0.5706 -0.7318
 2272TIP3    H128307   5.118   3.314  16.799  0.1214  0.2382 -0.6559
 2272TIP3    H228308   5.092   3.396  16.675  0.2130  0.6756 -0.3837
 2273TIP3   OH228309   4.670   6.513   4.870  0.3909 -0.2107 -0.0143
 2273TIP3    H128310   4.656   6.595   4.916  0.8060 -0.8413  1.2630
 2273TIP3    H228311   4.582   6.476   4.858  0.3034 -0.1758  0.5218
 2274TIP3   OH228312   0.997   3.374  11.904  0.5531  0.5829  0.4968
 2274TIP3    H128313   0.971   3.282  11.906 -1.9012  1.1731 -1.4597
 2274TIP3    H228314   1.087   3.373  11.872  0.5354 -1.1392  0.4466
 2275TIP3   OH228315   3.464   2.278  15.217  0.1206 -0.0347 -0.6357
 2275TIP3    H128316   3.396   2.225  15.176 -1.5084  0.9529  0.6910
 2275TIP3    H228317   3.424   2.308  15.299  1.4789  2.1054 -0.7083
 2276TIP3   OH228318   5.621   2.079  13.482  0.5674  0.3975 -0.0592
 2276TIP3    H128319   5.592   2.060  13.571  0.4571  1.1158  0.0589
 2276TIP3    H228320   5.580   2.011  13.429 -0.0582  0.4716  0.3224
 2277TIP3   OH228321   4.723   0.118   6.303  0.1689 -0.2335  0.4989
 2277TIP3    H128322   4.800   0.170   6.281 -0.4819  0.5793  0.1196
 2277TIP3    H228323   4.757   0.029   6.314  1.3618  0.3477  1.6543
 2278TIP3   OH228324   4.334   6.345  17.222 -0.1101 -0.2738  0.2848
 2278TIP3    H128325   4.255   6.354  17.275 -0.5638 -0.2203 -0.3853
 2278TIP3    H228326   4.314   6.274  17.161 -0.3188  0.9194 -1.0619
 2279TIP3   OH228327   4.446   5.534  15.590 -0.3482  0.6175 -0.4454
 2279TIP3    H128328   4.360   5.501  15.562 -0.0052  0.9915 -1.9782
 2279TIP3    H228329   4.507   5.464  15.567  0.5252  2.6610 -4.6557
 2280TIP3   OH228330   0.260   2.789  10.494 -0.1858  0.1182 -0.4857
 2280TIP3    H128331   0.291   2.711  10.540  0.3941 -0.3908 -1.7098
 2280TIP3    H228332   0.311   2.790  10.412 -1.3028  0.9172 -1.1778
 2281TIP3   OH228333   3.539   3.896   4.205  0.1887 -0.0199  0.1990
 2281TIP3    H128334   3.634   3.906   4.201  0.1412  0.0408 -1.2479
 2281TIP3    H228335   3.505   3.969   4.153 -0.7068  0.6652  1.7024
 2282TIP3   OH228336   5.961   3.978   2.450 -0.0134 -0.3409  0.1266
 2282TIP3    H128337   5.981   4.071   2.461 -0.3098 -0.2863  0.1981
 2282TIP3    H228338   6.047   3.936   2.446  0.1340  0.0244 -0.6692
 2283TIP3   OH228339   0.472   3.404   4.300 -0.0395  0.3337  0.4744
 2283TIP3    H128340   0.473   3.445   4.386 -0.3553  1.0277  0.1593
 2283TIP3    H228341   0.479   3.478   4.239  1.2585 -0.2284 -0.0719
 2284TIP3   OH228342   3.746   3.764   1.255 -0.5613 -0.2816  0.3660
 2284TIP3    H128343   3.770   3.731   1.341  1.0823 -0.4986 -0.1668
 2284TIP3    H228344   3.735   3.858   1.268 -0.2359 -0.3002  0.7919
 2285TIP3   OH228345   6.438   5.450   2.784  0.4986  0.2396  0.0190
 2285TIP3    H128346   6.450   5.444   2.689  1.4007  1.2027  0.0645
 2285TIP3    H228347   6.402   5.538   2.797  0.4138  0.1201  0.5754
 2286TIP3   OH228348   3.526   5.099   0.802  0.3970  0.2869 -0.1450
 2286TIP3    H128349   3.435   5.074   0.786  0.1710  0.6826  0.4974
 2286TIP3    H228350   3.559   5.035   0.865  0.2951  0.6612  0.2920
 2287TIP3   OH228351   6.554   3.629  15.029 -0.0672  0.5379  0.4541
 2287TIP3    H128352   6.553   3.559  14.964  3.8257  1.3837 -0.6401
 2287TIP3    H228353   6.581   3.587  15.110  1.3742  0.5886  0.0082
 2288TIP3   OH228354   0.919   1.206  12.351  0.1091 -0.3416 -0.3048
 2288TIP3    H128355   0.934   1.186  12.259 -0.2695  0.5679 -0.5711
 2288TIP3    H228356   0.974   1.144  12.399  0.2286 -0.8821 -1.1382
 2289TIP3   OH228357   1.453   5.287  15.309  0.1192 -0.1226  0.7657
 2289TIP3    H128358   1.489   5.303  15.221  0.1601 -0.7019  0.6720
 2289TIP3    H228359   1.358   5.285  15.296  0.1948 -3.0776  0.2080
 2290TIP3   OH228360   1.211   4.402   4.823 -0.1216 -0.3151  0.5267
 2290TIP3    H128361   1.212   4.429   4.915  0.1859  1.7628 -0.0549
 2290TIP3    H228362   1.303   4.398   4.797 -0.2077 -0.7956  0.2911
 2291TIP3   OH228363   4.569   3.240   6.010 -0.1102 -0.4155 -0.0472
 2291TIP3    H128364   4.545   3.243   6.103 -1.6154 -3.0100 -0.3136
 2291TIP3    H228365   4.630   3.166   6.004 -0.2934 -0.4757 -1.1827
 2292TIP3   OH228366   0.235   2.373  13.124  0.2971  0.0885  0.5715
 2292TIP3    H128367   0.306   2.373  13.060  0.3596 -2.1425  0.6066
 2292TIP3    H228368   0.277   2.350  13.207 -0.5228 -1.9974  0.4618
 2293TIP3   OH228369   6.010   3.719   2.232  0.6669 -0.4050  0.3404
 2293TIP3    H128370   6.088   3.673   2.201  0.7911 -1.5848  2.2914
 2293TIP3    H228371   6.029   3.740   2.323 -1.1096 -0.3078  0.7137
 2294TIP3   OH228372   0.815   2.048   0.602  0.1052 -0.5479  0.4428
 2294TIP3    H128373   0.795   2.142   0.606  0.1360 -0.4917 -0.5924
 2294TIP3    H228374   0.891   2.038   0.659 -0.9693 -0.2488  1.9512
 2295TIP3   OH228375   3.881   3.822  15.213  0.1963  0.3297 -0.2438
 2295TIP3    H128376   3.925   3.750  15.167  0.0239 -0.0361  0.1616
 2295TIP3    H228377   3.826   3.863  15.145  0.0984 -0.0820 -0.4175
 2296TIP3   OH228378   5.515   1.710  16.152  0.2354  0.4272  0.8674
 2296TIP3    H128379   5.587   1.726  16.091  0.3984 -0.7187  0.7349
 2296TIP3    H228380   5.472   1.795  16.162  0.8650  0.8586 -0.0054
 2297TIP3   OH228381   1.695   0.049   0.945 -0.6908 -0.3685  0.7843
 2297TIP3    H128382   1.697   0.141   0.971 -1.1199 -0.2712  0.4814
 2297TIP3    H228383   1.741   0.003   1.015 -0.1696  0.1168  0.7671
 2298TIP3   OH228384   1.447   4.756   0.985  0.3588 -0.2364  0.2219
 2298TIP3    H128385   1.388   4.831   0.973  0.5771 -0.1631 -0.4478
 2298TIP3    H228386   1.445   4.738   1.079 -0.1292  0.2577  0.3086
 2299TIP3   OH228387   1.424   2.850  16.267 -0.3795  0.6814  0.6288
 2299TIP3    H128388   1.379   2.934  16.259  1.1420  1.4791  0.2559
 2299TIP3    H228389   1.445   2.826  16.178 -0.9140 -0.1691  0.7274
 2300TIP3   OH228390   5.023   2.857   6.492  0.3776  0.5111  0.5630
 2300TIP3    H128391   5.002   2.949   6.509  0.5715  0.6663 -0.0296
 2300TIP3    H228392   4.946   2.823   6.446  0.6283  0.5778  0.0957
 2301TIP3   OH228393   4.888   3.603   6.491  0.4083  0.3807 -0.8521
 2301TIP3    H128394   4.835   3.673   6.530 -1.5371 -0.0707 -2.6633
 2301TIP3    H228395   4.929   3.645   6.415 -0.6484 -0.3918 -1.8574
 2302TIP3   OH228396   5.742   5.100   1.525 -0.5146 -0.5270  0.5060
 2302TIP3    H128397   5.831   5.078   1.550 -0.1691 -0.8330 -0.9729
 2302TIP3    H228398   5.718   5.174   1.582  0.9541  0.0829  0.3346
 2303TIP3   OH228399   4.383   3.955   4.565 -0.1798  0.6225 -0.0578
 2303TIP3    H128400   4.429   3.876   4.539  1.0677  1.3154  0.0266
 2303TIP3    H228401   4.294   3.944   4.530  0.3943 -0.1560 -1.2744
 2304TIP3   OH228402   0.767   3.707   2.947  0.4947 -0.4136 -0.0175
 2304TIP3    H128403   0.815   3.624   2.957  0.3459 -0.6918 -1.4646
 2304TIP3    H228404   0.681   3.681   2.915  0.4635  0.2998 -0.5253
 2305TIP3   OH228405   1.779   2.293  16.184  0.2111 -0.6494  0.4280
 2305TIP3    H128406   1.866   2.331  16.195  0.8109 -1.9517  0.2543
 2305TIP3    H228407   1.734   2.354  16.125  1.1598 -0.2086  0.1466
 2306TIP3   OH228408   2.388   5.297   5.051  0.1091  0.3168  0.5755
 2306TIP3    H128409   2.382   5.328   5.141  0.8180  0.1301  0.6933
 2306TIP3    H228410   2.338   5.360   5.000 -1.7403 -0.5240  1.3207
 2307TIP3   OH228411   6.557   6.403   3.151  0.6447 -0.1501  0.0484
 2307TIP3    H128412   6.517   6.462   3.215 -0.7781 -0.4874 -0.5163
 2307TIP3    H228413   6.592   6.331   3.203  1.3397  0.6118  0.6340
 2308TIP3   OH228414   3.975   3.585  11.791  0.3429  0.2393 -0.2360
 2308TIP3    H128415   3.881   3.581  11.810 -0.3072 -0.5564 -3.4232
 2308TIP3    H228416   3.984   3.659  11.731  1.8774  0.7668  0.6239
 2309TIP3   OH228417   0.898   3.505  14.609  0.2525  0.3981  0.2655
 2309TIP3    H128418   0.850   3.580  14.643  0.7572  1.2376 -0.8133
 2309TIP3    H228419   0.835   3.460  14.552 -0.2916 -0.4499  1.5359
 2310TIP3   OH228420   3.785   0.689   2.244 -0.2867  0.6766 -0.0010
 2310TIP3    H128421   3.742   0.629   2.305 -2.6408  2.7339  0.4326
 2310TIP3    H228422   3.836   0.747   2.300  0.1683  0.4997 -0.2364
 2311TIP3   OH228423   6.643   6.681  11.455 -0.3524 -0.2025 -0.6961
 2311TIP3    H128424   6.719   6.623  11.445 -0.2007  0.1664 -1.7409
 2311TIP3    H228425   6.681   6.768  11.469 -0.5808 -0.3399  0.9241
 2312TIP3   OH228426   5.202   1.750   3.744  0.0510  0.0557  0.1272
 2312TIP3    H128427   5.252   1.829   3.763  1.1312 -0.3060 -1.1111
 2312TIP3    H228428   5.119   1.762   3.789  0.8647  1.1257  1.3702
 2313TIP3   OH228429   5.396   4.519   3.041  0.0944 -0.0157 -0.3270
 2313TIP3    H128430   5.479   4.547   3.081 -0.6265 -0.0362  1.1795
 2313TIP3    H228431   5.337   4.504   3.114 -1.8200  1.7638 -1.4582
 2314TIP3   OH228432   5.733   6.718   4.472 -0.0420 -0.5875  0.0616
 2314TIP3    H128433   5.665   6.785   4.477  0.5707  0.1892 -1.5348
 2314TIP3    H228434   5.807   6.761   4.429  0.6936 -2.0161 -0.1520
 2315TIP3   OH228435   3.884   0.970   5.161 -0.6435  0.6894  0.0311
 2315TIP3    H128436   3.934   0.939   5.237 -0.2243 -0.8318 -0.8488
 2315TIP3    H228437   3.793   0.969   5.191 -0.7861 -2.7735 -0.4086
 2316TIP3   OH228438   1.616   6.233   0.769 -0.1520  0.2985  0.1299
 2316TIP3    H128439   1.661   6.148   0.772  0.3961  0.5976  0.3632
 2316TIP3    H228440   1.597   6.254   0.860 -1.8446 -0.3910 -0.0404
 2317TIP3   OH228441   1.274   4.566  11.830  0.2993 -0.0064 -0.5573
 2317TIP3    H128442   1.293   4.660  11.821  0.7357 -0.0727 -0.3344
 2317TIP3    H228443   1.249   4.555  11.921 -4.8746  0.7995 -1.7478
 2318TIP3   OH228444   5.147   0.158  12.953 -0.7444  0.6883 -0.1611
 2318TIP3    H128445   5.126   0.082  13.008 -0.8531  0.2505 -0.8099
 2318TIP3    H228446   5.160   0.229  13.016 -0.7797  0.1695  0.4448
 2319TIP3   OH228447   0.478   4.563   2.397 -0.4211 -0.0473 -0.7024
 2319TIP3    H128448   0.510   4.540   2.310 -2.1158 -0.7539 -1.1597
 2319TIP3    H228449   0.384   4.576   2.385 -0.0042  4.3982  0.0951
 2320TIP3   OH228450   2.680   0.865  14.229  0.6846  0.0135 -0.1782
 2320TIP3    H128451   2.770   0.847  14.204  0.7632  0.2320 -0.0425
 2320TIP3    H228452   2.658   0.947  14.186  1.2260  1.0477  1.4915
 2321TIP3   OH228453   0.670   2.724   5.470  0.1863 -0.1240  0.5433
 2321TIP3    H128454   0.605   2.703   5.536  0.6246 -0.9001  0.7461
 2321TIP3    H228455   0.707   2.807   5.497 -0.1772 -0.0655  0.8539
 2322TIP3   OH228456   2.972   2.044   1.992  0.4812  0.1113  0.2707
 2322TIP3    H128457   2.960   1.978   1.924 -0.0672 -1.0948  1.5147
 2322TIP3    H228458   2.885   2.057   2.029  0.4856  1.9367 -0.3040
 2323TIP3   OH228459   1.812   1.831   2.800 -0.0086 -0.0689 -0.0689
 2323TIP3    H128460   1.794   1.837   2.706 -0.7639 -1.4202 -0.0254
 2323TIP3    H228461   1.907   1.844   2.807 -0.1276  1.3904 -0.8665
 2324TIP3   OH228462   6.709   4.813   5.246  0.1177  0.0802  0.2074
 2324TIP3    H128463   6.760   4.852   5.175  1.9741 -0.5390  1.1832
 2324TIP3    H228464   6.763   4.740   5.277 -2.0202 -1.5001  0.3087
 2325TIP3   OH228465   6.450   2.830   5.766 -0.0919  0.1259 -0.2207
 2325TIP3    H128466   6.430   2.914   5.725  1.0597  1.4869  1.9123
 2325TIP3    H228467   6.364   2.793   5.788 -0.6627 -0.0396 -2.6318
 2326TIP3   OH228468   5.978   2.551   4.322 -0.2565  0.2213 -0.2026
 2326TIP3    H128469   5.925   2.526   4.246 -0.0109 -0.5614 -0.1251
 2326TIP3    H228470   5.987   2.646   4.315 -0.7191  0.2230 -0.8374
 2327TIP3   OH228471   3.611   5.197   0.531  0.1683 -0.1776  0.2188
 2327TIP3    H128472   3.541   5.262   0.543 -2.2667 -2.5480 -0.5487
 2327TIP3    H228473   3.610   5.146   0.613  2.2234  0.8748  0.9136
 2328TIP3   OH228474   1.420   2.994   0.068  0.1725  0.0392 -0.1952
 2328TIP3    H128475   1.510   2.998   0.099 -0.0249 -0.6186  0.4696
 2328TIP3    H228476   1.413   2.910   0.023 -0.7157 -0.9351  1.6994
 2329TIP3   OH228477   4.729   1.643  16.826  0.5247 -0.3615 -0.5506
 2329TIP3    H128478   4.710   1.673  16.737  1.2591  2.4059  0.1669
 2329TIP3    H228479   4.823   1.653  16.835  0.2126  1.3818  1.1788
 2330TIP3   OH228480   4.468   0.555   2.798 -0.2507  0.0226  0.5157
 2330TIP3    H128481   4.403   0.504   2.847 -0.2085  0.4438  1.0134
 2330TIP3    H228482   4.427   0.641   2.787 -1.4921 -0.8994 -2.6965
 2331TIP3   OH228483   6.659   4.774   0.670 -0.2014 -0.1669 -0.0830
 2331TIP3    H128484   6.740   4.746   0.628  0.3278 -0.4718  1.1183
 2331TIP3    H228485   6.636   4.702   0.729 -0.2784  0.7664  1.0467
 2332TIP3   OH228486   1.251   4.252   6.225  0.0984 -0.7381 -0.0155
 2332TIP3    H128487   1.232   4.199   6.303 -2.0327 -1.0062 -0.6838
 2332TIP3    H228488   1.226   4.341   6.250 -0.0560 -0.7272 -0.2075
 2333TIP3   OH228489   1.043   3.272   1.164 -0.3364 -0.1087  0.0631
 2333TIP3    H128490   1.081   3.331   1.099  0.6921 -0.4562  0.3407
 2333TIP3    H228491   1.024   3.192   1.116 -1.0895  0.1970 -0.1603
 2334TIP3   OH228492   0.005   1.599   5.686 -0.6570 -0.3788 -0.2740
 2334TIP3    H128493  -0.051   1.672   5.658  0.1808  0.4185  0.0655
 2334TIP3    H228494  -0.045   1.554   5.754  0.0854  1.7740  1.7583
 2335TIP3   OH228495   3.144   2.869   4.211 -0.6218 -0.6095  0.0257
 2335TIP3    H128496   3.058   2.841   4.181  0.0307 -0.8173 -1.7093
 2335TIP3    H228497   3.205   2.805   4.174  0.4585  0.6205 -0.3835
 2336TIP3   OH228498   2.970   2.290   1.666  0.6591  0.1002 -0.5127
 2336TIP3    H128499   2.904   2.221   1.655 -0.4418  1.0557 -0.0227
 2336TIP3    H228500   3.046   2.258   1.618  0.2469 -1.5676 -0.0794
 2337TIP3   OH228501   4.572   2.459  17.064  0.1748  0.6009  0.0148
 2337TIP3    H128502   4.644   2.441  17.003  1.2874  0.0730  1.4720
 2337TIP3    H228503   4.505   2.394  17.042  0.5708  0.4156 -0.6420
 2338TIP3   OH228504   2.091   5.755  13.274  0.0879  1.3296  0.8648
 2338TIP3    H128505   2.038   5.767  13.353  1.0112  1.2411  1.5077
 2338TIP3    H228506   2.176   5.725  13.307 -0.2985 -1.2105 -0.3097
 2339TIP3   OH228507   1.192   2.037   1.568  0.4341  0.1346 -0.1194
 2339TIP3    H128508   1.267   1.980   1.551  1.1598  0.8094  0.7244
 2339TIP3    H228509   1.171   2.022   1.660  1.0808  1.7024  0.3122
 2340TIP3   OH228510   5.664   6.751   0.134 -0.5078 -0.0030  1.0777
 2340TIP3    H128511   5.669   6.683   0.067 -0.3190  0.9136  0.1476
 2340TIP3    H228512   5.571   6.759   0.153 -0.5877 -0.0629  0.7145
 2341TIP3   OH228513   6.746   5.874  16.890 -0.3609  0.3629  0.0951
 2341TIP3    H128514   6.725   5.927  16.813  1.0740  0.4568 -0.2315
 2341TIP3    H228515   6.821   5.821  16.864 -2.0779 -2.2552  0.2360
 2342TIP3   OH228516   0.003   1.437  10.691  0.0667 -0.0841 -0.2316
 2342TIP3    H128517  -0.061   1.499  10.656 -0.2471  0.1364  0.7138
 2342TIP3    H228518  -0.049   1.358  10.711  0.0095  0.2149  0.8590
 2343TIP3   OH228519   0.560   2.587  13.303  0.0210  0.0831 -0.2349
 2343TIP3    H128520   0.637   2.545  13.263  1.8740  0.4904  2.7391
 2343TIP3    H228521   0.505   2.513  13.330  1.1348 -0.3711  0.8912
 2344TIP3   OH228522   3.950   3.611   2.124  0.0572  0.6432 -0.1273
 2344TIP3    H128523   3.923   3.676   2.059 -2.2770  0.4967  0.6539
 2344TIP3    H228524   3.875   3.553   2.133  1.0862 -0.5186  1.2479
 2345TIP3   OH228525   4.897   2.885  15.249 -0.2946 -0.3989 -0.6834
 2345TIP3    H128526   4.937   2.800  15.268 -1.4957 -1.2758 -1.9960
 2345TIP3    H228527   4.897   2.931  15.333 -0.4567 -2.0475  0.2374
 2346TIP3   OH228528   3.887   5.749  11.367  0.7797 -1.1683 -0.4565
 2346TIP3    H128529   3.808   5.723  11.319  0.8190 -1.3418 -0.4291
 2346TIP3    H228530   3.931   5.666  11.385  0.3110 -1.1851  0.6779
 2347TIP3   OH228531   0.562   3.237  12.820  0.4124 -0.3396  0.1170
 2347TIP3    H128532   0.532   3.147  12.835 -3.8490  1.2921  2.2445
 2347TIP3    H228533   0.571   3.274  12.907  0.2794  1.8282 -0.7690
 2348TIP3   OH228534   6.375   0.046   6.131 -0.3733 -0.5186  0.2635
 2348TIP3    H128535   6.423  -0.034   6.149 -0.9019 -1.0675 -0.7441
 2348TIP3    H228536   6.288   0.032   6.168 -0.4089 -0.3419  0.2488
 2349TIP3   OH228537   4.646   4.915   1.962 -0.6730  0.1523 -1.0137
 2349TIP3    H128538   4.740   4.900   1.948 -0.6129  1.2483 -1.8218
 2349TIP3    H228539   4.635   5.009   1.953 -1.5207  0.2944  1.1476
 2350TIP3   OH228540   1.369   3.178   4.388  0.0377 -1.0484  0.4107
 2350TIP3    H128541   1.397   3.091   4.358  0.9103 -0.5845 -0.1145
 2350TIP3    H228542   1.438   3.207   4.446 -0.7124 -1.0967  1.3480
 2351TIP3   OH228543   5.294   3.104   1.218  0.4408 -0.9268  0.2437
 2351TIP3    H128544   5.377   3.065   1.245  1.0467 -0.4937 -0.9470
 2351TIP3    H228545   5.258   3.142   1.299  1.3070 -1.2665  0.7994
 2352TIP3   OH228546   0.045   1.523  12.001  0.2775  0.0178  0.3713
 2352TIP3    H128547   0.010   1.553  11.917  0.8246 -0.0738  0.1067
 2352TIP3    H228548   0.114   1.462  11.978  1.0381  0.6789  0.8755
 2353TIP3   OH228549   5.117   0.611   3.958 -0.1389  0.3851 -0.4590
 2353TIP3    H128550   5.199   0.612   4.009 -0.6755  0.1203  0.4108
 2353TIP3    H228551   5.121   0.691   3.906  1.1515 -0.1248 -1.1949
 2354TIP3   OH228552   3.411   2.469   0.076  0.4452  0.3137 -0.0426
 2354TIP3    H128553   3.361   2.401   0.031  1.1697 -0.2204 -0.0551
 2354TIP3    H228554   3.418   2.540   0.012 -2.1399  1.3152  0.6942
 2355TIP3   OH228555   1.609   3.442  12.935  0.0323  0.5505 -0.0029
 2355TIP3    H128556   1.607   3.521  12.881  0.7932  0.2786 -0.4372
 2355TIP3    H228557   1.688   3.452  12.989  0.2832 -0.0371 -0.2543
 2356TIP3   OH228558   4.385   5.918   5.406  0.7785  0.5186 -0.3823
 2356TIP3    H128559   4.303   5.961   5.429  0.3800  0.9924 -2.5738
 2356TIP3    H228560   4.392   5.845   5.468 -0.7495  1.1035  0.5017
 2357TIP3   OH228561   2.599   6.792   3.319  0.3034 -0.2416  0.4213
 2357TIP3    H128562   2.515   6.833   3.339  0.6561 -0.2136  1.9668
 2357TIP3    H228563   2.586   6.699   3.338  0.2275 -0.4479 -0.6542
 2358TIP3   OH228564   6.404   0.617   0.331  0.7240  0.2629  0.1000
 2358TIP3    H128565   6.415   0.529   0.295  0.9610  0.2358  0.2377
 2358TIP3    H228566   6.353   0.604   0.412 -0.3710  0.3917 -0.5551
 2359TIP3   OH228567   3.695   2.918  16.144  0.4763  0.4611  0.3563
 2359TIP3    H128568   3.780   2.875  16.138  0.5157  0.4261  1.1032
 2359TIP3    H228569   3.639   2.872  16.081  0.2599 -1.2818  1.7954
 2360TIP3   OH228570   1.905   3.532   5.587 -0.3279 -0.1866 -0.1450
 2360TIP3    H128571   1.954   3.488   5.519 -0.7285  1.3056 -1.4339
 2360TIP3    H228572   1.822   3.555   5.546 -0.1353  1.7267  0.4854
 2361TIP3   OH228573   1.716   5.768   6.478 -0.2349  0.1523  0.6734
 2361TIP3    H128574   1.673   5.801   6.557 -1.5144 -0.2121  0.1481
 2361TIP3    H228575   1.717   5.673   6.489  0.6165  0.1660  0.7610
 2362TIP3   OH228576   4.323   0.461   5.615 -0.1341  0.0550 -0.0660
 2362TIP3    H128577   4.369   0.382   5.643 -1.8146 -1.5397 -1.6282
 2362TIP3    H228578   4.242   0.428   5.575 -1.5789  2.6552  0.6262
 2363TIP3   OH228579   1.411   2.021  15.684  0.3580 -0.1624  0.5579
 2363TIP3    H128580   1.404   2.079  15.759  0.1270 -0.6177  0.8931
 2363TIP3    H228581   1.321   1.994  15.666  0.3697  0.2471 -0.1206
 2364TIP3   OH228582   4.155   4.671  10.917 -0.1167  0.1790 -0.0374
 2364TIP3    H128583   4.205   4.614  10.858 -1.1177  0.2471 -0.9620
 2364TIP3    H228584   4.155   4.624  11.000 -0.4243 -0.9037 -0.6367
 2365TIP3   OH228585   1.097   4.702   4.484  0.1816 -0.3566  0.3956
 2365TIP3    H128586   1.098   4.606   4.478 -1.4765 -0.2910 -1.4299
 2365TIP3    H228587   1.102   4.720   4.578 -2.4047 -2.3110  0.9697
 2366TIP3   OH228588   3.089   0.373  16.325 -0.3393  0.1744 -0.0458
 2366TIP3    H128589   3.139   0.421  16.260 -0.8315  1.4347  0.4814
 2366TIP3    H228590   3.002   0.363  16.286 -0.2321 -0.3162 -0.1627
 2367TIP3   OH228591   6.638   5.760  14.539 -0.2460 -0.2845  0.4099
 2367TIP3    H128592   6.720   5.745  14.493 -0.4149 -3.7607  1.0990
 2367TIP3    H228593   6.579   5.692  14.506 -1.8231  0.1480  2.2511
 2368TIP3   OH228594   1.161   5.732   5.489 -0.5058  0.0887 -0.2013
 2368TIP3    H128595   1.240   5.763   5.533 -0.2888 -0.9388  0.1441
 2368TIP3    H228596   1.122   5.669   5.550 -1.1427 -0.0307 -0.7186
 2369TIP3   OH228597   4.884   2.970  13.854 -0.2389  0.1411  0.0195
 2369TIP3    H128598   4.873   2.970  13.759 -0.4790 -0.3447  0.0421
 2369TIP3    H228599   4.970   2.929  13.868 -0.9232 -1.3127  0.0724
 2370TIP3   OH228600   2.003   2.428  15.509  0.2039  0.0649 -0.2456
 2370TIP3    H128601   1.986   2.520  15.530  0.5778  0.0684  0.0473
 2370TIP3    H228602   1.916   2.390  15.495 -0.0141  0.2118  0.6788
 2371TIP3   OH228603   4.575   3.253   4.240  0.1401  0.1648 -0.4407
 2371TIP3    H128604   4.525   3.313   4.295 -0.1350 -0.2496 -0.2350
 2371TIP3    H228605   4.666   3.281   4.250 -0.0924  1.2467 -1.2218
 2372TIP3   OH228606   0.807   3.929  11.215  0.5787 -0.4816 -0.1114
 2372TIP3    H128607   0.720   3.926  11.177  0.5149  0.4364 -0.0460
 2372TIP3    H228608   0.809   4.010  11.266  1.4773 -0.4815 -0.1249
 2373TIP3   OH228609   5.812   2.674  13.169 -0.9079 -0.0632  0.3616
 2373TIP3    H128610   5.748   2.712  13.109 -1.3966 -1.2861  0.0974
 2373TIP3    H228611   5.759   2.636  13.240 -0.4070  0.1657  0.8640
 2374TIP3   OH228612   5.672   6.110   1.151  0.1788 -0.0286  0.6370
 2374TIP3    H128613   5.696   6.128   1.061  1.2994  0.4916  1.0310
 2374TIP3    H228614   5.752   6.079   1.192 -0.7524 -2.0797  1.0028
 2375TIP3   OH228615   5.228   4.006   3.104  0.0828  0.1005  0.3493
 2375TIP3    H128616   5.319   4.034   3.115  0.5582 -1.1379 -0.3979
 2375TIP3    H228617   5.201   3.978   3.191  1.1543 -1.6989  0.1319
 2376TIP3   OH228618   6.787   3.820   0.132  0.3361 -0.0441 -0.2619
 2376TIP3    H128619   6.741   3.855   0.208 -0.8622  1.4930 -1.6486
 2376TIP3    H228620   6.851   3.758   0.168 -1.7157 -0.9958  1.8098
 2377TIP3   OH228621   4.051   5.445  12.116  0.0384  0.0040  0.2442
 2377TIP3    H128622   4.100   5.363  12.113  0.4545  0.2469  0.3601
 2377TIP3    H228623   4.106   5.508  12.070 -0.2144  0.2518  0.2786
 2378TIP3   OH228624   1.457   0.690   2.091  0.3437 -0.8310 -0.7136
 2378TIP3    H128625   1.491   0.724   2.008 -0.3327 -0.6819 -0.9404
 2378TIP3    H228626   1.529   0.700   2.153  0.5383 -0.0400 -1.0537
 2379TIP3   OH228627   1.318   0.639  14.822  0.2416  0.2327 -0.0644
 2379TIP3    H128628   1.264   0.622  14.899 -0.5652 -0.4091 -0.7694
 2379TIP3    H228629   1.325   0.735  14.818 -2.0666  0.3899 -0.7972
 2380TIP3   OH228630   1.713   6.499   0.936  0.4333 -0.4966  0.0918
 2380TIP3    H128631   1.678   6.528   1.021  1.1448 -1.1671  0.6226
 2380TIP3    H228632   1.676   6.560   0.873 -1.5753 -1.1050  0.6608
 2381TIP3   OH228633   5.646   6.793  15.771  0.4491  0.5234 -0.1041
 2381TIP3    H128634   5.730   6.751  15.752 -0.2819 -0.6645 -0.7695
 2381TIP3    H228635   5.629   6.848  15.694 -0.9989 -1.8633 -1.5427
 2382TIP3   OH228636   6.646   6.068  14.960  0.4949 -0.2878  0.1682
 2382TIP3    H128637   6.716   6.029  15.012  0.7475 -0.3905 -0.2399
 2382TIP3    H228638   6.614   5.996  14.905  1.1060  0.1229 -0.7407
 2383TIP3   OH228639   5.387   2.186   1.103  0.4769  0.1090  0.1698
 2383TIP3    H128640   5.362   2.202   1.012  0.6073  0.8400  0.2542
 2383TIP3    H228641   5.318   2.228   1.155 -0.3235 -1.4982  0.4140
 2384TIP3   OH228642   6.118   5.822  10.998  0.2208 -0.1220 -0.2844
 2384TIP3    H128643   6.196   5.854  10.952  0.5047  0.5403  0.6515
 2384TIP3    H228644   6.045   5.868  10.956  0.5819  1.3777  0.7206
 2385TIP3   OH228645   1.935   0.844   3.664  0.0355 -0.6462 -0.2786
 2385TIP3    H128646   1.971   0.895   3.736  1.0906 -0.7615 -0.7152
 2385TIP3    H228647   1.921   0.757   3.700 -0.8824 -0.3079  0.2058
 2386TIP3   OH228648   3.537   0.270  11.529  0.1183  0.4108 -0.1119
 2386TIP3    H128649   3.466   0.215  11.562  0.7086 -0.3115 -0.0547
 2386TIP3    H228650   3.524   0.354  11.574 -0.5311  0.1971  0.1078
 2387TIP3   OH228651   0.252   4.506  11.011  0.8658 -0.3459 -0.2356
 2387TIP3    H128652   0.322   4.473  11.068  0.7838  0.5507  0.4023
 2387TIP3    H228653   0.281   4.485  10.922  1.4554 -0.8990  0.0830
 2388TIP3   OH228654   0.466   4.647   2.894 -0.1235  0.2762  0.3258
 2388TIP3    H128655   0.405   4.708   2.854  2.8543  2.6048 -0.8960
 2388TIP3    H228656   0.486   4.584   2.825 -3.0521 -2.0605  1.5286
 2389TIP3   OH228657   5.339   2.660  15.106  0.2495 -0.1408  0.1454
 2389TIP3    H128658   5.333   2.570  15.139  0.0684 -0.2946 -0.3005
 2389TIP3    H228659   5.260   2.671  15.053  0.7310 -0.0269 -0.5474
 2390TIP3   OH228660   5.560   1.922  12.084  0.1987  0.8165 -0.3151
 2390TIP3    H128661   5.579   1.931  12.178 -1.6429 -0.8651  0.2775
 2390TIP3    H228662   5.645   1.927  12.041  1.0428  1.8928  1.4162
 2391TIP3   OH228663   1.656   6.621   5.016  0.1972 -0.4556 -0.1381
 2391TIP3    H128664   1.690   6.657   5.098 -0.5170  0.8048 -0.3811
 2391TIP3    H228665   1.643   6.528   5.033  2.6836 -0.7542  0.3207
 2392TIP3   OH228666   3.254   5.076  12.671 -0.6165  0.3996  0.1352
 2392TIP3    H128667   3.176   5.100  12.621 -0.7738  1.2859  0.8007
 2392TIP3    H228668   3.243   4.983  12.691  0.5710 -0.6045 -3.5108
 2393TIP3   OH228669   6.699   4.110   2.182  0.7590  0.6337 -0.2012
 2393TIP3    H128670   6.698   4.191   2.234 -0.3935 -0.1417  1.0141
 2393TIP3    H228671   6.746   4.047   2.237 -0.5367 -0.2185 -0.0522
 2394TIP3   OH228672   5.272   6.546  14.478  0.2694  0.1564 -0.6543
 2394TIP3    H128673   5.264   6.636  14.446 -0.4069 -0.2230 -1.5612
 2394TIP3    H228674   5.183   6.521  14.502  0.4352 -0.3275 -0.5404
 2395TIP3   OH228675   1.844   4.565   0.053  0.1719  0.1605 -0.0045
 2395TIP3    H128676   1.847   4.660   0.057  0.9825  0.0957  1.0073
 2395TIP3    H228677   1.864   4.545  -0.039 -1.4054  0.9966 -0.5565
 2396TIP3   OH228678   3.813   3.069   1.846 -0.4090 -0.1189 -0.8562
 2396TIP3    H128679   3.833   3.158   1.815 -0.6798 -0.0950 -0.9631
 2396TIP3    H228680   3.896   3.022   1.839 -0.5083 -0.1726 -1.8097
 2397TIP3   OH228681   0.772   0.471   6.126  0.0633 -0.2146 -0.1765
 2397TIP3    H128682   0.688   0.471   6.173 -0.3513  0.8503 -0.9064
 2397TIP3    H228683   0.836   0.499   6.192 -0.2280 -0.5345  0.2444
 2398TIP3   OH228684   2.521   2.194   2.518  0.3082  0.1566  0.2540
 2398TIP3    H128685   2.516   2.231   2.606  2.4429 -0.7350  0.7835
 2398TIP3    H228686   2.433   2.162   2.501 -0.7261  2.4045  1.1198
 2399TIP3   OH228687   2.768   6.245  10.919  0.1216  0.1456  0.3693
 2399TIP3    H128688   2.685   6.292  10.911 -0.9111 -1.4416  1.5426
 2399TIP3    H228689   2.748   6.169  10.974  2.1848 -0.6474  0.0774
 2400TIP3   OH228690   0.885   6.665  12.098 -0.1038 -0.3935  0.1350
 2400TIP3    H128691   0.853   6.595  12.155 -0.6085 -0.5823 -0.3757
 2400TIP3    H228692   0.808   6.694  12.049  0.6554 -1.4859 -1.7657
 2401TIP3   OH228693   3.461   4.666   0.692  0.3307 -0.3539 -0.6813
 2401TIP3    H128694   3.402   4.642   0.763 -0.3161  2.0843 -0.3291
 2401TIP3    H228695   3.427   4.621   0.615 -0.5278 -0.9181  0.0264
 2402TIP3   OH228696   5.837   3.882   4.803  0.1953 -0.3117  0.7642
 2402TIP3    H128697   5.757   3.829   4.806  0.7379 -1.1607  0.1049
 2402TIP3    H228698   5.840   3.916   4.714 -0.0224  0.6455  1.1128
 2403TIP3   OH228699   0.857   4.551  12.316  0.6061 -0.6174  0.0069
 2403TIP3    H128700   0.779   4.603  12.335  0.3227 -0.7934 -0.6730
 2403TIP3    H228701   0.930   4.613  12.322  0.3741 -0.3672  0.2260
 2404TIP3   OH228702   1.904   0.062   0.420 -0.3749 -0.3736  0.1017
 2404TIP3    H128703   1.996   0.088   0.408 -0.4567 -0.2299 -0.2105
 2404TIP3    H228704   1.891   0.067   0.515 -0.6094  1.5326 -0.0085
 2405TIP3   OH228705   1.114   5.965  17.139 -0.2339  0.3281  0.0583
 2405TIP3    H128706   1.039   5.925  17.095  0.6035 -0.7585 -0.4103
 2405TIP3    H228707   1.162   6.009  17.069 -0.8977  1.7710  0.4934
 2406TIP3   OH228708   0.864   0.768   5.297  0.0888  0.1628 -0.5677
 2406TIP3    H128709   0.829   0.692   5.250  0.6241  0.9254 -2.2166
 2406TIP3    H228710   0.949   0.785   5.256 -0.4145  2.1855 -0.8146
 2407TIP3   OH228711   0.579   0.070   4.113 -0.4099  0.4130  0.1542
 2407TIP3    H128712   0.599  -0.002   4.054 -2.4181 -1.2273  1.4346
 2407TIP3    H228713   0.633   0.054   4.191 -0.1022  0.8686  0.0400
 2408TIP3   OH228714   3.439   1.692  13.727 -0.2884 -0.3951  0.4598
 2408TIP3    H128715   3.361   1.732  13.688  0.1128 -1.0821 -1.1188
 2408TIP3    H228716   3.483   1.764  13.772 -0.4401  0.5915 -0.9370
 2409TIP3   OH228717   1.887   0.135   3.166 -0.6922 -0.4765 -0.0223
 2409TIP3    H128718   1.864   0.124   3.074  2.1144  0.8972 -0.9492
 2409TIP3    H228719   1.940   0.058   3.188  1.1319  0.6078 -0.4597
 2410TIP3   OH228720   4.724   3.011   1.643  0.9218 -0.3713 -0.6461
 2410TIP3    H128721   4.632   3.039   1.640  1.5267  1.6658 -0.9703
 2410TIP3    H228722   4.746   2.989   1.553  0.0734 -3.2490 -0.1950
 2411TIP3   OH228723   5.475   6.755  11.281 -0.3499 -0.5266 -0.1861
 2411TIP3    H128724   5.474   6.706  11.199 -0.4842  1.1096 -1.1819
 2411TIP3    H228725   5.566   6.780  11.295 -0.2683 -1.1247  0.3571
 2412TIP3   OH228726   2.708   0.141  16.785  0.0419 -0.6092 -0.0937
 2412TIP3    H128727   2.704   0.170  16.877  0.2320 -2.8948  0.6767
 2412TIP3    H228728   2.740   0.217  16.737 -1.0766  0.9735  1.5783
 2413TIP3   OH228729   4.993   0.307  11.594  0.2619 -0.0744 -0.2118
 2413TIP3    H128730   4.990   0.254  11.674  1.9558  0.8124  0.4617
 2413TIP3    H228731   5.082   0.297  11.562 -0.1455  0.3141 -1.5103
 2414TIP3   OH228732   1.143   2.087   2.820 -0.4867 -0.2532  0.4268
 2414TIP3    H128733   1.108   2.174   2.838 -0.7879  0.0808 -1.6979
 2414TIP3    H228734   1.079   2.027   2.860 -0.4591  0.4745  1.5858
 2415TIP3   OH228735   1.368   0.581  16.274 -0.1050  0.0081  0.0050
 2415TIP3    H128736   1.386   0.642  16.346  1.2517  0.5471 -0.7749
 2415TIP3    H228737   1.454   0.553  16.244 -0.7171 -2.3514  0.3724
 2416TIP3   OH228738   2.191   1.518  16.323  0.8722  0.0992 -0.3463
 2416TIP3    H128739   2.269   1.477  16.360  0.0830  1.1150  2.6544
 2416TIP3    H228740   2.222   1.604  16.292  1.1755  0.0314 -0.2370
 2417TIP3   OH228741   4.516   4.149  17.017 -0.0682  0.9629 -0.6945
 2417TIP3    H128742   4.583   4.151  17.085 -1.0547 -0.0899  0.3238
 2417TIP3    H228743   4.440   4.110  17.059 -1.3547  2.2012 -1.8231
 2418TIP3   OH228744   1.074   0.739  13.736 -0.9028 -0.0129 -0.0964
 2418TIP3    H128745   1.155   0.690  13.724 -0.4453  0.9758 -1.1273
 2418TIP3    H228746   1.085   0.784  13.820  0.0550  0.9335 -0.7220
 2419TIP3   OH228747   6.408   6.643   2.649  0.1046 -0.2051 -0.5286
 2419TIP3    H128748   6.320   6.670   2.623  0.2795  1.4663  0.5162
 2419TIP3    H228749   6.410   6.656   2.744  1.9557  1.2637 -0.7258
 2420TIP3   OH228750   0.855   4.249   6.044 -0.0293  0.2458 -0.2135
 2420TIP3    H128751   0.840   4.326   5.988 -0.0860  0.9412  0.7373
 2420TIP3    H228752   0.842   4.282   6.133 -2.0771 -1.3432  0.1105
 2421TIP3   OH228753   2.756   5.449  15.071  0.2460  0.3803 -0.3555
 2421TIP3    H128754   2.805   5.530  15.062  1.4246 -0.1580  0.9843
 2421TIP3    H228755   2.675   5.474  15.117  0.4293  0.8493 -0.2919
 2422TIP3   OH228756   5.414   2.436   5.902 -0.6305 -0.3180  0.1732
 2422TIP3    H128757   5.479   2.372   5.872  0.9077  0.4552  1.7524
 2422TIP3    H228758   5.370   2.464   5.822  2.8201  1.1243 -1.3304
 2423TIP3   OH228759   1.853   2.462  12.848  0.2811  0.4518  0.0841
 2423TIP3    H128760   1.883   2.373  12.831  0.2203 -0.0113  2.2771
 2423TIP3    H228761   1.757   2.454  12.853  0.3910  0.2692  2.2159
 2424TIP3   OH228762   6.005   4.694   1.726 -0.0358 -0.9187  0.4422
 2424TIP3    H128763   5.982   4.735   1.643 -1.8478 -0.0421  1.3519
 2424TIP3    H228764   5.973   4.604   1.718 -2.2713 -0.2215  0.9933
 2425TIP3   OH228765   2.467   0.337  13.864 -0.4806 -0.0523 -0.1514
 2425TIP3    H128766   2.493   0.409  13.806 -1.4492 -0.9826 -1.7676
 2425TIP3    H228767   2.542   0.277  13.863 -0.4101  0.0372 -0.2888
 2426TIP3   OH228768   4.974   1.475   0.514  0.7061 -0.7161  0.0012
 2426TIP3    H128769   4.943   1.448   0.600 -0.1471 -1.2410 -0.4603
 2426TIP3    H228770   4.962   1.397   0.459  1.0723 -0.3266 -0.6359
 2427TIP3   OH228771   6.314   1.822  15.419  0.0512 -0.0037  0.4501
 2427TIP3    H128772   6.225   1.801  15.448  0.8134 -2.0853  1.3911
 2427TIP3    H228773   6.310   1.816  15.324 -0.9764  0.5332  0.4576
 2428TIP3   OH228774   0.984   0.120  13.013 -0.3610 -0.1187 -0.4677
 2428TIP3    H128775   0.970   0.208  13.047  0.7800  0.1241 -0.6145
 2428TIP3    H228776   0.969   0.063  13.089  2.7612  0.4532  0.6403
 2429TIP3   OH228777   2.859   3.789  14.706 -0.2510  0.3619 -0.4550
 2429TIP3    H128778   2.763   3.785  14.712 -0.2416  0.4453 -0.2259
 2429TIP3    H228779   2.881   3.876  14.738 -0.2223  1.0490 -2.2867
 2430TIP3   OH228780   3.763   6.622  12.440  0.6518  0.7587 -0.1063
 2430TIP3    H128781   3.764   6.571  12.521  2.2450  0.5096 -0.2689
 2430TIP3    H228782   3.844   6.673  12.442  1.2433 -0.0353 -2.0293
 2431TIP3   OH228783   3.966   0.880  17.147 -0.9730  0.3100  0.1162
 2431TIP3    H128784   4.029   0.832  17.093  1.2038 -0.7378  3.4561
 2431TIP3    H228785   3.990   0.972  17.136 -1.4489  0.2320 -1.7474
 2432TIP3   OH228786   1.523   3.969   5.244 -0.0048 -0.8975  0.3685
 2432TIP3    H128787   1.585   4.042   5.255 -0.7264 -0.1669 -0.3216
 2432TIP3    H228788   1.437   4.011   5.246 -0.4686 -1.8594  0.9371
 2433TIP3   OH228789   3.308   3.140  12.377 -0.1557  0.4007  0.5057
 2433TIP3    H128790   3.303   3.224  12.423  1.6546  0.3326  0.8905
 2433TIP3    H228791   3.318   3.075  12.447 -0.0095  0.0175  0.1321
 2434TIP3   OH228792   1.151   6.240   3.450  0.2956 -0.1148  0.1095
 2434TIP3    H128793   1.131   6.178   3.380 -0.3835  0.6894 -0.4152
 2434TIP3    H228794   1.226   6.201   3.495  0.6099 -0.7405 -0.9285
 2435TIP3   OH228795   4.117   0.110  15.286 -0.2460  0.1806 -0.0646
 2435TIP3    H128796   4.177   0.076  15.353  0.1426  2.9456  1.1096
 2435TIP3    H228797   4.125   0.205  15.294 -2.4044  0.5862 -2.1008
 2436TIP3   OH228798   1.560   4.157   0.721  0.1879 -0.3646 -0.5901
 2436TIP3    H128799   1.587   4.073   0.685 -1.1141 -1.0122 -0.0783
 2436TIP3    H228800   1.639   4.212   0.715  1.3816 -1.9564  0.1409
 2437TIP3   OH228801   5.546   0.887   6.124  0.6922 -0.4609 -0.6869
 2437TIP3    H128802   5.467   0.941   6.131  1.7271  1.3389 -2.7329
 2437TIP3    H228803   5.532   0.818   6.189 -2.7535 -0.4194 -1.2644
 2438TIP3   OH228804   2.676   0.506  11.899  0.1325 -0.5369  0.2087
 2438TIP3    H128805   2.749   0.540  11.846 -0.8349 -0.0668 -0.8599
 2438TIP3    H228806   2.692   0.541  11.986  2.3066 -2.1502  0.4910
 2439TIP3   OH228807   5.800   5.732   4.009 -0.6590 -0.5919 -0.0843
 2439TIP3    H128808   5.869   5.679   4.048 -0.9278  0.6095  2.0879
 2439TIP3    H228809   5.844   5.811   3.978 -0.8728 -0.3797  0.1537
 2440TIP3   OH228810   2.602   6.076   4.160 -0.5307  0.0844  0.1636
 2440TIP3    H128811   2.574   6.156   4.204  0.7922 -0.6614  2.4268
 2440TIP3    H228812   2.660   6.107   4.089 -2.4379  1.2674 -0.9158
 2441TIP3   OH228813   5.095   6.436   3.692 -0.0426 -0.2308  0.1569
 2441TIP3    H128814   5.151   6.426   3.615  0.0690 -3.1855  0.5697
 2441TIP3    H228815   5.021   6.489   3.660  1.9254  2.0021 -0.8946
 2442TIP3   OH228816   3.465   5.341   0.987 -0.2159 -0.3468  0.7900
 2442TIP3    H128817   3.394   5.405   0.987  0.1435  0.0550  1.6348
 2442TIP3    H228818   3.482   5.323   0.894  0.9029  2.1296  0.4769
 2443TIP3   OH228819   5.862   4.793   1.468  0.1012 -0.1589 -0.0404
 2443TIP3    H128820   5.780   4.743   1.473  0.4113 -0.3982  2.9143
 2443TIP3    H228821   5.847   4.854   1.395 -2.7175 -0.2227  0.4124
 2444TIP3   OH228822   3.066   2.063   0.002 -0.2422 -0.0146  0.0616
 2444TIP3    H128823   3.013   2.023  -0.067  1.5913 -1.8690 -0.3223
 2444TIP3    H228824   3.004   2.082   0.072 -1.6466 -0.7479 -0.9537
 2445TIP3   OH228825   2.453   4.741  11.699  0.0589  0.4287  0.5809
 2445TIP3    H128826   2.528   4.801  11.693  1.5327 -1.3187  1.0073
 2445TIP3    H228827   2.458   4.689  11.619 -0.4123 -0.0226  0.8460
 2446TIP3   OH228828   5.410   4.468  16.440 -0.2349  0.0614  0.2201
 2446TIP3    H128829   5.390   4.559  16.420  1.6272  0.3759 -0.3114
 2446TIP3    H228830   5.340   4.418  16.398 -0.2283  1.1379 -1.0999
 2447TIP3   OH228831   3.190   6.555   0.295 -0.3517 -0.1123  0.2687
 2447TIP3    H128832   3.260   6.583   0.354  0.3905 -0.4012 -0.4640
 2447TIP3    H228833   3.128   6.508   0.352  0.7780 -1.1244  0.6848
 2448TIP3   OH228834   6.482   5.855  11.527 -0.4369 -0.6361 -0.3583
 2448TIP3    H128835   6.449   5.942  11.507  1.0428 -0.1232 -0.6689
 2448TIP3    H228836   6.553   5.842  11.463 -1.6573 -2.6839 -1.3396
 2449TIP3   OH228837   3.273   4.532   1.117 -0.0436 -0.4488  0.5372
 2449TIP3    H128838   3.215   4.562   1.047 -1.2140 -1.6863  0.9600
 2449TIP3    H228839   3.360   4.561   1.090 -0.1254 -2.8982 -2.5929
 2450TIP3   OH228840   0.673   6.048   6.287 -0.2254 -0.2444 -0.0672
 2450TIP3    H128841   0.672   5.991   6.364 -0.8127 -1.2716 -0.8164
 2450TIP3    H228842   0.582   6.076   6.278 -0.1859 -0.2487 -0.4730
 2451TIP3   OH228843   4.163   2.537  12.090  0.5594  0.4962  0.5430
 2451TIP3    H128844   4.092   2.541  12.154  1.1853  0.5575  1.2377
 2451TIP3    H228845   4.241   2.518  12.142  0.8845 -0.6059 -0.3460
 2452TIP3   OH228846   2.631   6.173   2.677 -0.6946  0.7161  0.5539
 2452TIP3    H128847   2.601   6.232   2.746 -0.1118  0.4382  1.0518
 2452TIP3    H228848   2.659   6.094   2.723  0.5042  0.8559  0.0851
 2453TIP3   OH228849   3.000   1.954   5.496 -0.8908 -0.1171  0.2000
 2453TIP3    H128850   3.019   1.864   5.469  2.1152  1.0842 -1.9524
 2453TIP3    H228851   2.924   1.978   5.443 -1.5796 -1.2950  0.6268
 2454TIP3   OH228852   4.739   6.270  12.457  0.3334 -0.0446  0.4706
 2454TIP3    H128853   4.738   6.240  12.366  2.6323 -0.2585  0.4766
 2454TIP3    H228854   4.709   6.361  12.453  1.0495  0.1512 -0.6086
 2455TIP3   OH228855   2.498   2.625   6.017  0.2543  0.8225  0.5166
 2455TIP3    H128856   2.583   2.581   6.016 -0.1581  0.0195 -2.0705
 2455TIP3    H228857   2.464   2.607   6.105  1.9164 -0.4516  0.9404
 2456TIP3   OH228858   4.337   3.380   4.355 -1.5107  0.5864 -0.1753
 2456TIP3    H128859   4.336   3.307   4.417 -0.9273  0.1492 -0.6670
 2456TIP3    H228860   4.253   3.374   4.310 -2.1596  1.2289  0.9294
 2457TIP3   OH228861   4.750   2.761   2.096 -0.2228  0.2418  0.1586
 2457TIP3    H128862   4.695   2.837   2.081 -0.4454  0.1147  0.3293
 2457TIP3    H228863   4.838   2.797   2.106 -0.1996  0.4001 -0.5897
 2458TIP3   OH228864   3.593   3.225  12.711  0.1491  0.2131  0.1392
 2458TIP3    H128865   3.538   3.147  12.716  0.1270  0.1715 -0.6262
 2458TIP3    H228866   3.675   3.195  12.673  0.2216  0.5233  0.0456
 2459TIP3   OH228867   4.689   5.786  13.359 -0.1980  0.3472 -0.2043
 2459TIP3    H128868   4.701   5.787  13.264 -0.6920 -1.1863 -0.2857
 2459TIP3    H228869   4.693   5.693  13.383 -2.8161  0.4905  0.9278
 2460TIP3   OH228870   5.668   4.362  11.410 -0.4991  0.2649 -0.4700
 2460TIP3    H128871   5.608   4.338  11.339 -1.4422  0.0222  0.4020
 2460TIP3    H228872   5.748   4.314  11.391 -1.4413 -1.4210 -0.2438
 2461TIP3   OH228873   3.638   0.754  15.760  0.0186 -0.5801  0.6374
 2461TIP3    H128874   3.673   0.815  15.695 -0.2671 -1.3584 -0.2595
 2461TIP3    H228875   3.594   0.687  15.708  1.5539 -2.3187  1.5424
 2462TIP3   OH228876   6.500   4.743  12.852 -0.8370 -0.0362  0.0373
 2462TIP3    H128877   6.496   4.706  12.940  1.1692 -0.0164  0.1610
 2462TIP3    H228878   6.512   4.837  12.866 -1.9862  0.1736 -0.2828
 2463TIP3   OH228879   6.364   5.556  15.215 -0.5522 -0.0832 -0.3512
 2463TIP3    H128880   6.417   5.554  15.295 -0.3794 -0.1102 -0.4678
 2463TIP3    H228881   6.341   5.648  15.203  0.3201  0.0658 -0.8673
 2464TIP3   OH228882   1.234   0.512   1.603 -0.2510  0.2572  0.7330
 2464TIP3    H128883   1.305   0.459   1.640 -0.3759  0.8933  1.8898
 2464TIP3    H228884   1.278   0.569   1.539  0.0205 -0.5555  0.1752
 2465TIP3   OH228885   3.406   3.515  13.115 -0.7212  0.1910  0.6360
 2465TIP3    H128886   3.355   3.488  13.192  0.9050 -0.7338  1.4367
 2465TIP3    H228887   3.452   3.435  13.089 -0.8036  0.6550 -0.9418
 2466TIP3   OH228888   2.873   0.547  16.435 -0.0441 -0.1177  0.0945
 2466TIP3    H128889   2.956   0.565  16.391  0.3576 -1.0037  0.4880
 2466TIP3    H228890   2.834   0.634  16.448  0.5385  0.2602 -0.6235
 2467TIP3   OH228891   5.578   3.648  17.154  1.0878 -0.5602 -0.9187
 2467TIP3    H128892   5.662   3.651  17.198 -0.2846  0.1555  1.7756
 2467TIP3    H228893   5.540   3.563  17.179 -0.2332  0.3756  0.3452
 2468TIP3   OH228894   2.873   5.385   2.557  0.1746 -0.0944 -0.4917
 2468TIP3    H128895   2.846   5.300   2.593  1.2808 -0.0561  0.5003
 2468TIP3    H228896   2.826   5.393   2.474 -0.6379 -1.2676 -0.1569
 2469TIP3   OH228897   5.323   1.102   2.784 -0.3912  0.2897  0.2629
 2469TIP3    H128898   5.329   1.101   2.689  1.8496  3.3376  0.2752
 2469TIP3    H228899   5.414   1.092   2.813 -0.7169  2.0630  1.9922
 2470TIP3   OH228900   3.483   5.991   1.667 -0.0225  0.2499  0.0224
 2470TIP3    H128901   3.547   6.061   1.672 -1.2735  1.2407  2.7042
 2470TIP3    H228902   3.493   5.942   1.749 -1.3037 -0.8191 -0.4281
 2471TIP3   OH228903   6.001   3.070  12.302 -0.2809  0.2997 -0.6338
 2471TIP3    H128904   6.092   3.045  12.320  0.4556  0.5000 -3.8234
 2471TIP3    H228905   5.974   3.013  12.230 -2.1814  1.2916 -0.7401
 2472TIP3   OH228906   2.790   5.846  15.643  0.3540 -0.2056 -0.0697
 2472TIP3    H128907   2.696   5.853  15.660  0.3297 -0.6943  0.0381
 2472TIP3    H228908   2.821   5.783  15.709  0.7356 -0.1356 -0.1777
 2473TIP3   OH228909   2.571   3.350  17.251 -0.3221 -0.3260 -0.3097
 2473TIP3    H128910   2.647   3.332  17.195  0.7288  0.5266  0.7955
 2473TIP3    H228911   2.585   3.296  17.329 -0.8972 -0.2218 -0.1312
 2474TIP3   OH228912   0.796   2.510  13.187  0.3929  0.1118  0.2379
 2474TIP3    H128913   0.790   2.420  13.154 -1.3758  0.3234 -0.0654
 2474TIP3    H228914   0.875   2.546  13.147 -0.9856 -0.0668 -2.7319
 2475TIP3   OH228915   1.528   4.840   2.842 -0.3342  0.5023  0.0160
 2475TIP3    H128916   1.471   4.844   2.918  0.8916 -0.9459  1.0323
 2475TIP3    H228917   1.486   4.778   2.783 -0.3776  0.2956  0.2671
 2476TIP3   OH228918   1.577   6.160  16.030 -0.1026  0.1486  0.0036
 2476TIP3    H128919   1.646   6.126  16.086 -1.0620 -2.3276 -0.2382
 2476TIP3    H228920   1.584   6.108  15.949 -2.9986 -1.0820  0.4653
 2477TIP3   OH228921   1.788   1.921  13.124  0.3734  0.3506 -0.1681
 2477TIP3    H128922   1.784   1.980  13.199 -0.7270  0.0806 -0.0115
 2477TIP3    H228923   1.790   1.979  13.048 -0.2601  0.6013  0.0047
 2478TIP3   OH228924   3.413   5.598   2.300 -0.0057  0.3853  0.0124
 2478TIP3    H128925   3.380   5.686   2.284 -1.1025 -0.1076 -0.4786
 2478TIP3    H228926   3.359   5.542   2.244  1.0072 -0.5425 -0.0458
 2479TIP3   OH228927   3.378   1.672   5.870  0.0237 -0.2112  0.0237
 2479TIP3    H128928   3.473   1.662   5.870  0.0255 -0.1982 -0.3702
 2479TIP3    H228929   3.350   1.639   5.956  0.7116  2.9129  1.5430
 2480TIP3   OH228930   0.499   0.911   1.687  0.2022 -0.2845 -0.5089
 2480TIP3    H128931   0.591   0.897   1.667  1.3662  0.5798  3.8030
 2480TIP3    H228932   0.482   1.002   1.664  0.9655  0.1388  0.6236
 2481TIP3   OH228933   1.232   3.859  12.046 -1.0586  0.1200 -0.0654
 2481TIP3    H128934   1.327   3.871  12.036 -0.9851 -0.9950 -0.8512
 2481TIP3    H228935   1.198   3.947  12.062  0.0745  0.5701 -0.0420
 2482TIP3   OH228936   2.015   0.688   2.113  0.0272  0.1803  0.1061
 2482TIP3    H128937   2.101   0.699   2.072  0.3810  0.0808  0.8006
 2482TIP3    H228938   2.013   0.756   2.181  0.0562 -0.5963  0.8977
 2483TIP3   OH228939   1.036   2.737   5.131  0.2987  0.3675 -0.4497
 2483TIP3    H128940   1.075   2.655   5.158 -1.6327 -0.6302 -0.5794
 2483TIP3    H228941   0.942   2.727   5.150  0.1774  2.9798  0.6722
 2484TIP3   OH228942   0.572   0.803   2.385  0.3788 -0.0246  0.4725
 2484TIP3    H128943   0.487   0.844   2.399  1.1112  1.5907  0.3753
 2484TIP3    H228944   0.631   0.850   2.445  0.9603 -1.9555  1.4417
 2485TIP3   OH228945   2.656   2.123   3.633 -0.7096 -0.1002  0.0960
 2485TIP3    H128946   2.662   2.206   3.679  2.6853  0.3403 -0.9763
 2485TIP3    H228947   2.600   2.142   3.557 -0.5565  1.0318  0.2554
 2486TIP3   OH228948   4.414   0.997  14.405 -0.4926 -0.4973  0.1388
 2486TIP3    H128949   4.508   0.986  14.424 -0.1199  2.5109  0.3854
 2486TIP3    H228950   4.370   0.937  14.465  1.1625  0.7159  2.7001
 2487TIP3   OH228951   4.543   4.726  10.760 -0.7589  0.3286  0.3878
 2487TIP3    H128952   4.485   4.680  10.700  0.0076 -1.5053  1.0141
 2487TIP3    H228953   4.497   4.726  10.844 -0.9927  1.1955  0.2662
 2488TIP3   OH228954   6.243   2.467   5.566  0.0496  0.3047  0.3182
 2488TIP3    H128955   6.259   2.561   5.577 -0.6765  0.7304 -2.0281
 2488TIP3    H228956   6.170   2.463   5.505 -1.5960 -1.7763  2.3632
 2489TIP3   OH228957   2.917   3.974   4.384 -0.2341 -0.6950  0.2465
 2489TIP3    H128958   2.950   3.977   4.474  3.5192  0.8731 -1.1081
 2489TIP3    H228959   2.929   3.884   4.356  1.9813 -0.3823  0.1408
 2490TIP3   OH228960   5.206   0.522   5.310  0.5019 -0.2550 -0.2532
 2490TIP3    H128961   5.221   0.492   5.220 -1.2227  1.5553 -1.2052
 2490TIP3    H228962   5.258   0.464   5.365  0.5760 -2.2136 -2.3432
 2491TIP3   OH228963   2.564   4.440   2.934  0.4818  0.3521 -0.1545
 2491TIP3    H128964   2.577   4.474   2.845  0.7264  1.0281  0.1344
 2491TIP3    H228965   2.514   4.508   2.978  2.0311  0.9101  0.7856
 2492TIP3   OH228966   3.797   2.099  14.629  0.7220  0.1757 -0.3936
 2492TIP3    H128967   3.887   2.080  14.658  0.7684  0.0222 -0.6417
 2492TIP3    H228968   3.808   2.145  14.546  0.4960 -2.3244 -1.8569
 2493TIP3   OH228969   5.247   1.041  10.558  0.8489  0.7925  0.3471
 2493TIP3    H128970   5.196   0.961  10.570  0.8427  0.8245  0.5370
 2493TIP3    H228971   5.182   1.107  10.534  0.6921  1.0155  1.3677
 2494TIP3   OH228972   5.386   6.743   5.021 -0.3710 -0.1338 -0.0153
 2494TIP3    H128973   5.453   6.812   5.019 -0.1577 -0.3763 -3.2170
 2494TIP3    H228974   5.435   6.664   5.045  0.3497 -0.1545 -1.5220
 2495TIP3   OH228975   6.654   4.035   2.846  1.1371  0.0973  0.5915
 2495TIP3    H128976   6.678   3.947   2.818  0.3379 -0.4164  1.5140
 2495TIP3    H228977   6.696   4.045   2.932  0.2717  0.1857  1.0086
 2496TIP3   OH228978   4.184   2.563  13.137 -0.1807  0.1780  0.0270
 2496TIP3    H128979   4.173   2.595  13.226  1.3161  0.3168  0.1866
 2496TIP3    H228980   4.137   2.480  13.135 -1.0157  0.6338  0.6669
 2497TIP3   OH228981   5.520   1.205   4.301 -0.0960  0.0131  0.0924
 2497TIP3    H128982   5.487   1.178   4.215  0.5947  1.8962 -0.7768
 2497TIP3    H228983   5.613   1.223   4.288  0.5925 -2.0400  1.8012
 2498TIP3   OH228984   5.469   5.948   6.007 -0.2410  0.3212 -0.0891
 2498TIP3    H128985   5.488   6.021   6.065  0.0384 -0.4257  0.7707
 2498TIP3    H228986   5.377   5.927   6.024 -0.9013  1.7366 -1.7765
 2499TIP3   OH228987   5.719   1.638  14.411  0.3331  0.2486 -0.0990
 2499TIP3    H128988   5.639   1.691  14.412  0.0143 -0.2438  1.2554
 2499TIP3    H228989   5.784   1.692  14.455  0.3741  0.0646  0.0645
 2500TIP3   OH228990   2.762   6.357   1.475 -0.0732 -0.4830  0.2535
 2500TIP3    H128991   2.683   6.334   1.522  0.7696 -0.3694  1.7500
 2500TIP3    H228992   2.793   6.437   1.517  1.7822 -1.4892  0.8719
 2501TIP3   OH228993   6.350   1.638   5.593 -0.0324 -0.0698  0.2870
 2501TIP3    H128994   6.403   1.685   5.657 -1.1457  1.3421  0.1943
 2501TIP3    H228995   6.400   1.643   5.512  1.1717 -1.4833  0.9092
 2502TIP3   OH228996   5.940   6.474  12.339  0.0246  0.1788  0.5875
 2502TIP3    H128997   5.847   6.476  12.360  0.1550 -0.2657  1.2259
 2502TIP3    H228998   5.982   6.447  12.421  0.5054 -2.0250 -0.3422
 2503TIP3   OH228999   6.231   2.218  16.453  0.5113  0.0712 -0.2008
 2503TIP3    H129000   6.201   2.173  16.374  0.4852  0.5254 -0.4548
 2503TIP3    H229001   6.316   2.256  16.428  0.9454 -0.5656  0.2746
 2504TIP3   OH229002   1.950   2.428   5.027 -0.5135 -0.8909 -0.2516
 2504TIP3    H129003   1.858   2.455   5.020 -0.8981 -2.1872 -0.2506
 2504TIP3    H229004   1.962   2.364   4.958  0.8688  0.5083 -1.3362
 2505TIP3   OH229005   4.017   1.968  14.698  0.1332  0.2171  0.1058
 2505TIP3    H129006   4.072   1.895  14.670 -0.5361 -0.7171  1.1522
 2505TIP3    H229007   4.070   2.046  14.683  0.2436 -0.3382 -2.5363
 2506TIP3   OH229008   3.775   0.895  14.366  0.3674 -0.3422 -0.1582
 2506TIP3    H129009   3.840   0.946  14.319 -0.1744 -0.7691 -1.3873
 2506TIP3    H229010   3.704   0.883  14.304 -0.0511 -1.5212  0.5279
 2507TIP3   OH229011   1.376   1.866  12.620 -0.1086 -0.1595  0.2032
 2507TIP3    H129012   1.393   1.784  12.666  2.6980 -1.9122 -3.6892
 2507TIP3    H229013   1.315   1.842  12.550 -0.8333  1.5019  0.2305
 2508TIP3   OH229014   5.338   1.689   1.133  0.1365  0.3653 -0.3551
 2508TIP3    H129015   5.410   1.661   1.189  0.3749 -0.7475 -1.2015
 2508TIP3    H229016   5.286   1.747   1.188  1.7771  1.3275  0.2009
 2509TIP3   OH229017   5.583   1.593   2.376 -0.2109 -0.2676 -0.2858
 2509TIP3    H129018   5.552   1.611   2.465  0.1038 -0.5947 -0.1077
 2509TIP3    H229019   5.616   1.678   2.344  1.3745 -0.5198  0.5909
 2510TIP3   OH229020   4.990   5.902   3.779 -0.2679 -0.1790  0.1518
 2510TIP3    H129021   5.026   5.849   3.849 -0.4705 -1.9092 -1.0223
 2510TIP3    H229022   5.026   5.990   3.794  0.0867 -0.6371  2.0880
 2511TIP3   OH229023   0.275   3.689   1.545  0.4553  0.6178  0.3541
 2511TIP3    H129024   0.330   3.654   1.614  1.4560  2.1929  0.3954
 2511TIP3    H229025   0.247   3.775   1.577 -0.4233  0.6597 -0.4882
 2512TIP3   OH229026   4.387   2.606  10.175  0.1617 -0.9668 -0.2926
 2512TIP3    H129027   4.345   2.615  10.089 -1.8758 -0.4491  0.7129
 2512TIP3    H229028   4.364   2.518  10.205 -1.7662 -0.0414  1.0364
 2513TIP3   OH229029   1.956   1.445   4.762  0.0676 -0.2770  0.8061
 2513TIP3    H129030   2.023   1.466   4.697 -0.9018  1.2015  0.2576
 2513TIP3    H229031   1.972   1.353   4.784  1.3269 -0.3707 -0.4337
 2514TIP3   OH229032   0.465   2.517   1.979  0.2437 -0.1027  0.3074
 2514TIP3    H129033   0.458   2.482   2.067  0.8173 -1.2745 -0.1059
 2514TIP3    H229034   0.375   2.519   1.946 -0.2398  2.3065  1.6459
 2515TIP3   OH229035   2.783   2.761  13.667 -0.7730  0.0662 -0.0149
 2515TIP3    H129036   2.702   2.753  13.716 -1.2176 -0.3828 -0.8205
 2515TIP3    H229037   2.851   2.728  13.728 -1.1757  0.4801  0.6635
 2516TIP3   OH229038   0.750   5.353   5.999 -0.2262 -0.1481 -0.3279
 2516TIP3    H129039   0.696   5.274   5.993  0.7801 -0.8286 -0.4452
 2516TIP3    H229040   0.785   5.351   6.088  0.1258 -0.0474 -0.4641
 2517TIP3   OH229041   0.749   4.004  14.167  0.2212 -0.3997  0.3039
 2517TIP3    H129042   0.720   3.968  14.083 -0.5888  0.4487  0.2056
 2517TIP3    H229043   0.802   4.080  14.144  3.5320 -2.5684  0.4486
 2518TIP3   OH229044   6.409   2.515  12.923  0.1300 -0.5709  0.1105
 2518TIP3    H129045   6.450   2.548  13.002  2.3316  1.3217 -1.7496
 2518TIP3    H229046   6.346   2.583  12.899  1.9195  0.5326 -1.6039
 2519TIP3   OH229047   3.071   1.305   5.375 -0.1172  0.1836 -0.3663
 2519TIP3    H129048   3.058   1.344   5.289 -2.3715 -0.2849 -0.2636
 2519TIP3    H229049   3.037   1.216   5.368 -2.2959  0.7989  1.5361
 2520TIP3   OH229050   6.285   6.488  16.354 -0.1367  0.2753  0.2509
 2520TIP3    H129051   6.282   6.544  16.276 -1.6628 -0.0846  0.0306
 2520TIP3    H229052   6.298   6.400  16.320 -0.4103  0.1669  0.4233
 2521TIP3   OH229053   3.674   2.737  13.927  0.5864  0.2989 -0.1772
 2521TIP3    H129054   3.636   2.659  13.887  1.8541  0.5136 -1.8538
 2521TIP3    H229055   3.617   2.755  14.002 -0.3699 -1.5734 -0.4129
 2522TIP3   OH229056   2.943   6.568   1.887 -0.6675  0.4146  0.0676
 2522TIP3    H129057   2.923   6.657   1.859 -1.0476  0.3600  0.1594
 2522TIP3    H229058   2.866   6.517   1.859 -0.3091  0.0616 -0.2711
 2523TIP3   OH229059   3.262   6.769   0.799  0.0637 -0.3725 -0.4709
 2523TIP3    H129060   3.187   6.824   0.821  0.0412  0.1575 -1.8747
 2523TIP3    H229061   3.259   6.760   0.704  1.4641 -0.8165 -0.4835
 2524TIP3   OH229062   5.505   3.923  15.928 -0.0406 -0.0459 -0.1562
 2524TIP3    H129063   5.579   3.961  15.976 -1.3778  0.3976  1.6160
 2524TIP3    H229064   5.434   3.986  15.941 -0.6227 -0.2434 -2.2261
 2525TIP3   OH229065   0.843   6.122   2.990  0.1532  0.4426 -0.8929
 2525TIP3    H129066   0.791   6.101   3.068 -1.4314  1.1803 -1.7215
 2525TIP3    H229067   0.912   6.181   3.023  0.2323 -0.2161  0.1532
 2526TIP3   OH229068   2.112   5.872   5.750 -0.6348 -0.9328  0.8390
 2526TIP3    H129069   2.158   5.829   5.677 -0.8641  0.4223 -0.1275
 2526TIP3    H229070   2.114   5.965   5.728 -2.7425 -0.7178  1.4015
 2527TIP3   OH229071   1.932   1.975   6.253  0.1114  0.3581 -0.0016
 2527TIP3    H129072   1.936   1.882   6.277 -2.1047  0.2220 -0.0499
 2527TIP3    H229073   1.993   1.983   6.179  1.8859 -0.6057  1.3118
 2528TIP3   OH229074   2.537   1.627   2.107  0.4381 -0.1334 -0.2234
 2528TIP3    H129075   2.517   1.543   2.147 -2.8050  0.4020 -0.5856
 2528TIP3    H229076   2.528   1.611   2.013  0.1359  0.5368 -0.3104
 2529TIP3   OH229077   2.543   6.660   1.157  0.2674 -0.0005  0.3703
 2529TIP3    H129078   2.456   6.635   1.188  0.3429 -0.5766  0.1226
 2529TIP3    H229079   2.596   6.580   1.168  0.4168 -0.0633 -0.7671
 2530TIP3   OH229080   5.337   4.253  13.444  0.6341 -0.1513  0.9454
 2530TIP3    H129081   5.343   4.331  13.499 -2.3240 -1.3068  3.0564
 2530TIP3    H229082   5.276   4.278  13.374 -0.9687 -0.7777  2.0888
 2531TIP3   OH229083   1.337   4.100   6.741 -0.1623 -0.3459  0.0962
 2531TIP3    H129084   1.276   4.150   6.686  0.4632  0.2014 -0.1060
 2531TIP3    H229085   1.290   4.090   6.824 -0.5268  0.0875 -0.0519
 2532TIP3   OH229086   4.147   0.505  11.763  0.1972  0.1656  0.4570
 2532TIP3    H129087   4.238   0.477  11.753 -0.3394 -1.4531 -0.1206
 2532TIP3    H229088   4.152   0.600  11.776  2.1154 -0.1809  2.7519
 2533TIP3   OH229089   3.099   0.516  11.502  0.0476  0.4211 -0.4633
 2533TIP3    H129090   3.010   0.524  11.537  0.0035  0.0850 -0.4990
 2533TIP3    H229091   3.135   0.439  11.544 -0.0526 -0.0650 -1.2500
 2534TIP3   OH229092   3.672   1.657   4.425 -0.4175 -0.7502 -0.6971
 2534TIP3    H129093   3.664   1.614   4.510 -1.0173 -0.5050 -0.6262
 2534TIP3    H229094   3.745   1.718   4.435 -0.2114 -1.0286 -0.4903
 2535TIP3   OH229095   5.767   6.540   1.522 -0.1300  0.4253 -0.7421
 2535TIP3    H129096   5.849   6.585   1.541  0.2114 -0.5308  0.0670
 2535TIP3    H229097   5.759   6.543   1.427  1.3802 -0.3933 -0.9115
 2536TIP3   OH229098   2.559   3.169   2.863 -0.3634 -0.0502 -0.7682
 2536TIP3    H129099   2.600   3.248   2.828 -0.5252  0.3137 -0.1475
 2536TIP3    H229100   2.475   3.163   2.817 -1.4891  1.5637  0.9946
 2537TIP3   OH229101   2.016   3.763  15.775  0.6426  0.1377 -0.0680
 2537TIP3    H129102   1.967   3.833  15.820  0.2090  0.0608 -0.4132
 2537TIP3    H229103   2.104   3.799  15.764  0.5618  0.4286  0.2206
 2538TIP3   OH229104   5.399   4.546  15.461 -0.1790  0.2561  0.1740
 2538TIP3    H129105   5.488   4.535  15.495 -0.1822  0.1618  0.1524
 2538TIP3    H229106   5.406   4.520  15.369 -0.3378 -0.2335  0.3011
 2539TIP3   OH229107   4.967   2.911   6.093 -0.7649 -0.2207  0.4866
 2539TIP3    H129108   4.945   2.947   6.007 -2.1776 -0.1832  0.8386
 2539TIP3    H229109   4.883   2.910   6.140  0.1583  0.6070  2.1716
 2540TIP3   OH229110   3.641   0.976  11.339  0.4190 -0.6296 -0.3983
 2540TIP3    H129111   3.579   0.998  11.269 -0.5098 -0.0275  0.5931
 2540TIP3    H229112   3.614   1.030  11.413  2.0399 -0.4823  0.1118
 2541TIP3   OH229113   4.523   1.089  12.861 -0.0481  0.0872 -0.2479
 2541TIP3    H129114   4.554   1.043  12.939 -1.7052 -0.9097 -0.1559
 2541TIP3    H229115   4.472   1.162  12.896 -0.7313 -0.3185 -0.3898
 2542TIP3   OH229116   5.707   3.194  14.422  0.2441  0.1155  0.3421
 2542TIP3    H129117   5.697   3.103  14.396  0.6408  0.2529 -0.3009
 2542TIP3    H229118   5.801   3.204  14.438 -0.0416 -0.1133  2.3892
 2543TIP3   OH229119   0.848   0.412   2.615  0.4058  0.2899 -0.4829
 2543TIP3    H129120   0.822   0.440   2.703 -0.3519 -2.1550  0.0909
 2543TIP3    H229121   0.941   0.390   2.623  0.1330 -0.7381 -0.0763
 2544TIP3   OH229122   0.417   3.631  11.773  0.1176 -0.3257  0.2943
 2544TIP3    H129123   0.363   3.559  11.803 -1.2600  0.3284 -0.5578
 2544TIP3    H229124   0.355   3.700  11.750  1.4696  2.0685  3.4230
 2545TIP3   OH229125   4.591   5.890  14.612  1.2467 -0.2213 -0.6027
 2545TIP3    H129126   4.642   5.917  14.689 -0.6594 -0.7602  0.8681
 2545TIP3    H229127   4.657   5.866  14.547  2.8882  0.5912  0.7297
 2546TIP3   OH229128   4.956   3.126  14.232 -0.0234 -0.0061  0.4748
 2546TIP3    H129129   4.877   3.140  14.180  1.4014  3.2182 -0.9624
 2546TIP3    H229130   4.925   3.129  14.323 -1.7818 -0.2858 -0.0984
 2547TIP3   OH229131   0.973   4.025  15.116  0.3022 -0.3775 -0.0510
 2547TIP3    H129132   0.978   4.087  15.188 -0.9140  0.0016 -0.2800
 2547TIP3    H229133   1.064   4.003  15.097  0.7219  0.9332  0.3767
 2548TIP3   OH229134   0.109   6.700  15.621 -0.3187  0.0805  0.3291
 2548TIP3    H129135   0.017   6.677  15.609 -0.2833 -0.1153  0.4327
 2548TIP3    H229136   0.157   6.634  15.572 -0.2950  1.3737 -1.4580
 2549TIP3   OH229137   6.798   5.407  14.263  0.3594  0.1445  0.4474
 2549TIP3    H129138   6.705   5.430  14.253  0.4411  0.7538  1.0015
 2549TIP3    H229139   6.809   5.398  14.358  1.0615  0.9455  0.4496
 2550TIP3   OH229140   6.793   3.069  16.969 -0.2731  0.0220 -0.0522
 2550TIP3    H129141   6.811   3.133  16.901  0.5399  0.2175  0.3507
 2550TIP3    H229142   6.766   3.121  17.044  0.6947 -0.0956  0.3745
 2551TIP3   OH229143   5.203   5.989   1.790 -0.5065  0.3633  0.1455
 2551TIP3    H129144   5.192   6.016   1.698  1.0249  1.6313  0.3256
 2551TIP3    H229145   5.134   6.036   1.837  1.5783  3.3680  0.3177
 2552TIP3   OH229146   4.239   2.906  15.671 -0.2390  0.1211 -0.0361
 2552TIP3    H129147   4.292   2.858  15.607  0.7249 -0.0263  0.8660
 2552TIP3    H229148   4.260   2.998  15.655  0.2265  0.0665  0.2722
 2553TIP3   OH229149   1.803   0.860   3.259  0.2327 -0.3647  0.0210
 2553TIP3    H129150   1.713   0.885   3.240  0.5363  1.1313  0.4774
 2553TIP3    H229151   1.822   0.789   3.198 -1.1686 -0.5109 -0.2491
 2554TIP3   OH229152   2.932   5.866   1.722 -0.1575 -0.4378 -0.0550
 2554TIP3    H129153   2.918   5.908   1.637 -0.2975 -1.0889 -0.3576
 2554TIP3    H229154   2.886   5.782   1.715 -0.6131 -0.2654  0.8463
 2555TIP3   OH229155   0.684   6.162   1.772  0.3190 -0.6720 -0.2922
 2555TIP3    H129156   0.635   6.204   1.843 -1.1563 -1.0721 -1.0477
 2555TIP3    H229157   0.623   6.098   1.735  1.4876 -1.3309 -1.1395
 2556TIP3   OH229158   6.232   5.209   5.848  0.0478 -0.4457 -0.2210
 2556TIP3    H129159   6.273   5.176   5.928 -1.0802 -0.6795  0.2718
 2556TIP3    H229160   6.151   5.158   5.840 -0.4195  0.3905 -0.8739
 2557TIP3   OH229161   0.243   3.629   2.626  0.4189  0.3661  0.0925
 2557TIP3    H129162   0.173   3.676   2.580  1.3852  1.8312  0.1037
 2557TIP3    H229163   0.292   3.585   2.556 -0.0372 -0.0307  0.0186
 2558TIP3   OH229164   2.080   5.486  10.586  0.2447  0.1900 -0.1419
 2558TIP3    H129165   2.072   5.530  10.502  0.0873  0.8565  0.2146
 2558TIP3    H229166   2.004   5.427  10.590  0.8269 -0.6380 -0.9153
 2559TIP3   OH229167   6.498   4.247   0.611  1.1596 -0.2232 -0.2790
 2559TIP3    H129168   6.441   4.184   0.567  0.5897  1.2055 -1.6067
 2559TIP3    H229169   6.548   4.288   0.540  0.2784  2.0715  0.3967
 2560TIP3   OH229170   1.072   1.749   0.501  0.0279 -0.5523 -0.3638
 2560TIP3    H129171   1.000   1.792   0.455  1.1332  0.8952 -0.7905
 2560TIP3    H229172   1.043   1.659   0.514 -2.3583  0.2933  0.5131
 2561TIP3   OH229173   0.635   2.144   2.144 -0.1279 -0.0979 -0.0475
 2561TIP3    H129174   0.564   2.098   2.188 -0.7318  0.6732 -0.2040
 2561TIP3    H229175   0.636   2.231   2.184  0.0261  0.2453 -0.7897
 2562TIP3   OH229176   0.134   3.928   1.620 -0.3677 -0.2317  0.3944
 2562TIP3    H129177   0.178   3.914   1.703 -0.8953  1.4797  0.9816
 2562TIP3    H229178   0.042   3.906   1.636 -0.8228  1.8394  0.7915
 2563TIP3   OH229179   6.512   1.190   5.546  0.2177 -0.2310 -0.3538
 2563TIP3    H129180   6.558   1.148   5.619 -0.8294 -0.1755  0.3439
 2563TIP3    H229181   6.490   1.118   5.487  1.4320 -0.2259 -0.8358
 2564TIP3   OH229182   0.401   3.044  14.843 -0.4419  0.6037  0.2802
 2564TIP3    H129183   0.403   2.948  14.851 -0.5227  0.5971  0.2268
 2564TIP3    H229184   0.317   3.062  14.800  0.8617  0.5166 -2.3419
 2565TIP3   OH229185   3.969   4.055  12.105 -0.1900 -0.2190 -0.2858
 2565TIP3    H129186   3.909   4.044  12.178  0.5387 -2.7300 -0.0217
 2565TIP3    H229187   3.943   4.138  12.065 -0.5977  1.2033  2.8024
 2566TIP3   OH229188   1.393   3.217   1.755  0.5092  0.4731  0.4869
 2566TIP3    H129189   1.322   3.207   1.691  0.6541 -1.6579  0.6105
 2566TIP3    H229190   1.352   3.254   1.832  0.1463  2.1656 -0.4862
 2567TIP3   OH229191   3.502   4.135   3.956 -0.3339 -0.0192 -0.2899
 2567TIP3    H129192   3.597   4.129   3.969 -0.4410 -0.7471  0.1899
 2567TIP3    H229193   3.485   4.229   3.945  0.1471  0.3498  1.8758
 2568TIP3   OH229194   4.961   6.227  16.737 -0.7251  0.2753  0.1799
 2568TIP3    H129195   4.866   6.228  16.749 -0.6063  2.5923  1.3814
 2568TIP3    H229196   4.995   6.188  16.818 -0.6182  0.5734  0.2805
 2569TIP3   OH229197   4.885   4.842  15.528 -0.0465 -0.3360  0.3665
 2569TIP3    H129198   4.894   4.748  15.542 -0.9703 -0.4844 -0.0326
 2569TIP3    H229199   4.921   4.882  15.607  2.5439 -0.9519 -0.4484
 2570TIP3   OH229200   6.335   0.983   0.766 -0.1205 -0.2032 -0.9832
 2570TIP3    H129201   6.428   0.979   0.786  0.3363  1.9970 -2.5311
 2570TIP3    H229202   6.309   1.073   0.789 -1.7135 -0.5978 -1.1512
 2571TIP3   OH229203   4.464   4.274  11.274  0.3347  0.6869  0.7016
 2571TIP3    H129204   4.547   4.321  11.271  1.0419 -0.5659  0.6328
 2571TIP3    H229205   4.441   4.260  11.182  0.7959 -0.2746  0.7286
 2572TIP3   OH229206   3.926   0.871  12.993 -0.1337  0.3814  0.0695
 2572TIP3    H129207   3.992   0.868  12.923  0.8803  1.4426  0.9736
 2572TIP3    H229208   3.903   0.963  13.001 -2.1457 -0.0256 -0.5959
 2573TIP3   OH229209   5.757   1.158  12.912  0.6365 -0.2941 -0.4590
 2573TIP3    H129210   5.842   1.116  12.922  0.2657 -0.9277  0.1144
 2573TIP3    H229211   5.739   1.153  12.818  1.3656  0.1094 -0.6201
 2574TIP3   OH229212   1.862   1.151   3.809 -0.0837 -0.0266  0.2723
 2574TIP3    H129213   1.774   1.180   3.834  0.0929  0.8979 -0.1513
 2574TIP3    H229214   1.902   1.125   3.892 -0.0824  1.4463  0.7562
 2575TIP3   OH229215   2.008   0.974  13.235  0.2346 -0.2224  0.3390
 2575TIP3    H129216   2.017   1.022  13.153 -0.2785 -0.7780 -0.0490
 2575TIP3    H229217   2.098   0.953  13.260  0.3379 -0.9944 -0.6568
 2576TIP3   OH229218   4.086   2.315   5.176  0.8365  0.2332  0.2650
 2576TIP3    H129219   4.095   2.393   5.231  1.1182  1.7903 -1.9152
 2576TIP3    H229220   4.091   2.348   5.086  0.7448 -2.2809 -0.7152
 2577TIP3   OH229221   6.673   6.672  14.377  0.0598 -0.0660 -0.1745
 2577TIP3    H129222   6.655   6.595  14.431 -0.3388 -0.9661 -1.5719
 2577TIP3    H229223   6.586   6.708  14.356  0.2450  0.8555  0.5753
 2578TIP3   OH229224   6.661   1.084  12.705 -0.3363 -0.1144 -0.1006
 2578TIP3    H129225   6.719   1.038  12.644 -1.0283  1.3748 -1.9378
 2578TIP3    H229226   6.628   1.015  12.763  2.8603 -1.0671  0.6952
 2579TIP3   OH229227   3.463   4.769  16.407  0.0451 -1.1028  0.8441
 2579TIP3    H129228   3.467   4.736  16.317 -1.1124  0.1824  0.3201
 2579TIP3    H229229   3.552   4.801  16.424 -0.1695  0.2006 -0.4342
 2580TIP3   OH229230   2.060   4.048   3.302 -0.3449  0.4084 -1.4058
 2580TIP3    H129231   2.133   4.051   3.240 -0.8781 -0.6367 -2.1107
 2580TIP3    H229232   1.992   3.999   3.256 -0.8732 -0.0880 -0.1171
 2581TIP3   OH229233   5.521   1.060  17.134  0.0780  0.0782 -0.2495
 2581TIP3    H129234   5.572   1.138  17.116 -0.5996  0.4133 -0.7558
 2581TIP3    H229235   5.542   1.000  17.062  1.4953 -0.6595  0.7705
 2582TIP3   OH229236   0.836   1.732  16.340 -0.1296  0.5540 -0.1287
 2582TIP3    H129237   0.834   1.743  16.435  0.8113  0.3470 -0.0777
 2582TIP3    H229238   0.918   1.775  16.313  0.4851 -0.9185 -0.6358
 2583TIP3   OH229239   5.280   6.756  16.406  0.0079 -0.6322  0.6964
 2583TIP3    H129240   5.336   6.804  16.345 -0.7053 -1.0508 -0.3049
 2583TIP3    H229241   5.229   6.825  16.449  2.1612 -0.1453  2.5464
 2584TIP3   OH229242   1.303   2.756  11.174  0.2946  0.6464 -0.2589
 2584TIP3    H129243   1.312   2.737  11.267 -0.4234  1.2438 -0.0601
 2584TIP3    H229244   1.357   2.690  11.130 -0.2960 -0.3705  0.5202
 2585TIP3   OH229245   3.515   5.879   2.519 -0.2028 -0.0508 -1.1329
 2585TIP3    H129246   3.536   5.797   2.474  0.7047  1.0416 -2.7549
 2585TIP3    H229247   3.596   5.930   2.516  0.2638 -0.3737  2.8403
 2586TIP3   OH229248   5.997   2.433   5.176  0.1660  0.3608  0.2330
 2586TIP3    H129249   6.008   2.415   5.083  0.4323 -2.8931  0.8528
 2586TIP3    H229250   6.079   2.405   5.217 -1.0389 -1.0090  1.7973
 2587TIP3   OH229251   6.330   1.744  10.858  0.1387  0.1382  0.3757
 2587TIP3    H129252   6.271   1.803  10.904 -1.1227  0.0236 -1.0610
 2587TIP3    H229253   6.414   1.789  10.858 -0.8587  2.0425 -0.8946
 2588TIP3   OH229254   4.787   3.502   3.849 -0.6076  0.3035  0.1465
 2588TIP3    H129255   4.755   3.592   3.838 -0.1422  0.6970  1.8591
 2588TIP3    H229256   4.873   3.502   3.808 -1.4525  0.0857 -1.6615
 2589TIP3   OH229257   4.306   1.737  16.829 -0.0773  0.4351 -0.1514
 2589TIP3    H129258   4.337   1.646  16.835 -0.0552  0.5495  1.6802
 2589TIP3    H229259   4.211   1.729  16.818  0.0624  0.1835 -1.2923
 2590TIP3   OH229260   2.127   3.641   0.777  0.1383  0.5480 -0.8756
 2590TIP3    H129261   2.155   3.605   0.861  0.1863  0.7643 -0.7970
 2590TIP3    H229262   2.145   3.735   0.784 -1.1757  0.7926 -0.5831
 2591TIP3   OH229263   1.015   4.745   3.208  0.1255  0.3939  0.2265
 2591TIP3    H129264   0.930   4.747   3.164 -0.5552 -2.6916  1.2685
 2591TIP3    H229265   1.070   4.690   3.152  0.3720 -0.4746  1.2980
 2592TIP3   OH229266   5.638   3.562   2.644 -0.5093 -0.0275  0.2105
 2592TIP3    H129267   5.694   3.638   2.627 -0.8892  0.3529  0.6220
 2592TIP3    H229268   5.674   3.523   2.724 -0.2147 -0.3783 -0.0918
 2593TIP3   OH229269   2.449   6.723  12.983 -0.2573 -0.2074  0.2539
 2593TIP3    H129270   2.430   6.693  13.072 -1.5895  3.0054  1.1083
 2593TIP3    H229271   2.376   6.689  12.931 -1.0264  0.3499  0.9492
 2594TIP3   OH229272   0.680   1.823  15.772  0.4474  0.1636 -0.4088
 2594TIP3    H129273   0.586   1.827  15.789  0.2690 -2.4771 -0.5762
 2594TIP3    H229274   0.721   1.850  15.854 -0.4740 -1.4386  0.6165
 2595TIP3   OH229275   6.304   5.633  14.654 -0.2561  0.2645 -0.4647
 2595TIP3    H129276   6.332   5.717  14.617 -0.3352  0.4716 -0.0545
 2595TIP3    H229277   6.268   5.655  14.739 -0.9277 -0.1050 -0.6508
 2596TIP3   OH229278   5.980   4.125   5.634 -0.3933 -0.2202 -0.4174
 2596TIP3    H129279   5.940   4.118   5.548  0.7524  1.8077 -1.1411
 2596TIP3    H229280   6.073   4.136   5.617 -0.3795  2.1485  0.9940
 2597TIP3   OH229281   4.783   2.621   4.943 -0.4422  0.3334 -0.3530
 2597TIP3    H129282   4.778   2.679   5.019  2.6823  2.0063 -1.3587
 2597TIP3    H229283   4.704   2.641   4.893 -0.9940  1.3930  0.9053
 2598TIP3   OH229284   5.523   3.250  14.639 -0.1766  0.2463 -0.2019
 2598TIP3    H129285   5.567   3.283  14.717  0.7626 -1.2031 -0.1187
 2598TIP3    H229286   5.592   3.240  14.574 -0.6181 -0.5784 -0.5548
 2599TIP3   OH229287   5.950   5.057  13.374  0.7228 -0.4752  0.4930
 2599TIP3    H129288   5.864   5.015  13.375  1.1507 -1.4267 -1.1464
 2599TIP3    H229289   6.013   4.985  13.366  1.6364  0.2622  0.9141
 2600TIP3   OH229290   5.770   4.472  11.728  0.3327 -0.2045 -0.0483
 2600TIP3    H129291   5.802   4.500  11.814 -2.0683 -0.1294  0.8596
 2600TIP3    H229292   5.763   4.553  11.678 -2.6390  0.4236  1.2309
 2601TIP3   OH229293   3.854   2.921  15.834  0.7200  0.3086  0.4247
 2601TIP3    H129294   3.843   2.828  15.816 -1.4320  0.5865  0.1738
 2601TIP3    H229295   3.933   2.926  15.887  0.2137 -1.7715  1.4186
 2602TIP3   OH229296   4.143   1.797  16.507  0.2911  0.3215  0.4276
 2602TIP3    H129297   4.126   1.703  16.505  1.7647  0.0352  0.4326
 2602TIP3    H229298   4.057   1.838  16.497 -0.3156 -1.0247  0.0610
 2603TIP3   OH229299   4.060   2.711  15.651 -0.3328 -0.2981 -0.5315
 2603TIP3    H129300   4.121   2.784  15.666 -1.8302  0.8493  0.0595
 2603TIP3    H229301   3.997   2.745  15.588 -0.8990 -1.1783 -0.4455
 2604TIP3   OH229302   0.090   4.646  10.571 -0.1810  0.1251  0.2381
 2604TIP3    H129303   0.019   4.671  10.512 -0.4406 -1.9081 -0.3487
 2604TIP3    H229304   0.138   4.578  10.524  1.3423  0.5001  1.1957
 2605TIP3   OH229305   6.660   1.222   2.214 -0.3747  0.0991  0.0424
 2605TIP3    H129306   6.644   1.183   2.127  0.5281 -1.2693  0.4595
 2605TIP3    H229307   6.666   1.146   2.272  0.4217  0.9420  1.0641
 2606TIP3   OH229308   1.782   2.987   3.608  0.3412  0.4987 -0.2671
 2606TIP3    H129309   1.717   3.056   3.603  0.0852  0.3393  0.7526
 2606TIP3    H229310   1.797   2.974   3.702  1.1469 -0.1102 -0.4684
 2607TIP3   OH229311   0.291   2.841  16.608 -0.4360 -0.1775  0.0094
 2607TIP3    H129312   0.331   2.756  16.588  0.6551 -0.2446  2.3106
 2607TIP3    H229313   0.218   2.848  16.547 -1.4873 -3.4506  0.8013
 2608TIP3   OH229314   1.428   4.182   3.294 -0.1995 -0.0192  0.3297
 2608TIP3    H129315   1.494   4.250   3.285 -2.0340  1.6551 -0.7921
 2608TIP3    H229316   1.444   4.123   3.220  1.7802 -1.1696  1.6558
 2609TIP3   OH229317   3.861   1.684   1.657 -0.1985  0.7539 -0.6724
 2609TIP3    H129318   3.877   1.667   1.564  0.4741  0.3189 -0.4828
 2609TIP3    H229319   3.894   1.772   1.671 -0.6371  0.9622 -0.9228
 2610TIP3   OH229320   1.638   5.626  12.069 -0.0494 -0.1856  0.3098
 2610TIP3    H129321   1.569   5.589  12.124  0.6185 -0.2270  1.1280
 2610TIP3    H229322   1.593   5.653  11.989 -1.4828  2.1498  1.8316
 2611TIP3   OH229323   0.192   1.431   6.080  0.5940  0.1802  0.1030
 2611TIP3    H129324   0.267   1.420   6.139 -1.2376  0.0552  2.4788
 2611TIP3    H229325   0.185   1.347   6.034 -0.8206 -1.4791  3.2011
 2612TIP3   OH229326   0.233   0.753  15.706 -1.0518  0.4127  0.2008
 2612TIP3    H129327   0.217   0.660  15.686 -1.5768  0.4850  0.2672
 2612TIP3    H229328   0.327   0.759  15.720 -0.6218  0.3745 -2.3959
 2613TIP3   OH229329   1.323   4.883  13.691  0.0909  0.3516 -0.4718
 2613TIP3    H129330   1.258   4.856  13.627 -0.4736 -0.7900  0.5498
 2613TIP3    H229331   1.289   4.850  13.775  1.0654  1.3483  0.3362
 2614TIP3   OH229332   1.902   5.906   5.489 -0.0305 -0.3859  0.1964
 2614TIP3    H129333   1.982   5.860   5.462  0.2124  0.6008 -0.8351
 2614TIP3    H229334   1.885   5.967   5.417 -1.4539 -0.2540  0.6295
 2615TIP3   OH229335   3.728   5.244   6.226 -0.1194 -0.0892  0.0578
 2615TIP3    H129336   3.700   5.248   6.318  1.4811  0.4882  0.5302
 2615TIP3    H229337   3.821   5.225   6.231 -0.2316 -1.0616 -1.4856
 2616TIP3   OH229338   2.414   2.661  15.281  0.0303  0.0794  0.0497
 2616TIP3    H129339   2.319   2.665  15.294  0.2382  1.9769  1.2294
 2616TIP3    H229340   2.451   2.695  15.363  1.7296 -0.7785 -0.3410
 2617TIP3   OH229341   4.584   1.029   0.171 -0.1706  0.3974 -0.2582
 2617TIP3    H129342   4.649   0.980   0.222 -0.0043 -1.1683 -1.9227
 2617TIP3    H229343   4.530   0.961   0.130 -2.1752  1.6707  0.2122
 2618TIP3   OH229344   3.630   4.994   2.857 -0.9870  0.3875 -0.4755
 2618TIP3    H129345   3.596   4.946   2.932  0.1376  0.0048 -0.2058
 2618TIP3    H229346   3.628   5.085   2.884 -4.8408  0.7148 -1.6470
 2619TIP3   OH229347   6.687   2.943  14.727 -0.5431  0.2137  0.2831
 2619TIP3    H129348   6.652   2.979  14.645  1.8166 -0.3813 -1.0118
 2619TIP3    H229349   6.720   2.857  14.704  1.0143  0.4197  1.6619
 2620TIP3   OH229350   2.074   4.008  15.323 -0.1188  0.1278 -0.0167
 2620TIP3    H129351   2.116   4.028  15.406 -1.0474 -2.0136  0.9835
 2620TIP3    H229352   2.091   4.086  15.269  0.7659  1.4011  2.0318
 2621TIP3   OH229353   2.663   6.216   3.495  0.0562 -0.5666  0.4216
 2621TIP3    H129354   2.706   6.142   3.453 -0.8210 -0.2046 -1.1286
 2621TIP3    H229355   2.693   6.212   3.586  2.4430 -0.9765 -0.3469
 2622TIP3   OH229356   6.493   1.115  15.465 -0.3362  0.3540  0.3820
 2622TIP3    H129357   6.547   1.194  15.462 -1.8669  1.3602 -1.8737
 2622TIP3    H229358   6.441   1.118  15.385 -1.5189 -2.1855  0.9947
 2623TIP3   OH229359   3.871   6.329  11.822  0.8328  0.8875 -0.6762
 2623TIP3    H129360   3.783   6.300  11.799  0.8731  1.4205 -1.5181
 2623TIP3    H229361   3.905   6.260  11.879  1.1356 -1.0382 -3.1031
 2624TIP3   OH229362   2.613   3.699  12.844  0.2734  0.6584 -0.2487
 2624TIP3    H129363   2.592   3.703  12.751 -1.1918 -0.2493  0.0197
 2624TIP3    H229364   2.646   3.786  12.866 -2.3169  1.8608 -0.9361
 2625TIP3   OH229365   5.284   1.345   2.070 -0.1693 -0.3050 -0.3948
 2625TIP3    H129366   5.195   1.382   2.068  0.0950  0.3169 -0.6969
 2625TIP3    H229367   5.270   1.251   2.066 -0.8479 -0.2404  0.2291
 2626TIP3   OH229368   3.408   0.910  13.152  0.0660  0.2154  0.0577
 2626TIP3    H129369   3.468   0.848  13.111 -0.2878 -0.6662  0.8566
 2626TIP3    H229370   3.323   0.866  13.150 -0.0176  0.3028  1.4208
 2627TIP3   OH229371   0.391   5.063  13.792 -0.4071  0.2574  0.1399
 2627TIP3    H129372   0.450   5.080  13.866 -2.2850 -0.8873  1.9876
 2627TIP3    H229373   0.313   5.115  13.811 -0.2567  1.2996 -1.9649
 2628TIP3   OH229374   6.593   5.777   1.757 -0.7048  0.1528  0.7876
 2628TIP3    H129375   6.657   5.807   1.693 -1.2019  0.8650  0.6166
 2628TIP3    H229376   6.600   5.682   1.756 -0.7321  0.1631 -0.3400
 2629TIP3   OH229377   3.330   6.672  10.858  0.4282 -0.4596  0.6240
 2629TIP3    H129378   3.340   6.589  10.812  0.6162  2.0491 -4.0944
 2629TIP3    H229379   3.237   6.677  10.881 -0.0690 -0.8476 -1.2928
 2630TIP3   OH229380   6.013   4.691  16.321 -0.2110  0.1674  0.2345
 2630TIP3    H129381   6.069   4.765  16.343  0.5692 -0.4061  0.2043
 2630TIP3    H229382   6.012   4.689  16.225  2.1080 -1.5655  0.1873
 2631TIP3   OH229383   2.975   1.998   1.521  0.2569  0.1575  0.1766
 2631TIP3    H129384   2.894   1.962   1.558 -0.0938  0.8478  0.0884
 2631TIP3    H229385   3.036   1.999   1.595  0.7966 -2.1599 -0.2008
 2632TIP3   OH229386   3.676   0.581   5.391  0.3840 -0.3656 -0.1572
 2632TIP3    H129387   3.624   0.522   5.336  0.0624  0.9747 -1.2996
 2632TIP3    H229388   3.726   0.522   5.448 -0.5377 -1.7219 -0.7242
 2633TIP3   OH229389   4.930   6.196   3.537  0.2552 -0.8885  0.1448
 2633TIP3    H129390   4.970   6.235   3.459 -0.7776  2.3735  1.1526
 2633TIP3    H229391   4.852   6.152   3.504  0.2378 -0.1913 -0.7565
 2634TIP3   OH229392   2.149   3.802   4.290 -0.2710 -0.1743 -0.1148
 2634TIP3    H129393   2.180   3.717   4.260  0.2987  0.3388 -1.0295
 2634TIP3    H229394   2.203   3.821   4.367  0.6997  0.0618 -0.8458
 2635TIP3   OH229395   4.530   0.575  13.808  0.4660 -0.0684 -0.1498
 2635TIP3    H129396   4.477   0.528  13.744 -2.7521  0.7502  1.7758
 2635TIP3    H229397   4.530   0.666  13.779  1.7859 -0.2404 -0.7309
 2636TIP3   OH229398   1.819   5.153   1.532 -0.2323 -0.0606 -0.3610
 2636TIP3    H129399   1.799   5.094   1.459  0.6341 -0.3968 -0.3402
 2636TIP3    H229400   1.795   5.104   1.610 -1.1967  0.3139 -0.4257
 2637TIP3   OH229401   6.629   6.737   3.477  0.4079  0.3304 -0.8907
 2637TIP3    H129402   6.582   6.687   3.411  0.9314 -2.1634  0.5544
 2637TIP3    H229403   6.583   6.821   3.481 -3.4723 -1.7189 -0.0794
 2638TIP3   OH229404   1.772   3.869  14.651  0.0866  0.7130 -0.0255
 2638TIP3    H129405   1.782   3.961  14.674  0.0849  1.0172 -1.2440
 2638TIP3    H229406   1.849   3.826  14.691  0.0471  1.2229  0.5988
 2639TIP3   OH229407   2.956   3.230  16.298  0.1142 -0.5602 -0.0518
 2639TIP3    H129408   3.024   3.163  16.296  0.1659 -0.5225  0.2921
 2639TIP3    H229409   2.885   3.194  16.244 -0.5459 -1.6661  1.4830
 2640TIP3   OH229410   0.368   4.256   0.867 -0.4829  0.1428  0.0941
 2640TIP3    H129411   0.273   4.241   0.868 -0.6134  0.8768 -0.6759
 2640TIP3    H229412   0.397   4.233   0.955 -1.1825 -1.3153 -0.0343
 2641TIP3   OH229413   5.049   0.196  14.625 -0.3641  0.3449 -0.0247
 2641TIP3    H129414   5.034   0.245  14.706 -2.0618 -1.4425  0.7718
 2641TIP3    H229415   5.044   0.104  14.651  1.5670 -0.2840 -1.7134
 2642TIP3   OH229416   3.348   2.189   0.408  0.0637 -0.2097  0.1419
 2642TIP3    H129417   3.363   2.097   0.384  1.0021  0.0519 -0.2938
 2642TIP3    H229418   3.401   2.239   0.346 -0.5038  0.6374  0.3291
 2643TIP3   OH229419   1.217   2.208   0.268 -0.1795 -0.2107 -0.3354
 2643TIP3    H129420   1.182   2.254   0.192 -1.3664  0.0637  0.3621
 2643TIP3    H229421   1.206   2.116   0.247 -1.9559 -0.1155  0.1641
 2644TIP3   OH229422   1.516   3.170  13.834 -0.4667 -0.4955 -0.2345
 2644TIP3    H129423   1.422   3.182  13.832 -0.5218 -0.8571  0.0612
 2644TIP3    H229424   1.531   3.108  13.906  0.0228 -0.1761 -0.0538
 2645TIP3   OH229425   0.141   2.660  12.768  0.6658  1.1516  0.0046
 2645TIP3    H129426   0.227   2.660  12.726  0.6206  1.8035 -0.0897
 2645TIP3    H229427   0.117   2.568  12.773 -1.1813  1.2231 -5.2197
 2646TIP3   OH229428   3.004   1.617  14.476  0.2790 -0.5122 -0.1032
 2646TIP3    H129429   3.045   1.541  14.517 -1.4736 -2.1764 -1.3059
 2646TIP3    H229430   3.044   1.621  14.389 -0.4352 -0.7672 -0.4516
 2647TIP3   OH229431   0.179   3.342  13.891  0.2467  0.2891  0.5450
 2647TIP3    H129432   0.112   3.396  13.849  0.6087 -0.8895 -1.6291
 2647TIP3    H229433   0.202   3.389  13.970 -3.2949  0.6298  1.4448
 2648TIP3   OH229434   5.069   5.641   2.242  0.3196  0.0306 -0.1091
 2648TIP3    H129435   5.060   5.556   2.199  1.6045 -0.8329  1.2791
 2648TIP3    H229436   4.982   5.661   2.276  0.5410 -1.8500  1.5994
 2649TIP3   OH229437   3.334   1.121   1.416  0.2283 -0.2166  0.6195
 2649TIP3    H129438   3.289   1.172   1.483 -0.9613 -1.0898  0.4961
 2649TIP3    H229439   3.388   1.185   1.369 -0.8883  0.8414  0.7712
 2650TIP3   OH229440   3.621   5.881   5.040 -0.1405 -0.1914 -0.2863
 2650TIP3    H129441   3.571   5.958   5.013 -0.3805 -0.5298 -0.8114
 2650TIP3    H229442   3.606   5.876   5.135 -2.5539 -1.3034 -0.6902
 2651TIP3   OH229443   3.381   0.727  12.029  0.6944  0.1622  0.1047
 2651TIP3    H129444   3.423   0.650  12.068 -0.9345 -0.7073  0.2164
 2651TIP3    H229445   3.385   0.794  12.097 -0.2318 -0.6735  1.0072
 2652TIP3   OH229446   0.828   4.662   0.204 -0.1651 -0.9787 -0.2697
 2652TIP3    H129447   0.844   4.679   0.111  1.0138 -0.8316 -0.0521
 2652TIP3    H229448   0.771   4.734   0.232 -1.0632 -1.3863 -1.0269
 2653TIP3   OH229449   4.572   6.575   1.846 -0.2373 -0.0791 -0.3096
 2653TIP3    H129450   4.630   6.499   1.855 -1.4804 -0.9314  0.9094
 2653TIP3    H229451   4.490   6.538   1.812 -1.1368  0.5584  1.1176
 2654TIP3   OH229452   3.084   0.673   1.263 -0.4420  0.6099  0.1489
 2654TIP3    H129453   3.124   0.751   1.301  1.1050 -0.2699  0.3529
 2654TIP3    H229454   3.088   0.688   1.168  0.0564  0.6776  0.1785
 2655TIP3   OH229455   1.021   3.458  12.727  0.2484  1.0890  0.0194
 2655TIP3    H129456   1.112   3.447  12.753  0.6380  1.0504 -1.3526
 2655TIP3    H229457   0.973   3.392  12.777  0.8262  1.7763  1.4960
 2656TIP3   OH229458   0.407   4.703  15.498 -0.0843 -0.3315 -0.6051
 2656TIP3    H129459   0.387   4.730  15.587  0.1622  0.9962 -0.9339
 2656TIP3    H229460   0.327   4.721  15.449  0.0571 -0.2661 -0.8142
 2657TIP3   OH229461   2.157   6.580   4.005 -0.0118  0.8423 -0.3208
 2657TIP3    H129462   2.225   6.638   4.041  2.6889 -1.0635 -2.1057
 2657TIP3    H229463   2.106   6.553   4.081  1.7667  1.6880  1.2238
 2658TIP3   OH229464   5.008   4.162  11.469  0.3378  0.3712 -0.3133
 2658TIP3    H129465   5.082   4.159  11.529 -0.8154  0.3885  1.1311
 2658TIP3    H229466   4.938   4.116  11.515 -0.4200 -0.0135 -1.8415
 2659TIP3   OH229467   3.247   1.784   5.623  0.2939  0.2859 -0.0656
 2659TIP3    H129468   3.273   1.704   5.576 -1.1385 -0.4068  0.2833
 2659TIP3    H229469   3.316   1.797   5.688 -0.2302 -1.5789  0.9194
 2660TIP3   OH229470   4.434   5.893   4.403  0.7082  0.3639 -0.2948
 2660TIP3    H129471   4.493   5.830   4.445 -0.4365  0.0939  0.9364
 2660TIP3    H229472   4.378   5.840   4.347  2.9380  0.8333 -3.0822
 2661TIP3   OH229473   2.396   1.324   0.840 -0.2118  0.3023  0.0410
 2661TIP3    H129474   2.356   1.360   0.762  0.0460 -0.8092 -0.6138
 2661TIP3    H229475   2.373   1.231   0.839  0.8674  0.0109  0.5901
 2662TIP3   OH229476   5.692   4.500   3.152  0.1256 -0.2859 -0.4318
 2662TIP3    H129477   5.740   4.566   3.202 -0.0024 -0.8473  0.4512
 2662TIP3    H229478   5.685   4.426   3.212  2.2642 -1.9625 -2.1850
 2663TIP3   OH229479   5.889   2.515  11.199  0.1833 -0.5006  0.8213
 2663TIP3    H129480   5.840   2.590  11.165  0.6571  0.1462  1.5310
 2663TIP3    H229481   5.974   2.521  11.156  0.1451 -0.7440  0.7182
 2664TIP3   OH229482   6.525   1.822   3.120  0.5466 -0.0800 -0.0009
 2664TIP3    H129483   6.578   1.898   3.095 -0.6300  0.3676 -1.1982
 2664TIP3    H229484   6.508   1.834   3.214  0.7087  0.9349 -0.0967
 2665TIP3   OH229485   0.427   1.087  14.812 -1.4113 -0.0008 -0.6170
 2665TIP3    H129486   0.406   1.100  14.719 -2.4991  0.4102 -0.3241
 2665TIP3    H229487   0.376   1.154  14.858 -0.1308  0.4225  0.2105
 2666TIP3   OH229488   3.091   4.302  15.455  0.0105 -0.3542  0.3376
 2666TIP3    H129489   3.144   4.224  15.439 -0.2478 -0.3757 -0.4009
 2666TIP3    H229490   3.149   4.361  15.503  1.5498  0.6525 -2.6287
 2667TIP3   OH229491   2.534   2.957   6.043 -0.0974  0.4527  0.2335
 2667TIP3    H129492   2.600   2.887   6.049  3.1527  3.2501 -1.0303
 2667TIP3    H229493   2.517   2.965   5.949 -0.7879  1.0652  0.4086
 2668TIP3   OH229494   2.183   6.809  17.178  0.4832  0.0542 -0.4803
 2668TIP3    H129495   2.277   6.808  17.163  0.3067  1.9623 -2.0424
 2668TIP3    H229496   2.173   6.836  17.269  1.4436 -0.0085 -0.3551
 2669TIP3   OH229497   6.274   5.319  14.150  0.0860 -0.3333 -0.2782
 2669TIP3    H129498   6.222   5.287  14.224 -1.5432  0.9039 -0.8315
 2669TIP3    H229499   6.231   5.402  14.125  1.3658 -0.0949 -1.7917
 2670TIP3   OH229500   2.459   4.761   0.513  0.1931 -0.8340 -0.0314
 2670TIP3    H129501   2.506   4.825   0.565  1.3429 -1.6290 -0.0755
 2670TIP3    H229502   2.377   4.805   0.489  1.7646  1.2893 -1.6574
 2671TIP3   OH229503   6.182   5.802   4.134 -0.8122 -0.2302  0.1342
 2671TIP3    H129504   6.255   5.863   4.143 -0.5940 -0.4837  0.1220
 2671TIP3    H229505   6.158   5.779   4.224 -0.4049 -0.6916  0.1326
 2672TIP3   OH229506   4.807   0.108  11.531 -1.0863 -0.1400  0.6655
 2672TIP3    H129507   4.878   0.173  11.531 -1.5153  0.3576 -0.7675
 2672TIP3    H229508   4.809   0.070  11.618  0.3853  0.4937  0.9245
 2673TIP3   OH229509   6.163   6.145   2.769  0.0300  0.0072  0.0764
 2673TIP3    H129510   6.193   6.165   2.858 -1.4758  1.3785  0.3058
 2673TIP3    H229511   6.111   6.065   2.778 -0.0318  0.0855  0.4100
 2674TIP3   OH229512   4.751   5.050   5.033 -0.7452  0.2287 -0.6371
 2674TIP3    H129513   4.780   5.017   5.117 -0.6418 -1.0627 -1.1698
 2674TIP3    H229514   4.722   4.973   4.985  1.2743  0.6490 -2.6182
 2675TIP3   OH229515   4.836   4.463   4.996  0.2310 -0.4367 -0.3067
 2675TIP3    H129516   4.743   4.445   5.011 -0.1156  1.3240 -0.1831
 2675TIP3    H229517   4.882   4.399   5.050 -0.9066 -1.5236 -0.6107
 2676TIP3   OH229518   5.600   6.009   3.576  0.5500 -0.3735 -0.4542
 2676TIP3    H129519   5.609   5.979   3.666  0.9074 -0.3395 -0.4767
 2676TIP3    H229520   5.512   5.981   3.550 -0.3319  1.3640  0.5438
 2677TIP3   OH229521   4.752   3.779   0.860 -0.0876  0.2157  0.1598
 2677TIP3    H129522   4.705   3.772   0.776  1.3169  0.6234 -0.6797
 2677TIP3    H229523   4.765   3.689   0.888  0.7473  0.0157 -0.8259
 2678TIP3   OH229524   2.140   5.200   3.281  0.1749 -0.1524  0.2613
 2678TIP3    H129525   2.106   5.131   3.224 -0.2678  0.6872 -0.5015
 2678TIP3    H229526   2.100   5.182   3.366 -0.1490 -0.6911  0.0001
 2679TIP3   OH229527   6.105   5.605  16.852 -0.3417  0.1917 -0.3533
 2679TIP3    H129528   6.064   5.609  16.766  1.5004 -0.3363 -1.2693
 2679TIP3    H229529   6.170   5.675  16.852  1.8541 -1.7655 -0.5759
 2680TIP3   OH229530   2.063   4.744  11.295  0.8586  0.8127 -0.0338
 2680TIP3    H129531   2.088   4.657  11.325 -0.2277  0.1461 -0.9839
 2680TIP3    H229532   2.107   4.804  11.354  1.7610 -0.3853  0.5277
 2681TIP3   OH229533   6.703   3.099  15.202  0.0477 -0.3670  0.3729
 2681TIP3    H129534   6.697   3.087  15.297 -0.5904 -2.5617  0.0748
 2681TIP3    H229535   6.635   3.163  15.182  1.6355  1.7859  1.6526
 2682TIP3   OH229536   3.042   5.981   3.982 -0.1141  0.1629 -0.0498
 2682TIP3    H129537   3.025   5.910   3.920 -2.7879 -1.4137  2.3439
 2682TIP3    H229538   3.037   5.939   4.068 -2.4111  3.3029  1.4703
 2683TIP3   OH229539   0.713   5.424  16.017  0.0153 -0.1382 -0.1364
 2683TIP3    H129540   0.701   5.359  16.085 -0.6738  1.6512  1.4940
 2683TIP3    H229541   0.807   5.442  16.017 -0.2696  1.5826  2.0316
 2684TIP3   OH229542   4.012   1.420   3.542  0.3867  0.1630 -0.0736
 2684TIP3    H129543   4.022   1.368   3.622  3.6544 -0.3747 -0.7581
 2684TIP3    H229544   4.022   1.511   3.572 -0.4058  0.0891  0.4218
 2685TIP3   OH229545   5.955   5.529   1.469  0.3979  0.2807  0.6020
 2685TIP3    H129546   5.957   5.491   1.382  1.1537  0.9471  0.3235
 2685TIP3    H229547   6.047   5.542   1.493  0.1770  1.0586  1.0697
 2686TIP3   OH229548   2.326   3.192  12.354 -0.0209 -0.0606  0.3433
 2686TIP3    H129549   2.269   3.265  12.327 -1.0476 -0.9009  0.1960
 2686TIP3    H229550   2.412   3.215  12.320 -0.2964  1.1644  0.4331
 2687TIP3   OH229551   0.161   1.710  16.158  0.2056  0.1046 -0.3484
 2687TIP3    H129552   0.172   1.685  16.250  2.0920 -0.3307 -0.6578
 2687TIP3    H229553   0.142   1.804  16.161  0.2885  0.0999  0.4899
 2688TIP3   OH229554   6.716   3.686   0.464  0.0010 -0.1183 -0.5232
 2688TIP3    H129555   6.702   3.615   0.526 -1.6848  0.2891 -0.4292
 2688TIP3    H229556   6.811   3.686   0.449  0.3980 -0.3149  1.9011
 2689TIP3   OH229557   1.512   3.272   0.446  0.1118  0.3036  0.4285
 2689TIP3    H129558   1.545   3.194   0.401  2.1074  0.2021  2.0108
 2689TIP3    H229559   1.474   3.326   0.376 -1.7467 -2.2780 -0.6265
 2690TIP3   OH229560   6.120   2.230   4.149  0.2981 -0.4889 -0.3019
 2690TIP3    H129561   6.161   2.314   4.165 -0.7464 -0.3573  1.8702
 2690TIP3    H229562   6.171   2.191   4.078  1.6935  1.3229 -0.3169
 2691TIP3   OH229563   1.857   3.552   4.014  0.6280 -0.3690 -0.4364
 2691TIP3    H129564   1.948   3.569   4.037  0.3580 -1.1427  1.2330
 2691TIP3    H229565   1.862   3.514   3.926  2.1045 -2.4986  0.5221
 2692TIP3   OH229566   4.159   1.150  11.670  0.3283 -0.0500 -0.2414
 2692TIP3    H129567   4.250   1.176  11.677  0.3415 -0.1266 -0.1169
 2692TIP3    H229568   4.130   1.137  11.761  0.0432  0.4907 -0.2530
 2693TIP3   OH229569   3.445   1.301  14.465 -0.0507  0.0559  0.3323
 2693TIP3    H129570   3.532   1.327  14.493  0.0040  0.1019  0.1249
 2693TIP3    H229571   3.417   1.235  14.529 -0.4286  1.0501  1.1972
 2694TIP3   OH229572   3.310   5.819   3.917  0.4598 -0.4078 -0.3957
 2694TIP3    H129573   3.250   5.746   3.904  0.1103 -0.0117 -0.9836
 2694TIP3    H229574   3.384   5.780   3.965 -0.4233 -0.8101  0.6615
 2695TIP3   OH229575   5.528   4.515  15.184  0.5077  0.1611 -0.1205
 2695TIP3    H129576   5.550   4.604  15.210  2.4655 -0.9328  2.1134
 2695TIP3    H229577   5.580   4.499  15.106 -0.7371  1.3457 -1.2240
 2696TIP3   OH229578   6.664   3.024   4.594 -0.3943  0.2509  0.3027
 2696TIP3    H129579   6.610   3.093   4.632  0.7344  1.3773 -0.0872
 2696TIP3    H229580   6.745   3.026   4.646 -0.7565 -1.4778  0.9484
 2697TIP3   OH229581   5.361   0.577   1.674  0.4533  0.1334  0.2753
 2697TIP3    H129582   5.287   0.608   1.622  0.7036  1.0117  0.4476
 2697TIP3    H229583   5.361   0.482   1.661 -0.6597  0.1354  0.2151
 2698TIP3   OH229584   4.942   4.916   0.285 -0.0409 -0.4093  0.8553
 2698TIP3    H129585   4.878   4.982   0.311 -0.1421  0.1798 -0.8058
 2698TIP3    H229586   4.891   4.850   0.239  0.7189  0.9526 -2.0988
 2699TIP3   OH229587   1.793   4.141  16.851 -0.3151  0.0720  0.4507
 2699TIP3    H129588   1.739   4.065  16.874 -0.6879 -0.0802 -0.8995
 2699TIP3    H229589   1.731   4.204  16.815 -0.2683  1.6826  3.0414
 2700TIP3   OH229590   6.015   3.835   0.015 -0.0718 -0.6359  0.0264
 2700TIP3    H129591   6.090   3.795  -0.029  1.2776  1.1722  0.6227
 2700TIP3    H229592   5.983   3.901  -0.046  1.2436  1.2511  1.3119
 2701TIP3   OH229593   3.513   4.474  11.468 -0.5293 -0.8823 -0.2239
 2701TIP3    H129594   3.456   4.531  11.521  1.4859  0.1585  0.8770
 2701TIP3    H229595   3.515   4.516  11.382 -0.9713 -0.6186 -0.1087
 2702TIP3   OH229596   5.310   1.369   5.493  0.5038 -0.4410 -0.9004
 2702TIP3    H129597   5.252   1.425   5.544  0.5449  1.0733 -2.4915
 2702TIP3    H229598   5.301   1.283   5.534 -1.6996  0.0942 -0.1569
 2703TIP3   OH229599   0.131   1.675  12.194  0.3715 -0.3233 -0.0777
 2703TIP3    H129600   0.082   1.606  12.149  1.2418 -0.8289 -0.2689
 2703TIP3    H229601   0.118   1.753  12.141 -0.3477 -0.4175 -0.0408
 2704TIP3   OH229602   1.033   6.007  14.426 -0.1442 -0.1382 -0.9476
 2704TIP3    H129603   1.020   5.921  14.466 -0.0750 -0.6941 -2.0652
 2704TIP3    H229604   0.955   6.020  14.371 -0.4155  0.7630 -0.3535
 2705TIP3   OH229605   1.691   2.709  11.451  0.2336  0.3650  0.1854
 2705TIP3    H129606   1.688   2.632  11.508 -2.4883  0.0110 -0.3553
 2705TIP3    H229607   1.670   2.676  11.364 -2.0911  1.8536  0.1345
 2706TIP3   OH229608   1.141   4.649  12.903  0.5762  0.1413 -0.0721
 2706TIP3    H129609   1.101   4.710  12.966  0.9419 -0.5723  0.8697
 2706TIP3    H229610   1.120   4.562  12.938  1.9494 -0.2538 -0.1977
 2707TIP3   OH229611   4.608   6.738   5.439 -0.6643 -0.8417  0.1447
 2707TIP3    H129612   4.551   6.738   5.516 -0.7701 -0.2048  0.0759
 2707TIP3    H229613   4.558   6.691   5.372 -0.8795 -0.7654  0.2506
 2708TIP3   OH229614   2.761   1.226   4.995 -0.3384 -0.0734 -0.0077
 2708TIP3    H129615   2.846   1.223   5.040 -0.4390 -0.9283  0.1417
 2708TIP3    H229616   2.777   1.181   4.912 -1.3250 -2.7354  1.2024
 2709TIP3   OH229617   3.973   2.688  12.916 -0.1617  0.3474 -0.0895
 2709TIP3    H129618   3.933   2.775  12.921 -0.4338  0.2533 -0.7010
 2709TIP3    H229619   4.063   2.702  12.947 -0.1383  0.8890 -0.3995
 2710TIP3   OH229620   6.782   2.726  15.769 -0.2908 -0.2653 -0.1220
 2710TIP3    H129621   6.726   2.695  15.841  0.3870 -0.2142  0.4281
 2710TIP3    H229622   6.853   2.774  15.812  0.1369 -0.2563 -0.8250
 2711TIP3   OH229623   5.317   3.009  10.964 -0.1977  0.6259 -0.0004
 2711TIP3    H129624   5.348   3.088  10.921  0.5496  0.9911  1.2023
 2711TIP3    H229625   5.392   2.949  10.963  0.3025  1.1850  2.1082
 2712TIP3   OH229626   3.393   2.598  13.328  0.2515  0.2867 -0.0480
 2712TIP3    H129627   3.389   2.666  13.261  1.8948 -2.0241 -2.6414
 2712TIP3    H229628   3.307   2.599  13.369 -0.3138  2.7605 -1.1881
 2713TIP3   OH229629   2.176   0.137  10.999  0.0014 -0.3295 -0.0433
 2713TIP3    H129630   2.090   0.111  10.966 -0.0579 -1.6681  1.1400
 2713TIP3    H229631   2.238   0.079  10.954  0.4816  1.6648 -2.0866
 2714TIP3   OH229632   1.020   0.288  16.074 -0.5312  0.7044  0.1163
 2714TIP3    H129633   1.086   0.263  16.009 -0.2027  0.3116  0.5882
 2714TIP3    H229634   1.071   0.330  16.144 -0.7986  0.5273  0.4191
 2715TIP3   OH229635   5.588   5.893  15.852  0.1141  0.6397  0.5964
 2715TIP3    H129636   5.509   5.864  15.896  0.2442  0.1682  0.5237
 2715TIP3    H229637   5.559   5.919  15.765  0.2685 -1.0087  0.0338
 2716TIP3   OH229638   1.497   2.769   2.646  0.3144  0.1921  0.4567
 2716TIP3    H129639   1.504   2.790   2.739  1.5811 -2.9183  1.0983
 2716TIP3    H229640   1.450   2.685   2.643 -0.8955  0.8891 -1.8068
 2717TIP3   OH229641   3.855   3.606   3.330  0.3479 -0.3430  0.5171
 2717TIP3    H129642   3.883   3.619   3.420  0.9702 -2.3628  0.6401
 2717TIP3    H229643   3.760   3.617   3.332  0.5357  1.2639  1.0959
 2718TIP3   OH229644   4.652   1.417   3.884 -0.2486  0.1264  0.0582
 2718TIP3    H129645   4.659   1.350   3.816 -1.7140 -0.1591  0.1729
 2718TIP3    H229646   4.743   1.444   3.900  0.1373  0.0559 -1.8439
 2719TIP3   OH229647   5.733   3.934   0.450  0.2750  0.0970 -0.0295
 2719TIP3    H129648   5.687   3.877   0.388 -1.8678 -0.5366  2.0760
 2719TIP3    H229649   5.676   3.938   0.526  1.6783  2.9209  0.9367
 2720TIP3   OH229650   3.974   0.529   6.090 -0.0879 -0.0317 -0.2124
 2720TIP3    H129651   3.951   0.506   6.180 -0.3640  1.3932  0.0881
 2720TIP3    H229652   3.969   0.446   6.043  2.9748 -1.3893  1.6727
 2721TIP3   OH229653   0.088   5.704  16.017  0.0799  0.2857  0.3423
 2721TIP3    H129654   0.100   5.667  16.104  0.8386 -0.3819 -0.0420
 2721TIP3    H229655   0.173   5.740  15.994 -0.3960  1.4121  0.3103
 2722TIP3   OH229656   4.008   0.875  14.808  0.5145 -0.8479  0.6863
 2722TIP3    H129657   4.029   0.830  14.890 -1.5995 -2.5542  0.3404
 2722TIP3    H229658   3.941   0.939  14.832  1.4099  0.1125  0.6518
 2723TIP3   OH229659   4.942   0.172  11.819 -0.3884 -0.3116 -0.0059
 2723TIP3    H129660   5.005   0.169  11.891  0.3785  0.0043 -0.6624
 2723TIP3    H229661   4.856   0.172  11.862  0.0825  1.5762  0.9845
 2724TIP3   OH229662   1.532   0.454  14.840 -0.0745  0.2124 -0.3732
 2724TIP3    H129663   1.515   0.428  14.749 -1.2002 -0.6254  0.0785
 2724TIP3    H229664   1.447   0.481  14.874  0.1461 -0.5684  0.7941
 2725TIP3   OH229665   4.940   5.325  14.676 -0.0794  0.2110 -0.0194
 2725TIP3    H129666   4.908   5.355  14.591  1.4509  0.7020 -0.4432
 2725TIP3    H229667   5.001   5.255  14.656 -2.2522 -2.0245  0.8884
 2726TIP3   OH229668   5.452   5.798   2.511  0.4015  0.1045 -0.5941
 2726TIP3    H129669   5.372   5.762   2.549  1.2820 -1.0503  0.1863
 2726TIP3    H229670   5.439   5.893   2.514  0.9695  0.1510  3.8697
 2727TIP3   OH229671   5.383   5.521  10.729 -0.0136 -0.1615  0.0494
 2727TIP3    H129672   5.299   5.475  10.724 -0.9704  1.5102  0.4264
 2727TIP3    H229673   5.423   5.508  10.643 -0.5563 -1.1357 -0.0621
 2728TIP3   OH229674   5.039   4.267  14.628  0.1056 -0.1500  0.3818
 2728TIP3    H129675   5.112   4.314  14.587  1.6447 -0.5927  2.5367
 2728TIP3    H229676   4.962   4.294  14.578  1.8580 -0.4872 -2.6475
 2729TIP3   OH229677   5.917   2.542  12.793 -0.0459  0.3262 -0.2322
 2729TIP3    H129678   5.978   2.510  12.860 -0.2878  1.3017  0.4532
 2729TIP3    H229679   5.933   2.484  12.718 -2.5355 -3.3443  1.8965
 2730TIP3   OH229680   2.856   4.109  16.833 -0.8264  0.0462 -0.3619
 2730TIP3    H129681   2.887   4.018  16.828 -0.7605  0.0918 -0.7754
 2730TIP3    H229682   2.761   4.102  16.828 -0.7486  0.1333 -2.4183
 2731TIP3   OH229683   0.716   5.018   1.390 -0.0029 -0.0358 -0.5841
 2731TIP3    H129684   0.737   5.111   1.380 -0.3443  0.3122  1.7321
 2731TIP3    H229685   0.635   5.017   1.441 -0.0014 -1.6214 -0.5903
 2732TIP3   OH229686   1.456   3.242   5.707 -0.0220  0.3423  0.3763
 2732TIP3    H129687   1.369   3.220   5.741  0.8435 -0.8737  1.8797
 2732TIP3    H229688   1.471   3.177   5.638 -0.7974  1.3371 -0.7632
 2733TIP3   OH229689   0.988   5.045  16.914 -0.3268  0.0503  0.0358
 2733TIP3    H129690   1.070   5.006  16.885  0.7710  2.5333 -0.3326
 2733TIP3    H229691   0.920   4.983  16.887  1.3457 -1.5039 -0.6240
 2734TIP3   OH229692   0.875   2.255   3.829  0.4948  0.5349  0.6808
 2734TIP3    H129693   0.889   2.347   3.809  0.3626  0.6556  1.1504
 2734TIP3    H229694   0.793   2.233   3.785  0.8205  0.4887  0.0855
 2735TIP3   OH229695   5.956   2.053   2.376 -0.1457 -0.3927  0.0710
 2735TIP3    H129696   5.877   2.063   2.323 -0.7061  0.6831  1.0943
 2735TIP3    H229697   5.929   1.999   2.451 -0.2303  1.0227  1.0702
 2736TIP3   OH229698   2.670   0.367   5.210  1.1651 -0.3995 -0.0973
 2736TIP3    H129699   2.627   0.342   5.291 -0.4487 -0.4212 -0.9320
 2736TIP3    H229700   2.656   0.293   5.151  0.8300  0.3158 -0.9326
 2737TIP3   OH229701   6.492   4.517  14.071  0.0360  0.2436  0.0084
 2737TIP3    H129702   6.554   4.537  14.002  0.2052 -0.8286 -0.1502
 2737TIP3    H229703   6.410   4.556  14.042 -0.2294 -1.3263 -1.4367
 2738TIP3   OH229704   3.030   3.537  13.002  0.8374  0.3961  0.3254
 2738TIP3    H129705   3.007   3.611  13.057 -0.3233  0.5544 -0.3516
 2738TIP3    H229706   3.044   3.464  13.063  2.2935  1.2205  1.0171
 2739TIP3   OH229707   5.082   6.422  13.286 -0.5144 -0.8321  0.1458
 2739TIP3    H129708   5.057   6.349  13.230 -0.9107  0.0377 -0.8203
 2739TIP3    H229709   5.001   6.449  13.328 -0.9486  1.0589 -1.8821
 2740TIP3   OH229710   3.627   6.023   5.752 -0.1557 -0.1717 -0.3887
 2740TIP3    H129711   3.535   6.034   5.778  0.6018  0.4789  2.1976
 2740TIP3    H229712   3.656   6.111   5.729 -0.0004 -0.2795 -0.6088
 2741TIP3   OH229713   0.638   0.687   2.150  0.2139 -0.7283 -0.3332
 2741TIP3    H129714   0.618   0.773   2.114 -2.1935 -0.8873  0.5335
 2741TIP3    H229715   0.621   0.696   2.244 -0.7648 -2.3215 -0.3394
 2742TIP3   OH229716   6.715   5.536  13.000  0.1162  0.2795  0.3625
 2742TIP3    H129717   6.768   5.512  12.924  0.6032  0.0829  0.7645
 2742TIP3    H229718   6.668   5.614  12.972 -0.3971 -0.3067 -0.4601
 2743TIP3   OH229719   0.369   0.802  12.198 -0.1037 -0.7517  0.2027
 2743TIP3    H129720   0.366   0.793  12.293  1.2783 -1.8904  0.1647
 2743TIP3    H229721   0.461   0.820  12.178  0.0881 -2.9173 -1.0737
 2744TIP3   OH229722   5.375   2.747   2.832  0.3646  0.1848 -0.1845
 2744TIP3    H129723   5.361   2.732   2.925  0.2448  0.8008 -0.0951
 2744TIP3    H229724   5.405   2.663   2.797 -1.8667 -0.7060 -0.0307
 2745TIP3   OH229725   2.582   3.081  10.735  0.0547  0.0979  0.1244
 2745TIP3    H129726   2.536   3.019  10.791 -0.3252  0.0057 -0.2827
 2745TIP3    H229727   2.625   3.027  10.669  0.4204  0.2120  0.2670
 2746TIP3   OH229728   3.145   0.345   5.387 -0.6792 -0.6022 -0.6004
 2746TIP3    H129729   3.188   0.359   5.471 -0.8729 -0.0648 -0.5888
 2746TIP3    H229730   3.187   0.267   5.351 -1.2915 -1.4328  0.4543
 2747TIP3   OH229731   4.365   2.659   0.816  0.1862  0.2583 -0.4690
 2747TIP3    H129732   4.324   2.713   0.883 -2.0720 -1.9534  0.0157
 2747TIP3    H229733   4.428   2.605   0.864 -0.0859 -0.0073 -0.4097
 2748TIP3   OH229734   0.747   5.574  10.460  0.5990 -1.0007  0.1532
 2748TIP3    H129735   0.774   5.606  10.546  1.0619 -1.3119  0.1232
 2748TIP3    H229736   0.661   5.534  10.475  0.4232 -0.5512  0.3602
 2749TIP3   OH229737   6.726   6.256  10.310 -0.0031 -0.4897  0.6252
 2749TIP3    H129738   6.667   6.181  10.318 -0.2647 -0.2927  0.5747
 2749TIP3    H229739   6.684   6.312  10.244 -0.6153  0.4397  1.7671
 2750TIP3   OH229740   6.552   5.556   0.421 -0.2094 -0.1802 -0.0334
 2750TIP3    H129741   6.537   5.464   0.445 -0.7423 -0.0991 -0.0556
 2750TIP3    H229742   6.485   5.605   0.469  1.2434  0.4023  1.4789
 2751TIP3   OH229743   1.113   5.858  16.427 -0.3924  0.2442  0.3356
 2751TIP3    H129744   1.071   5.775  16.451 -0.7366 -0.0103 -1.1206
 2751TIP3    H229745   1.193   5.860  16.480  0.3041 -1.6554 -0.5935
 2752TIP3   OH229746   6.155   1.678  15.626  0.4641 -0.6417 -0.1668
 2752TIP3    H129747   6.152   1.642  15.715 -0.2403 -1.8791 -0.6838
 2752TIP3    H229748   6.089   1.628  15.578 -0.4316  1.2168 -0.9452
 2753TIP3   OH229749   5.399   3.416  16.796 -0.0434  0.6901 -0.2528
 2753TIP3    H129750   5.396   3.360  16.873 -0.4796  0.3262 -0.5346
 2753TIP3    H229751   5.492   3.417  16.772 -0.1091 -0.3913 -0.5935
 2754TIP3   OH229752   6.405   0.044  13.423  0.1097  0.4038  0.5039
 2754TIP3    H129753   6.325   0.008  13.384 -0.1312  1.6347 -0.1836
 2754TIP3    H229754   6.476   0.007  13.372 -0.1967  1.8695 -1.0267
 2755TIP3   OH229755   4.440   5.884  14.374  0.0394 -0.1534 -0.2158
 2755TIP3    H129756   4.514   5.921  14.326  0.8556 -1.2738  0.1597
 2755TIP3    H229757   4.472   5.878  14.465 -0.7595 -0.0078  0.0813
 2756TIP3   OH229758   2.605   0.444  14.551  0.3545 -0.0851 -0.3063
 2756TIP3    H129759   2.596   0.513  14.485  0.4597  1.5749  1.4001
 2756TIP3    H229760   2.694   0.455  14.586  0.6574 -1.5826 -0.5499
 2757TIP3   OH229761   0.404   1.978   1.029  0.3336 -0.1106  0.3177
 2757TIP3    H129762   0.471   1.979   0.960  0.0950 -0.1172  0.0846
 2757TIP3    H229763   0.328   2.019   0.989 -0.3205 -1.5429  0.0520
 2758TIP3   OH229764   1.647   0.029   0.531  0.0431  0.2070  0.3547
 2758TIP3    H129765   1.733   0.029   0.489  2.0066  0.8532  4.0810
 2758TIP3    H229766   1.616   0.119   0.523 -0.3310 -0.0263 -0.9918
 2759TIP3   OH229767   1.238   2.896   4.928  0.5201 -0.3348  0.0220
 2759TIP3    H129768   1.179   2.821   4.931  0.6124 -0.3462  1.6895
 2759TIP3    H229769   1.228   2.929   4.839  0.5605 -2.3796 -0.7829
 2760TIP3   OH229770   3.113   6.344  11.050 -0.6248 -0.4833 -0.2546
 2760TIP3    H129771   3.141   6.277  11.113 -0.1950  0.3286  0.4256
 2760TIP3    H229772   3.156   6.424  11.080 -1.1972  0.1143 -1.0280
 2761TIP3   OH229773   1.964   3.988  11.681 -0.5624  0.2090  0.0448
 2761TIP3    H129774   1.907   3.914  11.657 -0.2900 -0.7831  2.3292
 2761TIP3    H229775   2.000   4.018  11.598  0.2658 -3.0381 -0.8290
 2762TIP3   OH229776   5.547   3.382  17.202  0.0270  0.3866 -0.3358
 2762TIP3    H129777   5.476   3.347  17.148  0.0618  1.5503 -1.1570
 2762TIP3    H229778   5.623   3.384  17.143  1.3670 -2.9750  1.1498
 2763TIP3   OH229779   4.190   2.139  10.590 -0.6028  0.1433 -0.4202
 2763TIP3    H129780   4.184   2.082  10.667 -2.2555  2.2251  1.0341
 2763TIP3    H229781   4.275   2.119  10.552 -0.4833 -2.1677  0.9551
 2764TIP3   OH229782   6.790   1.705   4.909 -0.0220 -0.2712 -0.4258
 2764TIP3    H129783   6.769   1.796   4.928  0.6432  0.2931 -2.2810
 2764TIP3    H229784   6.709   1.657   4.927 -0.6420  0.8033 -0.3276
 2765TIP3   OH229785   2.892   0.336   2.185  0.1227 -0.2284  0.3090
 2765TIP3    H129786   2.813   0.356   2.135 -0.4978  0.4063  1.5146
 2765TIP3    H229787   2.948   0.413   2.173 -0.4190  0.3407  1.3335
 2766TIP3   OH229788   3.019   0.304   0.934  0.3574  0.3149 -0.1605
 2766TIP3    H129789   3.086   0.314   0.866 -0.0971 -1.1866 -0.8517
 2766TIP3    H229790   3.047   0.228   0.984 -0.1238  0.4866  0.3711
 2767TIP3   OH229791   5.258   3.622  16.426 -0.3413 -0.2846 -0.3920
 2767TIP3    H129792   5.269   3.534  16.390  1.3277 -0.1095 -0.3830
 2767TIP3    H229793   5.307   3.678  16.366  0.4805  0.3259  0.8117
 2768TIP3   OH229794   0.185   5.415   2.839  0.3348  0.2588  0.4126
 2768TIP3    H129795   0.234   5.496   2.843 -0.1608  0.5504  0.6941
 2768TIP3    H229796   0.221   5.368   2.764 -1.3620  2.0375 -1.5763
 2769TIP3   OH229797   0.635   3.254  16.700  0.1885  0.6214 -0.4410
 2769TIP3    H129798   0.647   3.225  16.790 -0.1660 -0.2371 -0.6674
 2769TIP3    H229799   0.674   3.341  16.697 -1.1533  1.3015  0.9405
 2770TIP3   OH229800   4.283   3.020   5.341  0.4432  0.3454  0.1178
 2770TIP3    H129801   4.346   3.019   5.269 -0.0847 -0.5105 -0.3332
 2770TIP3    H229802   4.208   2.970   5.308 -1.1644  2.7506  0.0255
 2771TIP3   OH229803   5.235   4.163  12.066 -0.8605  0.6878  0.3438
 2771TIP3    H129804   5.270   4.249  12.044  0.0239  0.2126 -0.1890
 2771TIP3    H229805   5.270   4.105  11.998 -0.2025 -0.3548  1.5365
 2772TIP3   OH229806   2.876   2.432  11.578 -0.0004  0.0339  0.0395
 2772TIP3    H129807   2.927   2.514  11.575  2.0969 -1.2714 -2.0597
 2772TIP3    H229808   2.936   2.368  11.617 -1.2519 -0.7310  0.7005
 2773TIP3   OH229809   3.987   1.664   0.499 -0.3747  0.1849  0.1161
 2773TIP3    H129810   3.964   1.756   0.499 -0.3019  0.2280 -2.1992
 2773TIP3    H229811   3.906   1.618   0.522 -0.3615  0.7959  1.4601
 2774TIP3   OH229812   0.844   1.060  11.882 -0.4283 -0.2806  0.2139
 2774TIP3    H129813   0.844   1.136  11.823 -3.6878  0.1794  0.7122
 2774TIP3    H229814   0.806   0.990  11.829  1.6204 -1.3646  0.0983
 2775TIP3   OH229815   4.774   3.370   4.546  0.1415 -0.3544 -0.2345
 2775TIP3    H129816   4.825   3.294   4.521  0.6715 -1.3304  3.4150
 2775TIP3    H229817   4.789   3.434   4.477  2.8031 -2.1755 -1.4100
 2776TIP3   OH229818   2.501   4.041  11.552  0.2398 -0.3862 -0.1817
 2776TIP3    H129819   2.505   3.961  11.500 -0.1414 -0.5926  0.1069
 2776TIP3    H229820   2.456   4.104  11.495  2.6794  0.3482 -1.3533
 2777TIP3   OH229821   4.315   2.803  12.365  0.1242 -0.5861  0.0878
 2777TIP3    H129822   4.395   2.852  12.350  0.9352 -2.0240 -0.3597
 2777TIP3    H229823   4.343   2.711  12.372 -1.4246 -1.0683  0.2740
 2778TIP3   OH229824   1.511   5.775  13.502 -0.2123  0.0043 -0.2636
 2778TIP3    H129825   1.511   5.826  13.421  2.7286 -2.0764 -1.6443
 2778TIP3    H229826   1.550   5.834  13.567  1.1914  0.2744 -1.3327
 2779TIP3   OH229827   0.114   1.476   1.788 -0.5515  0.2549  0.0528
 2779TIP3    H129828   0.148   1.563   1.809  1.4527 -0.9063  1.8846
 2779TIP3    H229829   0.151   1.455   1.702  1.6199 -0.0714  1.0396
 2780TIP3   OH229830   2.436   3.375  14.538 -0.3558  0.2271 -0.0785
 2780TIP3    H129831   2.342   3.362  14.532 -0.6256  1.2885  1.4954
 2780TIP3    H229832   2.452   3.459  14.495 -0.4132  0.9940  1.3536
 2781TIP3   OH229833   4.533   0.671  14.262 -0.4701 -0.1681 -0.2461
 2781TIP3    H129834   4.519   0.681  14.356 -0.9547  1.4327 -0.4752
 2781TIP3    H229835   4.447   0.646  14.228 -1.1824  2.6542 -0.6923
 2782TIP3   OH229836   2.094   5.860   4.410 -0.1126 -0.1626 -0.1143
 2782TIP3    H129837   2.174   5.857   4.462 -0.9097 -0.3285  1.1189
 2782TIP3    H229838   2.069   5.768   4.400  0.6086 -0.2095 -1.7173
 2783TIP3   OH229839   5.811   3.677   0.680 -0.5962 -0.2136 -0.1852
 2783TIP3    H129840   5.731   3.682   0.628 -1.1626 -0.5348  0.6432
 2783TIP3    H229841   5.882   3.689   0.617 -1.3153  0.6480 -0.8424
 2784TIP3   OH229842   0.179   3.110  12.866 -0.1948 -0.1403  0.0485
 2784TIP3    H129843   0.274   3.105  12.862 -0.0786  2.3269 -0.5526
 2784TIP3    H229844   0.149   3.066  12.786  0.4505 -0.4576 -0.0188
 2785TIP3   OH229845   5.370   3.069  14.821 -0.1042 -0.0809  0.0716
 2785TIP3    H129846   5.426   3.127  14.769  1.3990 -1.5522  0.0203
 2785TIP3    H229847   5.286   3.072  14.777  0.4907  0.5634 -1.0535
 2786TIP3   OH229848   2.367   4.438   3.733 -0.2942  0.4433  0.1974
 2786TIP3    H129849   2.296   4.433   3.797  0.0766 -2.8940  0.4462
 2786TIP3    H229850   2.445   4.459   3.785 -0.7820  2.4386  0.1540
 2787TIP3   OH229851   1.924   2.140   6.465 -0.8709  0.2454 -0.2979
 2787TIP3    H129852   1.927   2.080   6.391 -1.5356  0.2357 -0.3204
 2787TIP3    H229853   1.969   2.219   6.434  0.7516 -0.5203  0.0079
 2788TIP3   OH229854   4.738   4.938  13.893  0.7607  0.0827 -0.3020
 2788TIP3    H129855   4.762   4.864  13.837 -0.2074  0.5206 -1.3146
 2788TIP3    H229856   4.782   5.013  13.855 -0.7307  0.5681 -1.1046
 2789TIP3   OH229857   1.260   0.044  14.202  0.1075 -0.4759 -0.2324
 2789TIP3    H129858   1.178   0.004  14.231  0.3588 -1.1410 -0.4113
 2789TIP3    H229859   1.252   0.049  14.107 -0.4212  1.0414 -0.1219
 2790TIP3   OH229860   4.251   3.206  13.841 -0.0028  0.0212 -0.0929
 2790TIP3    H129861   4.241   3.221  13.747 -1.5446 -0.1700  0.0368
 2790TIP3    H229862   4.304   3.280  13.871 -1.3374  1.2821 -0.7495
 2791TIP3   OH229863   6.531   1.318  15.212  0.0807 -0.2211  0.0631
 2791TIP3    H129864   6.485   1.382  15.158 -0.3800 -1.1238 -0.6286
 2791TIP3    H229865   6.578   1.371  15.276  1.1026  0.9131 -1.5703
 2792TIP3   OH229866   6.141   2.830   5.211 -0.1718 -0.7579 -0.5694
 2792TIP3    H129867   6.230   2.860   5.230 -0.2395 -0.2145 -1.0853
 2792TIP3    H229868   6.101   2.903   5.163 -1.2034 -0.6045  0.4713
 2793TIP3   OH229869   5.141   5.478  11.013 -0.2375  0.0970 -0.8674
 2793TIP3    H129870   5.123   5.457  10.921  0.6387  0.7844 -1.2003
 2793TIP3    H229871   5.079   5.424  11.062 -1.4785  0.5338 -1.9039
 2794TIP3   OH229872   2.992   5.394  13.393 -0.4800  0.3523 -0.2351
 2794TIP3    H129873   3.072   5.376  13.343 -0.0253  0.7779  0.3300
 2794TIP3    H229874   2.921   5.365  13.336  0.0651  0.2785 -0.8837
 2795TIP3   OH229875   0.803   6.583   4.770  0.0397  0.1636  0.3002
 2795TIP3    H129876   0.845   6.648   4.826  0.3703  0.9465 -0.8418
 2795TIP3    H229877   0.873   6.523   4.746 -0.4327 -1.1481  2.0473
 2796TIP3   OH229878   4.702   0.018  16.187 -0.9675 -0.7600 -0.2750
 2796TIP3    H129879   4.690   0.113  16.178  0.7502 -0.5302 -0.3319
 2796TIP3    H229880   4.681  -0.000  16.278  4.3416  0.6331  1.3531
 2797TIP3   OH229881   5.886   3.022  14.205 -0.3945 -0.6143  0.3265
 2797TIP3    H129882   5.795   2.996  14.195 -1.2861  1.2893  3.1849
 2797TIP3    H229883   5.897   3.097  14.147 -1.0956  0.1413  1.1572
 2798TIP3   OH229884   4.904   0.712  15.031  0.0949  0.3137  0.4191
 2798TIP3    H129885   4.882   0.792  14.983  0.8247  0.0231 -0.4041
 2798TIP3    H229886   4.856   0.642  14.986  1.3459 -0.0674 -0.3517
 2799TIP3   OH229887   3.530   1.019   1.648 -0.1683 -0.5980 -0.2647
 2799TIP3    H129888   3.439   1.009   1.621 -0.3872 -1.9575  0.9280
 2799TIP3    H229889   3.535   0.977   1.734  1.4021  0.1828  0.0523
 2800TIP3   OH229890   2.181   1.185  14.128 -0.6812 -0.1617 -0.5037
 2800TIP3    H129891   2.270   1.220  14.129 -1.4607  2.1114 -3.1046
 2800TIP3    H229892   2.191   1.091  14.116  1.3721 -0.0177 -0.0113
 2801TIP3   OH229893   5.716   1.349  15.309  0.1084 -0.1633  0.3338
 2801TIP3    H129894   5.681   1.300  15.384 -0.0963 -1.1668 -0.3991
 2801TIP3    H229895   5.685   1.438  15.321 -0.8585 -0.5664  0.8558
 2802TIP3   OH229896   4.385   1.206   3.956  0.6350 -0.1376 -0.2436
 2802TIP3    H129897   4.472   1.228   3.990  1.5541 -2.1479 -1.2447
 2802TIP3    H229898   4.336   1.178   4.034  0.0933  3.2128  0.7178
 2803TIP3   OH229899   4.432   0.872   0.926 -0.3456 -0.4169 -0.0702
 2803TIP3    H129900   4.393   0.817   0.994 -2.0294  0.2463 -0.4792
 2803TIP3    H229901   4.420   0.962   0.957 -2.5358 -0.0150 -1.9133
 2804TIP3   OH229902   2.622   1.781  15.580  0.2227  0.1820 -0.0417
 2804TIP3    H129903   2.714   1.760  15.598 -0.1813 -0.4237  1.4115
 2804TIP3    H229904   2.616   1.875  15.593  0.0788 -0.1390  2.6205
 2805TIP3   OH229905   3.116   3.306  11.979  0.3643  0.3149  0.0278
 2805TIP3    H129906   3.084   3.346  11.898  4.0603 -0.3731 -1.8550
 2805TIP3    H229907   3.179   3.368  12.014  1.3993 -0.9557  0.4777
 2806TIP3   OH229908   5.199   1.643  11.717 -0.0055  0.4062  0.5928
 2806TIP3    H129909   5.270   1.589  11.752 -1.8975 -2.3920  0.2437
 2806TIP3    H229910   5.165   1.690  11.793  0.3970 -0.3566  1.2523
 2807TIP3   OH229911   1.594   1.121   2.345 -0.4246  0.6945  0.3824
 2807TIP3    H129912   1.662   1.143   2.281 -1.3525 -0.1134 -0.9160
 2807TIP3    H229913   1.515   1.162   2.311 -0.7303  1.0967  1.5517
 2808TIP3   OH229914   2.400   6.097  17.091  0.5645 -0.2168  0.2669
 2808TIP3    H129915   2.431   6.186  17.072 -0.1135 -0.2224 -0.9247
 2808TIP3    H229916   2.307   6.099  17.069  0.5122 -1.1738  0.3769
 2809TIP3   OH229917   4.781   1.245   0.944 -0.8928  0.2699  0.1898
 2809TIP3    H129918   4.836   1.279   0.874 -0.9673  0.2833  0.1384
 2809TIP3    H229919   4.790   1.150   0.938 -1.9602  0.2166 -0.6851
 2810TIP3   OH229920   2.563   5.645   1.548 -0.2295 -0.0460 -0.0626
 2810TIP3    H129921   2.577   5.737   1.525  1.1833 -0.5922 -1.4586
 2810TIP3    H229922   2.530   5.605   1.468  1.9620 -1.3592 -0.3356
 2811TIP3   OH229923   3.323   2.010   3.146  0.0327 -0.4985  0.0159
 2811TIP3    H129924   3.280   2.095   3.161 -1.5867 -1.5549  1.5993
 2811TIP3    H229925   3.278   1.975   3.069  0.3790 -0.1269 -0.3572
 2812TIP3   OH229926   2.659   1.984   6.077  0.2578 -0.1033  0.3384
 2812TIP3    H129927   2.731   2.037   6.042  0.6792 -0.4073  0.7429
 2812TIP3    H229928   2.699   1.931   6.145 -0.2038 -0.7984  0.0755
 2813TIP3   OH229929   0.716   6.173  16.180 -0.8190  0.3608 -0.0242
 2813TIP3    H129930   0.777   6.100  16.181 -1.6665 -0.3514 -0.0120
 2813TIP3    H229931   0.647   6.149  16.242 -0.6120  1.5982  0.7096
 2814TIP3   OH229932   0.136   4.349   2.677  0.3400 -0.1623  0.4080
 2814TIP3    H129933   0.141   4.436   2.639 -3.3350  0.8652  2.0514
 2814TIP3    H229934   0.043   4.336   2.697  1.0730 -3.6264  2.1018
 2815TIP3   OH229935   5.852   6.181   4.333  0.0251 -0.3171 -0.0247
 2815TIP3    H129936   5.837   6.275   4.335  1.6720  0.0059 -1.5697
 2815TIP3    H229937   5.793   6.148   4.265  0.1326 -0.2621 -0.1449
 2816TIP3   OH229938   3.942   1.323   0.996  0.3056 -0.1823  0.0499
 2816TIP3    H129939   3.850   1.311   1.018  0.9623 -0.5712  2.7515
 2816TIP3    H229940   3.948   1.297   0.904 -2.1866 -0.5665 -0.0464
 2817TIP3   OH229941   4.860   3.421  12.024 -0.2049 -0.3142  0.3497
 2817TIP3    H129942   4.876   3.369  12.103  2.9990  2.5047  1.6992
 2817TIP3    H229943   4.936   3.404  11.968 -0.1933  1.2217 -0.1168
 2818TIP3   OH229944   2.289   3.880   0.592 -0.3803 -0.0425  0.0874
 2818TIP3    H129945   2.255   3.820   0.525  0.4331  0.7712 -1.0767
 2818TIP3    H229946   2.346   3.826   0.646 -0.6558 -0.5947 -0.1679
 2819TIP3   OH229947   6.433   4.841   3.224  0.1511  0.2752 -0.1436
 2819TIP3    H129948   6.435   4.894   3.144  0.5975 -0.6236 -0.7266
 2819TIP3    H229949   6.459   4.754   3.196  0.7032  0.0506  1.0603
 2820TIP3   OH229950   5.547   4.909   1.480  0.1897  0.3141  0.0974
 2820TIP3    H129951   5.635   4.940   1.498 -0.4360  0.6135  2.7731
 2820TIP3    H229952   5.532   4.838   1.542 -0.3464 -1.8572 -2.4075
 2821TIP3   OH229953   3.511   6.816  13.413  0.1137  0.6172 -0.0464
 2821TIP3    H129954   3.521   6.907  13.440  4.1601  0.6812 -1.3852
 2821TIP3    H229955   3.456   6.820  13.335  0.1350  1.8914 -0.0038
 2822TIP3   OH229956   0.046   2.875  15.542  0.7179 -0.3717 -0.8985
 2822TIP3    H129957   0.022   2.812  15.610  0.1754  0.2672 -0.4968
 2822TIP3    H229958   0.058   2.821  15.464  0.5973 -1.0172 -0.4778
 2823TIP3   OH229959   0.238   6.376  11.284 -0.3833 -0.3535  0.5735
 2823TIP3    H129960   0.309   6.426  11.244  0.6434 -0.8701  1.7145
 2823TIP3    H229961   0.158   6.413  11.246  0.4665  0.5738 -0.3436
 2824TIP3   OH229962   2.637   3.101   1.373  0.3137 -0.4645 -0.6108
 2824TIP3    H129963   2.556   3.065   1.409 -0.0066 -1.4574 -2.2252
 2824TIP3    H229964   2.688   3.127   1.449 -2.1208  1.5192  0.4043
 2825TIP3   OH229965   3.005   2.692  11.675  0.8865  0.5796  0.0912
 2825TIP3    H129966   3.016   2.761  11.609  1.3048  1.0904  0.6883
 2825TIP3    H229967   3.077   2.631  11.659 -0.1567 -0.3342 -1.1794
 2826TIP3   OH229968   2.348   2.975  15.778  0.3742 -0.3483 -0.4164
 2826TIP3    H129969   2.343   2.982  15.874 -0.4333  0.2605 -0.5001
 2826TIP3    H229970   2.261   2.999  15.748  0.2785 -1.7125 -1.2444
 2827TIP3   OH229971   5.123   2.844  12.777 -0.0246  0.6134 -0.5166
 2827TIP3    H129972   5.099   2.889  12.696 -0.8685  0.8154 -0.1533
 2827TIP3    H229973   5.081   2.894  12.846 -1.6078 -1.1522 -0.1653
 2828TIP3   OH229974   3.627   6.657  11.144 -0.4881 -0.1537  0.1687
 2828TIP3    H129975   3.563   6.713  11.101 -0.1163  0.5462  0.5154
 2828TIP3    H229976   3.621   6.573  11.098 -0.5644  0.3828 -0.8015
 2829TIP3   OH229977   2.954   0.096   4.998  0.0047 -1.2212 -0.5177
 2829TIP3    H129978   3.000   0.022   5.037 -1.2548 -1.1783  1.0847
 2829TIP3    H229979   2.907   0.136   5.071 -0.0507  0.6210 -1.5387
 2830TIP3   OH229980   4.854   4.391  12.243 -0.0947 -0.4996 -0.2682
 2830TIP3    H129981   4.879   4.306  12.205  1.2437  0.1292 -0.8420
 2830TIP3    H229982   4.821   4.369  12.330 -0.3568 -1.6702 -0.6491
 2831TIP3   OH229983   1.582   3.565  17.119 -0.4699 -0.3881 -0.0527
 2831TIP3    H129984   1.518   3.579  17.050 -0.2632 -0.4820 -0.2626
 2831TIP3    H229985   1.652   3.515  17.077  1.0138  2.0317 -0.5523
 2832TIP3   OH229986   3.216   2.535  14.072 -0.0126 -0.1287 -0.4034
 2832TIP3    H129987   3.255   2.496  13.993  0.1784  2.3030 -1.5495
 2832TIP3    H229988   3.151   2.471  14.100  0.2941 -1.2928 -2.2370
 2833TIP3   OH229989   4.345   2.431  10.582  0.6196  0.0886 -0.3310
 2833TIP3    H129990   4.302   2.511  10.552  0.8191  0.4843  0.4245
 2833TIP3    H229991   4.330   2.429  10.676 -0.9965 -1.7471 -0.5841
 2834TIP3   OH229992   3.184   2.172  11.718  0.3417 -0.5528  0.1646
 2834TIP3    H129993   3.140   2.154  11.635 -0.8823 -0.1129  0.7077
 2834TIP3    H229994   3.183   2.267  11.726  0.6328 -0.5850  0.5890
 2835TIP3   OH229995   5.610   0.034   1.156 -0.6491 -0.6836 -0.0611
 2835TIP3    H129996   5.684   0.074   1.202  0.6614 -0.5825 -2.1663
 2835TIP3    H229997   5.605  -0.055   1.190  1.6467 -1.2797 -1.2449
 2836TIP3   OH229998   2.774   5.189  13.507 -0.0823 -0.2049  0.3289
 2836TIP3    H129999   2.750   5.124  13.441 -0.5422 -0.9676  1.2515
 2836TIP3    H230000   2.867   5.173  13.524 -0.3590 -1.0831  1.0609
 2837TIP3   OH230001   0.891   5.620  13.274 -0.1265  0.3857 -0.2222
 2837TIP3    H130002   0.920   5.529  13.266 -0.6839  0.1748  0.1312
 2837TIP3    H230003   0.877   5.633  13.368 -1.3855  0.4135 -0.3997
 2838TIP3   OH230004   2.045   4.924   1.387 -0.0630 -0.1811 -0.6058
 2838TIP3    H130005   2.089   4.847   1.351 -1.7322 -0.9792 -0.9910
 2838TIP3    H230006   2.036   4.905   1.480  0.5873  0.0794 -0.4869
 2839TIP3   OH230007   0.238   4.830   6.505  0.0793 -0.1691 -0.3902
 2839TIP3    H130008   0.159   4.839   6.452  0.5468 -0.0439 -1.0678
 2839TIP3    H230009   0.269   4.741   6.489 -2.0278 -1.5859  2.8368
 2840TIP3   OH230010   1.356   0.814   4.081 -0.4952  0.0863 -0.1206
 2840TIP3    H130011   1.284   0.759   4.050 -1.3804  0.6039  0.9619
 2840TIP3    H230012   1.369   0.786   4.172  1.5494 -0.8967 -0.6920
 2841TIP3   OH230013   3.776   3.971  12.306  0.0198  0.2953  0.0291
 2841TIP3    H130014   3.686   4.002  12.298  0.7119  2.7757  1.3761
 2841TIP3    H230015   3.773   3.903  12.373 -1.1168 -0.9408 -1.2426
 2842TIP3   OH230016   0.045   3.135   4.762  0.3929 -0.2654  0.5542
 2842TIP3    H130017   0.048   3.068   4.830 -0.0555  0.5305  1.3698
 2842TIP3    H230018   0.023   3.216   4.808  0.1960  0.3147 -0.5182
 2843TIP3   OH230019   0.039   5.650  15.284 -0.1523 -0.4912  0.0385
 2843TIP3    H130020   0.016   5.599  15.362 -0.6751 -0.6644 -0.2228
 2843TIP3    H230021   0.124   5.615  15.257 -0.2921 -0.9115  0.1335
 2844TIP3   OH230022   3.238   5.286  13.218  0.4637  0.0021 -0.2852
 2844TIP3    H130023   3.275   5.198  13.218 -0.1960 -0.2836 -0.1437
 2844TIP3    H230024   3.211   5.301  13.128 -2.9473 -1.4878  0.3821
 2845TIP3   OH230025   1.725   0.013  16.093 -0.2681 -0.1465 -0.1255
 2845TIP3    H130026   1.731  -0.082  16.082 -2.2286 -0.5759  2.0049
 2845TIP3    H230027   1.722   0.026  16.188 -3.5296  1.7595 -0.4058
 2846TIP3   OH230028   4.720   2.752   1.094  0.0328 -0.7977  0.7270
 2846TIP3    H130029   4.633   2.765   1.132  0.1729 -0.0218  0.7910
 2846TIP3    H230030   4.765   2.834   1.109  0.2513 -0.6438 -0.7078
 2847TIP3   OH230031   3.229   1.977   2.045 -0.2738  0.2550 -0.4762
 2847TIP3    H130032   3.278   2.023   1.977 -0.1418 -0.1828 -0.6757
 2847TIP3    H230033   3.138   1.981   2.016 -0.0216 -1.4369 -1.5529
 2848TIP3   OH230034   5.496   4.089   0.119 -0.3519  0.3495 -0.3408
 2848TIP3    H130035   5.489   4.091   0.024 -3.3851  0.0988 -0.1849
 2848TIP3    H230036   5.443   4.163   0.149  2.1764  1.6279  1.1353
 2849TIP3   OH230037   3.704   5.360  11.925 -0.1591 -0.0300  0.0692
 2849TIP3    H130038   3.791   5.374  11.887  0.2170  0.7910  1.2097
 2849TIP3    H230039   3.720   5.311  12.005 -0.4357  2.5098  1.7414
 2850TIP3   OH230040   0.765   0.314  11.472  0.0894  0.0654 -0.1182
 2850TIP3    H130041   0.804   0.396  11.501 -1.2150  0.6114  0.1481
 2850TIP3    H230042   0.759   0.322  11.377 -1.0918  0.7822  0.0001
 2851TIP3   OH230043   5.100   2.169   0.660  0.0447 -0.7164 -0.0786
 2851TIP3    H130044   5.009   2.178   0.630  0.5757  0.9773 -1.2873
 2851TIP3    H230045   5.093   2.159   0.755 -1.4119 -0.3759 -0.1355
 2852TIP3   OH230046   2.902   5.334  13.129 -0.2596  0.3841 -0.2427
 2852TIP3    H130047   2.835   5.270  13.107 -0.2004 -0.1695  1.1264
 2852TIP3    H230048   2.975   5.315  13.070 -0.5452 -0.2833 -0.3802
 2853TIP3   OH230049   6.812   4.789  11.167  0.5393 -0.1547 -0.1416
 2853TIP3    H130050   6.896   4.835  11.167 -0.3375  1.5131 -0.5546
 2853TIP3    H230051   6.771   4.814  11.084  0.4374 -2.5005 -0.8299
 2854TIP3   OH230052   3.162   3.804   6.206 -0.1349 -0.4009  0.0923
 2854TIP3    H130053   3.084   3.832   6.253  0.7930  1.7852  0.3902
 2854TIP3    H230054   3.165   3.709   6.218 -1.0897 -0.1479  2.6224
 2855TIP3   OH230055   1.137   3.772   2.976  0.5822 -0.2473 -0.5984
 2855TIP3    H130056   1.139   3.842   3.041  0.7814  0.0952 -0.9750
 2855TIP3    H230057   1.100   3.812   2.898  1.7167 -0.2662 -1.1534
 2856TIP3   OH230058   0.508   5.218   2.316  0.2141 -0.1229  0.2522
 2856TIP3    H130059   0.466   5.294   2.356  0.1645  0.5007 -0.9796
 2856TIP3    H230060   0.451   5.194   2.243  0.8860 -0.5742 -0.1307
 2857TIP3   OH230061   3.775   6.623   5.313 -0.6405 -0.0120 -0.7060
 2857TIP3    H130062   3.792   6.540   5.359 -0.3466  1.1967  1.4681
 2857TIP3    H230063   3.820   6.614   5.229  1.5332 -1.0883  0.5284
 2858TIP3   OH230064   1.374   4.830   5.332  0.7636  0.6630 -0.3698
 2858TIP3    H130065   1.453   4.778   5.346  0.1430  0.2568  1.7484
 2858TIP3    H230066   1.322   4.818   5.411 -0.9968  1.7065 -1.3205
 2859TIP3   OH230067   0.686   1.729   1.023  0.3238  0.5280 -0.6353
 2859TIP3    H130068   0.751   1.720   0.953  0.6464  1.2008 -0.4252
 2859TIP3    H230069   0.627   1.798   0.992  1.3245  1.8756  0.4069
 2860TIP3   OH230070   1.570   0.505   5.073 -0.0762  0.0653 -0.3372
 2860TIP3    H130071   1.665   0.498   5.084 -0.0002 -0.6739 -1.3765
 2860TIP3    H230072   1.535   0.491   5.161  0.7455 -0.5916 -0.1005
 2861TIP3   OH230073   6.790   1.076   1.759  0.1304  0.1897 -0.5522
 2861TIP3    H130074   6.881   1.102   1.773  0.3395 -1.3195  0.9778
 2861TIP3    H230075   6.791   1.027   1.678  1.4388 -3.3330  1.4966
 2862TIP3   OH230076   6.193   4.949  12.916  0.0806  0.1852 -0.3478
 2862TIP3    H130077   6.217   5.006  12.843  0.1401  1.4823  0.6693
 2862TIP3    H230078   6.237   4.987  12.992 -0.0185 -1.1184  0.3718
 2863TIP3   OH230079   3.534   1.982  15.638 -0.3145  0.5128 -0.1272
 2863TIP3    H130080   3.597   1.984  15.565 -0.1315 -3.3822 -0.1849
 2863TIP3    H230081   3.587   1.961  15.715 -0.9991  1.2340  0.5478
 2864TIP3   OH230082   5.475   1.268   0.565  0.0475  0.1358 -0.0290
 2864TIP3    H130083   5.463   1.282   0.659  0.4776  1.4251 -0.1530
 2864TIP3    H230084   5.557   1.312   0.544 -0.4629  0.5758 -1.1586
 2865TIP3   OH230085   3.182   2.786   6.011 -0.5017 -0.1761 -0.7986
 2865TIP3    H130086   3.167   2.824   5.925 -1.2118  1.2118 -0.0779
 2865TIP3    H230087   3.105   2.731   6.026 -1.3306  1.1134 -0.2404
 2866TIP3   OH230088   5.470   3.632   1.579  0.1190 -0.2357 -0.1768
 2866TIP3    H130089   5.566   3.634   1.588 -0.1331  0.2599  2.5748
 2866TIP3    H230090   5.437   3.666   1.662 -2.4450  1.7102 -1.9386
 2867TIP3   OH230091   4.520   4.195   1.545 -0.1922 -0.6737  0.1446
 2867TIP3    H130092   4.504   4.110   1.586  2.2408 -2.8865 -3.2549
 2867TIP3    H230093   4.608   4.219   1.573 -0.4507  0.2581  0.2010
 2868TIP3   OH230094   0.659   4.108   1.466  0.0994  0.5374  0.0095
 2868TIP3    H130095   0.589   4.051   1.498  1.2799 -0.7377  0.3947
 2868TIP3    H230096   0.626   4.197   1.480 -0.7593 -0.0194  1.7487
 2869TIP3   OH230097   6.095   1.430   1.079 -0.3918  0.0893 -0.5971
 2869TIP3    H130098   6.049   1.371   1.139  0.4434  0.4907  0.4634
 2869TIP3    H230099   6.067   1.402   0.992 -0.3422 -1.6000 -0.0928
 2870TIP3   OH230100   4.344   0.001  13.751 -0.1736 -0.3865  0.6668
 2870TIP3    H130101   4.363  -0.022  13.842 -1.4534 -0.6764  0.8693
 2870TIP3    H230102   4.295   0.082  13.757  1.5292  0.6976  0.1134
 2871TIP3   OH230103   6.566   3.545   4.767 -0.5159 -0.2133 -0.5315
 2871TIP3    H130104   6.554   3.520   4.676 -0.0399 -0.2592 -0.5835
 2871TIP3    H230105   6.586   3.639   4.764 -0.4256 -0.2311 -0.4781
 2872TIP3   OH230106   5.459   5.760  14.216  0.1496 -0.4138 -0.6497
 2872TIP3    H130107   5.546   5.782  14.250 -0.5043  0.9767  0.1671
 2872TIP3    H230108   5.476   5.699  14.144  1.9096  1.0666 -1.5411
 2873TIP3   OH230109   6.512   3.134  11.841 -0.4835  0.3025  0.1932
 2873TIP3    H130110   6.527   3.217  11.886 -0.5139 -0.7507  2.2099
 2873TIP3    H230111   6.508   3.069  11.912 -4.4767 -0.8897 -1.0194
 2874TIP3   OH230112   1.821   2.799   0.573  0.0378 -0.1183 -1.0080
 2874TIP3    H130113   1.879   2.788   0.649 -0.8941  1.6498  0.0008
 2874TIP3    H230114   1.763   2.870   0.598 -1.3093 -0.5620 -2.7912
 2875TIP3   OH230115   1.173   0.621   2.741  0.0685  0.0156  0.8022
 2875TIP3    H130116   1.093   0.663   2.771 -1.1377 -2.1763  0.7206
 2875TIP3    H230117   1.192   0.663   2.657 -0.9130  0.6595  0.8991
 2876TIP3   OH230118   2.259   4.735   5.483 -0.0293  0.3180 -0.1580
 2876TIP3    H130119   2.234   4.655   5.531  0.5500 -0.3533 -0.9770
 2876TIP3    H230120   2.190   4.746   5.418  0.3525  0.0025 -0.6146
 2877TIP3   OH230121   6.510   5.090  10.275 -0.0038 -0.4337  0.3996
 2877TIP3    H130122   6.521   5.120  10.365  1.2191  0.1844  0.0563
 2877TIP3    H230123   6.584   5.031  10.261 -1.1415 -1.9028  0.3430
 2878TIP3   OH230124   1.581   1.474   5.750  0.0954 -0.1676  0.5692
 2878TIP3    H130125   1.533   1.402   5.791 -0.2212  0.2807  0.9885
 2878TIP3    H230126   1.538   1.553   5.782  0.5254  0.2148  0.2134
 2879TIP3   OH230127   3.377   5.206  13.975 -0.2896 -0.0030 -0.0589
 2879TIP3    H130128   3.453   5.212  13.917 -0.4971  1.0043 -0.2386
 2879TIP3    H230129   3.381   5.285  14.028 -0.8480 -0.2648  0.3824
 2880TIP3   OH230130   5.555   4.528  11.925  0.2348 -0.2698  0.0613
 2880TIP3    H130131   5.493   4.456  11.935 -1.2142  0.6342 -2.0540
 2880TIP3    H230132   5.603   4.508  11.844  0.6137  0.5670  0.0713
 2881TIP3   OH230133   5.593   1.078  11.618  0.3589  0.0830 -0.4396
 2881TIP3    H130134   5.550   1.086  11.533  1.4932 -1.3020 -1.1571
 2881TIP3    H230135   5.684   1.101  11.601 -0.0888  3.2480  1.1228
 2882TIP3   OH230136   4.210   1.247   2.379  0.5679  0.2973  0.2767
 2882TIP3    H130137   4.233   1.205   2.461  0.1064 -1.4789 -0.4794
 2882TIP3    H230138   4.206   1.340   2.400 -1.6615 -0.3039  2.7567
 2883TIP3   OH230139   4.028   6.356  10.616 -0.2035  0.5423 -0.1273
 2883TIP3    H130140   3.972   6.314  10.682  0.4339 -0.6920 -0.3457
 2883TIP3    H230141   4.049   6.441  10.653 -1.4888  0.6585  0.3649
 2884TIP3   OH230142   3.100   0.644   5.381  0.1500 -0.0872 -0.0908
 2884TIP3    H130143   3.062   0.703   5.447  1.2061  1.9623 -1.2800
 2884TIP3    H230144   3.172   0.600   5.427  1.0654  1.5401  0.0620
 2885TIP3   OH230145   0.755   2.190  15.426 -0.2122 -0.2800  0.5650
 2885TIP3    H130146   0.814   2.122  15.459  0.4370 -0.2821 -0.5938
 2885TIP3    H230147   0.801   2.272  15.445  0.3940 -0.3002 -0.7584
 2886TIP3   OH230148   4.886   0.840  16.948 -0.1178 -0.4498  0.0733
 2886TIP3    H130149   4.916   0.753  16.972  1.3427 -0.2436 -0.8968
 2886TIP3    H230150   4.862   0.833  16.856  1.1180  0.4255 -0.3365
 2887TIP3   OH230151   4.815   3.739  13.182 -0.5360 -0.1844  0.1130
 2887TIP3    H130152   4.897   3.758  13.138 -1.0085  2.1098  0.1497
 2887TIP3    H230153   4.838   3.733  13.275 -0.6398  2.0350  0.2985
 2888TIP3   OH230154   1.020   2.645   3.297  0.0441 -0.1297  0.1351
 2888TIP3    H130155   0.940   2.671   3.252  0.1020  1.4801  0.9454
 2888TIP3    H230156   0.997   2.646   3.390  0.8521 -0.1931  0.3403
 2889TIP3   OH230157   6.406   6.790  13.895 -0.1376  0.4324  0.1456
 2889TIP3    H130158   6.417   6.885  13.889  0.8036  0.3595  0.6413
 2889TIP3    H230159   6.391   6.763  13.804 -0.0296  1.0043 -0.0482
 2890TIP3   OH230160   0.158   6.645  14.904  0.7742  0.0915  0.1760
 2890TIP3    H130161   0.161   6.740  14.895  1.2470 -0.1094 -2.2516
 2890TIP3    H230162   0.093   6.629  14.972  0.7848  2.1408  0.7078
 2891TIP3   OH230163   2.972   4.872  16.356 -0.2911 -0.0371  0.1503
 2891TIP3    H130164   2.973   4.780  16.382  0.7075  0.2184  1.0756
 2891TIP3    H230165   3.056   4.885  16.313 -0.6228  0.3293 -0.3794
 2892TIP3   OH230166   3.492   4.739   4.376  0.9169 -0.4482  0.8784
 2892TIP3    H130167   3.556   4.670   4.356  1.1658  0.0206  0.0731
 2892TIP3    H230168   3.411   4.708   4.336  0.9285 -0.4652  0.8675
 2893TIP3   OH230169   5.464   2.340  14.785  0.1124 -0.3157 -0.4253
 2893TIP3    H130170   5.472   2.254  14.743 -1.7237 -1.5117  1.5695
 2893TIP3    H230171   5.375   2.340  14.822  0.1904  2.3402 -0.1615
 2894TIP3   OH230172   1.469   0.483  16.645  0.2011  0.6418 -0.0391
 2894TIP3    H130173   1.438   0.536  16.572  1.5631  2.0342  0.3652
 2894TIP3    H230174   1.434   0.526  16.723 -0.2849 -0.1676  0.1916
 2895TIP3   OH230175   2.211   6.315   1.827  0.0554 -0.1842 -0.2590
 2895TIP3    H130176   2.266   6.287   1.900  0.0760 -1.1436 -0.6306
 2895TIP3    H230177   2.152   6.242   1.811 -0.0786  0.0904 -1.0782
 2896TIP3   OH230178   1.707   6.685   6.787  0.0646 -0.0874 -0.5735
 2896TIP3    H130179   1.786   6.734   6.807  0.8755 -0.7767 -1.9931
 2896TIP3    H230180   1.717   6.659   6.696 -1.5943 -0.5715 -0.6423
 2897TIP3   OH230181   2.331   2.840   2.849  0.5296  0.2174 -0.1481
 2897TIP3    H130182   2.304   2.750   2.834  0.4030  0.1037  0.7525
 2897TIP3    H230183   2.331   2.850   2.944 -0.3184  1.4294 -0.2621
 2898TIP3   OH230184   0.769   1.363   1.247  0.2625  0.3532 -0.2161
 2898TIP3    H130185   0.717   1.441   1.267 -2.3942 -1.4481  0.3331
 2898TIP3    H230186   0.757   1.349   1.153  1.6337  1.2125 -0.5225
 2899TIP3   OH230187   4.434   6.508  15.101 -0.0256 -0.0416  0.5800
 2899TIP3    H130188   4.428   6.422  15.060  0.8988  1.4675 -2.9111
 2899TIP3    H230189   4.358   6.556  15.067 -1.0524  0.2335  3.2235
 2900TIP3   OH230190   2.232   4.972  16.319  0.0608  0.7713  0.2132
 2900TIP3    H130191   2.214   5.006  16.407  1.0561  1.7362  0.0637
 2900TIP3    H230192   2.172   5.020  16.262  0.6603  1.4644  0.1518
 2901TIP3   OH230193   1.969   1.466  16.634  0.4024  0.4509 -0.0060
 2901TIP3    H130194   1.912   1.450  16.559 -0.8448  2.2285  0.5151
 2901TIP3    H230195   1.935   1.548  16.672  1.5922  0.0687  1.9272
 2902TIP3   OH230196   0.876   1.524  13.295  0.1304  0.7921 -0.0241
 2902TIP3    H130197   0.932   1.546  13.221  0.7232 -1.0516 -0.1332
 2902TIP3    H230198   0.937   1.501  13.366 -0.4667  0.1476  0.2866
 2903TIP3   OH230199   4.334   4.203  14.627 -0.4904  0.4006 -0.2190
 2903TIP3    H130200   4.347   4.298  14.637  0.5687  0.1813  0.5248
 2903TIP3    H230201   4.416   4.164  14.657 -0.8524 -0.7522 -0.6928
 2904TIP3   OH230202   6.809   6.019   5.676  0.0764  0.0379 -0.7164
 2904TIP3    H130203   6.904   6.026   5.677  0.0800 -0.0392 -0.5334
 2904TIP3    H230204   6.782   6.064   5.595  0.0578  3.0159  0.8676
 2905TIP3   OH230205   5.363   2.413  16.119  0.2311  0.1264 -0.1481
 2905TIP3    H130206   5.436   2.372  16.165  0.5406  0.4560 -0.3429
 2905TIP3    H230207   5.400   2.493  16.082  0.2709 -0.6776 -1.9212
 2906TIP3   OH230208   1.028   5.106   0.216 -0.4389  0.3947  0.5041
 2906TIP3    H130209   1.016   5.023   0.261 -2.8651 -0.3950 -1.4390
 2906TIP3    H230210   1.068   5.083   0.132  1.6717  1.5396  1.1783
 2907TIP3   OH230211   6.648   5.032  12.163 -0.7770  0.1146 -0.0143
 2907TIP3    H130212   6.735   5.065  12.185 -0.1911 -1.3222 -0.1383
 2907TIP3    H230213   6.588   5.092  12.208  0.2380  1.5961 -0.5838
 2908TIP3   OH230214   0.732   1.570  16.892 -0.2581  0.0858  0.4141
 2908TIP3    H130215   0.752   1.477  16.880  1.0291  0.5013 -0.8554
 2908TIP3    H230216   0.638   1.572  16.909 -0.5365 -1.3429 -0.8112
 2909TIP3   OH230217   0.157   0.181   5.168 -0.3597 -0.1722 -0.1264
 2909TIP3    H130218   0.064   0.166   5.155 -0.2962 -0.6114 -0.0776
 2909TIP3    H230219   0.162   0.267   5.211 -0.7409 -0.1615 -0.1066
 2910TIP3   OH230220   3.835   4.549  14.730  0.0142 -0.5959  0.0982
 2910TIP3    H130221   3.757   4.496  14.712 -1.2045  1.4555 -0.9140
 2910TIP3    H230222   3.895   4.529  14.659  0.0287 -1.4514  0.3451
 2911TIP3   OH230223   4.172   1.283   2.117 -0.2002  0.3767  0.0535
 2911TIP3    H130224   4.133   1.209   2.070 -0.9502 -0.0092  1.2587
 2911TIP3    H230225   4.168   1.258   2.209 -0.0585  1.7318  0.4431
 2912TIP3   OH230226   4.282   1.458  14.253 -0.2721 -0.0996  0.5856
 2912TIP3    H130227   4.316   1.386  14.307 -1.3346 -0.9683  0.1088
 2912TIP3    H230228   4.308   1.436  14.164  1.9073  1.5874  0.7800
 2913TIP3   OH230229   5.014   3.058  12.379 -0.1123 -0.0885 -0.0326
 2913TIP3    H130230   5.057   3.029  12.299 -1.0742 -0.5733 -0.3840
 2913TIP3    H230231   5.075   3.036  12.449  0.4394 -0.2842 -0.5751
 2914TIP3   OH230232   1.584   3.846  10.992 -0.0155  0.7345 -0.2778
 2914TIP3    H130233   1.505   3.817  10.948  0.7818 -1.8844 -0.0459
 2914TIP3    H230234   1.655   3.818  10.935  0.8240  1.6317  0.3117
 2915TIP3   OH230235   6.590   2.372  12.516  0.0831  0.0122  0.4024
 2915TIP3    H130236   6.495   2.363  12.508  0.1318  0.5538 -0.9569
 2915TIP3    H230237   6.604   2.415  12.600 -0.9250  0.8965  0.1164
 2916TIP3   OH230238   0.745   5.352   4.633 -0.4346  0.2851  0.1453
 2916TIP3    H130239   0.797   5.275   4.656  2.7377  1.5528 -2.4636
 2916TIP3    H230240   0.726   5.394   4.717  1.5096 -0.9748  1.2520
 2917TIP3   OH230241   5.064   6.181   4.863 -0.3286  0.2344  0.5792
 2917TIP3    H130242   4.998   6.248   4.883 -1.8484 -0.8610 -0.6249
 2917TIP3    H230243   5.107   6.213   4.783 -0.9066 -0.1278  0.1249
 2918TIP3   OH230244   1.104   2.757  11.463  0.1919 -0.2416 -0.7524
 2918TIP3    H130245   1.185   2.807  11.467  1.3175 -2.1717  1.3252
 2918TIP3    H230246   1.039   2.814  11.506  1.6079 -0.7524  2.2005
 2919TIP3   OH230247   3.339   1.978  16.888  0.7483 -0.3337  0.2891
 2919TIP3    H130248   3.319   2.027  16.809  0.2373 -0.6552  0.2200
 2919TIP3    H230249   3.255   1.946  16.920  1.3683 -4.2734 -1.6972
 2920TIP3   OH230250   4.098   0.578  12.802 -0.3026 -0.1892 -0.3411
 2920TIP3    H130251   4.174   0.614  12.848  0.4782 -2.3807  0.1616
 2920TIP3    H230252   4.134   0.541  12.722 -1.1648  0.6726 -1.1277
 2921TIP3   OH230253   1.012   5.494  16.976  0.5744 -0.0185 -0.4736
 2921TIP3    H130254   0.956   5.417  16.971 -1.0959  1.2064 -0.8821
 2921TIP3    H230255   0.981   5.542  17.052  0.2693  1.2821 -1.4097
 2922TIP3   OH230256   1.097   5.592  11.575 -0.0744 -0.4150 -0.1324
 2922TIP3    H130257   1.086   5.498  11.588 -1.6938 -0.2725 -0.2946
 2922TIP3    H230258   1.012   5.621  11.542 -0.2170  1.4170  1.7094
 2923TIP3   OH230259   5.363   5.984   2.049 -0.7128  0.0957 -0.1871
 2923TIP3    H130260   5.273   6.007   2.071 -0.6865 -0.3689  0.4071
 2923TIP3    H230261   5.385   5.911   2.107  0.7309  1.5299  1.1227
 2924TIP3   OH230262   0.971   5.798   1.877 -0.3420 -0.0519  0.1187
 2924TIP3    H130263   1.060   5.773   1.853 -0.6143  0.4802 -1.4926
 2924TIP3    H230264   0.958   5.760   1.964  1.0205 -1.1809 -0.1565
 2925TIP3   OH230265   2.389   1.753   3.218  1.1705 -0.0142  0.2458
 2925TIP3    H130266   2.304   1.746   3.177  1.1453 -0.7995  0.4076
 2925TIP3    H230267   2.373   1.798   3.301  0.8321 -0.5779  0.4897
 2926TIP3   OH230268   4.984   1.916   6.110 -0.1773  0.5827  0.8949
 2926TIP3    H130269   5.045   1.843   6.122 -1.7095 -0.4370  2.6942
 2926TIP3    H230270   4.995   1.970   6.188  1.5801  2.8243 -0.8243
 2927TIP3   OH230271   4.866   0.810   4.725 -0.0089 -0.7403 -0.5486
 2927TIP3    H130272   4.959   0.793   4.710  0.5641  0.3470  1.6187
 2927TIP3    H230273   4.842   0.751   4.796 -0.8421 -0.6252 -0.7354
 2928TIP3   OH230274   1.139   2.239  13.493 -0.3838 -0.4438 -0.3622
 2928TIP3    H130275   1.181   2.201  13.571  0.3682  1.3254  0.1144
 2928TIP3    H230276   1.190   2.205  13.420 -1.2526 -2.3347 -0.1242
 2929TIP3   OH230277   1.780   6.386   0.567 -0.2496  0.8468  0.6516
 2929TIP3    H130278   1.704   6.342   0.606  0.1470 -0.1055  0.3582
 2929TIP3    H230279   1.845   6.389   0.637  0.2016 -0.2207  0.2854
 2930TIP3   OH230280   5.370   4.689   0.268 -0.1147  0.6168  0.1784
 2930TIP3    H130281   5.282   4.711   0.297 -0.5645 -1.1552  0.2157
 2930TIP3    H230282   5.419   4.674   0.349 -0.7833 -2.1219  0.0996
 2931TIP3   OH230283   2.357   3.734   2.098  0.0611 -0.0424  0.4965
 2931TIP3    H130284   2.436   3.707   2.143 -0.5834  1.0737  2.3700
 2931TIP3    H230285   2.318   3.653   2.065  1.5317 -0.6714  0.3021
 2932TIP3   OH230286   0.548   0.085   1.291 -0.0283  0.0202 -0.5622
 2932TIP3    H130287   0.537   0.146   1.365  1.3263 -0.4594  0.0588
 2932TIP3    H230288   0.547   0.142   1.214  1.6936  0.9296  0.0394
 2933TIP3   OH230289   3.210   1.183  16.593 -0.9341 -0.0126  0.0627
 2933TIP3    H130290   3.122   1.195  16.629 -1.0260 -0.1075 -0.1291
 2933TIP3    H230291   3.249   1.117  16.650 -0.1062  1.8333  1.6717
 2934TIP3   OH230292   4.498   5.528  14.899  0.3283 -0.0213 -0.4465
 2934TIP3    H130293   4.447   5.595  14.944  2.5723  3.1815 -2.4736
 2934TIP3    H230294   4.476   5.538  14.806  1.3110 -1.5307 -0.8705
 2935TIP3   OH230295   4.055   6.442  15.149 -0.0611  0.1436 -0.4648
 2935TIP3    H130296   4.074   6.457  15.057 -0.6246  0.0560 -0.6015
 2935TIP3    H230297   4.006   6.519  15.177  2.6524  1.5428  0.5522
 2936TIP3   OH230298   4.743   2.994  16.371 -0.3097  0.3067 -0.1272
 2936TIP3    H130299   4.796   2.985  16.291 -0.2813  0.3198 -0.1090
 2936TIP3    H230300   4.807   3.007  16.441 -0.2366 -1.6746  0.1876
 2937TIP3   OH230301   1.143   3.263  14.203 -0.4209 -0.2677  0.0256
 2937TIP3    H130302   1.100   3.271  14.118 -0.4275 -0.7450 -0.0199
 2937TIP3    H230303   1.087   3.204  14.254 -0.4277  0.0286  0.3670
 2938TIP3   OH230304   2.467   1.949   2.666 -0.1787 -0.1528  0.2876
 2938TIP3    H130305   2.522   1.990   2.599 -1.0205 -0.7615 -0.8079
 2938TIP3    H230306   2.469   1.855   2.644 -0.2128 -0.3983  1.3042
 2939TIP3   OH230307   0.360   1.295  12.258 -0.0623 -0.6150 -1.0323
 2939TIP3    H130308   0.321   1.242  12.188 -0.2359 -1.9028  0.0163
 2939TIP3    H230309   0.396   1.231  12.319 -2.6955  0.3888  1.6806
 2940TIP3   OH230310   5.928   2.618   0.391 -0.2120 -0.6700 -0.0969
 2940TIP3    H130311   5.942   2.527   0.419  0.7175 -0.3082  0.6344
 2940TIP3    H230312   5.999   2.635   0.329  0.8675  0.2374  1.3835
 2941TIP3   OH230313   3.140   2.963   0.559 -0.0127  0.2874 -0.3782
 2941TIP3    H130314   3.226   2.991   0.588 -1.0896  0.4309  2.9512
 2941TIP3    H230315   3.113   2.898   0.624 -2.0915 -0.3268 -1.7995
 2942TIP3   OH230316   1.121   3.960   4.935 -0.6645  0.4234  0.0879
 2942TIP3    H130317   1.058   4.029   4.913 -0.5351  0.1130 -1.2868
 2942TIP3    H230318   1.207   3.998   4.917 -0.5981 -0.1222 -0.7799
 2943TIP3   OH230319   0.870   3.269  12.858 -0.0807 -0.3818  0.6194
 2943TIP3    H130320   0.838   3.233  12.775  0.2071 -0.2266  0.4398
 2943TIP3    H230321   0.791   3.282  12.911 -0.5441  1.9454 -0.5858
 2944TIP3   OH230322   4.129   0.769  13.134  0.1918 -0.1817  0.2962
 2944TIP3    H130323   4.206   0.740  13.085 -0.0454 -0.2470 -0.0423
 2944TIP3    H230324   4.076   0.815  13.069 -0.1867 -0.3797  0.4627
 2945TIP3   OH230325   0.354   1.976  15.257 -0.5000  0.6698  0.3803
 2945TIP3    H130326   0.369   1.905  15.320 -1.1696  1.2723  1.2360
 2945TIP3    H230327   0.365   1.935  15.171 -3.3519 -1.1049  0.7764
 2946TIP3   OH230328   1.836   3.820   4.946 -0.5363  0.3854 -0.0875
 2946TIP3    H130329   1.780   3.896   4.965 -0.3934  0.5827 -0.4507
 2946TIP3    H230330   1.861   3.787   5.032 -2.4823 -0.6550  0.1021
 2947TIP3   OH230331   0.593   3.214  11.363 -0.0188 -0.4936 -0.3903
 2947TIP3    H130332   0.660   3.153  11.332 -0.3347 -0.1699 -1.7630
 2947TIP3    H230333   0.583   3.276  11.291 -1.3929 -0.2169  0.0341
 2948TIP3   OH230334   0.125   0.661  14.375  0.0344  0.7808  0.4621
 2948TIP3    H130335   0.173   0.600  14.430  0.2672 -0.9048 -1.5466
 2948TIP3    H230336   0.156   0.643  14.286 -1.2006  2.6053 -0.3820
 2949TIP3   OH230337   1.950   1.678   1.441  0.3732  0.2061  0.2483
 2949TIP3    H130338   1.897   1.675   1.361  2.2630  1.9606 -1.1149
 2949TIP3    H230339   1.931   1.764   1.480  0.1042 -0.2971  1.2564
 2950TIP3   OH230340   4.931   4.542   2.863 -0.6747 -0.5970 -0.3574
 2950TIP3    H130341   4.888   4.514   2.944 -1.7853  1.8734 -0.0393
 2950TIP3    H230342   4.955   4.633   2.879 -0.9770 -0.0503 -2.8444
 2951TIP3   OH230343   0.209   3.382   3.679 -0.2691  1.1732 -0.2729
 2951TIP3    H130344   0.301   3.406   3.681  0.0800 -0.2006  0.7792
 2951TIP3    H230345   0.209   3.286   3.684 -1.8073  1.2389  1.5987
 2952TIP3   OH230346   0.156   4.758   4.609 -0.1282  0.8653 -0.1010
 2952TIP3    H130347   0.173   4.852   4.598  0.7504  0.6798 -0.3328
 2952TIP3    H230348   0.237   4.723   4.646 -0.5581  0.2467  0.2608
 2953TIP3   OH230349   2.269   1.058   3.819 -0.0375 -0.2824  0.3000
 2953TIP3    H130350   2.267   1.129   3.756  1.1787 -0.7594 -0.2958
 2953TIP3    H230351   2.252   0.979   3.768  0.6493 -0.6397  0.6125
 2954TIP3   OH230352   4.928   3.907  12.064 -0.9191 -0.7717 -0.5408
 2954TIP3    H130353   4.844   3.861  12.059 -0.2935 -1.7449 -2.6034
 2954TIP3    H230354   4.983   3.851  12.118 -0.8828 -1.2919 -1.1130
 2955TIP3   OH230355   2.139   2.759   3.580 -0.0011  0.4059  0.2237
 2955TIP3    H130356   2.209   2.760   3.645  0.1899 -0.9408  0.0538
 2955TIP3    H230357   2.151   2.676   3.533 -0.0752  1.4178 -1.6035
 2956TIP3   OH230358   3.513   2.162  12.240  0.6665 -0.0440 -0.0120
 2956TIP3    H130359   3.421   2.181  12.262  0.9012  0.6291  0.3890
 2956TIP3    H230360   3.527   2.208  12.157  0.5400 -0.4432 -0.2590
 2957TIP3   OH230361   2.784   0.561   5.624  0.2568  0.0764 -0.1455
 2957TIP3    H130362   2.696   0.572   5.660  0.1532 -1.5801  0.1609
 2957TIP3    H230363   2.843   0.579   5.697  0.1185 -0.4976  0.1108
 2958TIP3   OH230364   6.036   5.209   2.897 -0.1493  0.6799 -0.3695
 2958TIP3    H130365   6.064   5.228   2.986  0.1136 -1.9907  0.1575
 2958TIP3    H230366   5.972   5.278   2.877 -0.2827  1.2602  1.8903
 2959TIP3   OH230367   4.706   3.706   0.258  0.2219 -0.2237  0.3931
 2959TIP3    H130368   4.613   3.710   0.237  0.2876  1.4800  0.4213
 2959TIP3    H230369   4.744   3.782   0.214  1.4073 -0.2151  1.4178
 2960TIP3   OH230370   2.650   3.961   0.717 -0.1503  0.4683  0.1049
 2960TIP3    H130371   2.614   3.889   0.667  0.4933  0.6967 -0.6883
 2960TIP3    H230372   2.726   3.923   0.762 -1.2058  0.0519  1.5759
 2961TIP3   OH230373   5.400   1.981   4.210 -0.1013 -0.4664 -0.0015
 2961TIP3    H130374   5.494   1.988   4.229  0.0541  1.6012 -1.3619
 2961TIP3    H230375   5.378   2.066   4.172 -2.0704 -1.7130 -1.7040
 2962TIP3   OH230376   2.508   6.159   6.017 -0.0463 -0.4461  0.1051
 2962TIP3    H130377   2.420   6.175   5.983 -0.4698  1.8706  2.1823
 2962TIP3    H230378   2.497   6.092   6.084 -0.4720  0.7861  1.2935
 2963TIP3   OH230379   2.048   5.362  15.209 -0.1077 -0.0459  0.0036
 2963TIP3    H130380   2.050   5.279  15.257  0.2574  0.2444  0.5023
 2963TIP3    H230381   2.076   5.427  15.274  3.7489 -0.0854 -1.4968
 2964TIP3   OH230382   1.305   4.312   0.408  0.4088 -0.4055 -0.2084
 2964TIP3    H130383   1.322   4.366   0.485 -1.0318  0.3633 -0.4306
 2964TIP3    H230384   1.287   4.225   0.444 -2.1989  0.3771  0.4648
 2965TIP3   OH230385   1.987   0.520  13.188  0.0370 -0.2252 -0.0531
 2965TIP3    H130386   1.917   0.534  13.124 -0.0607 -0.4168  0.0113
 2965TIP3    H230387   1.946   0.537  13.273 -0.0822 -0.8892  0.0265
 2966TIP3   OH230388   4.475   2.691  15.618 -0.5647  0.2918  1.0662
 2966TIP3    H130389   4.435   2.699  15.531  0.1718  0.5684  0.7510
 2966TIP3    H230390   4.544   2.757  15.619 -1.0911  0.8348  2.1602
 2967TIP3   OH230391   6.185   1.312   0.337  0.1169  0.3487  0.2137
 2967TIP3    H130392   6.267   1.362   0.331 -0.1217  0.6034 -1.0709
 2967TIP3    H230393   6.212   1.221   0.321  0.4917  0.1077  2.1541
 2968TIP3   OH230394   2.886   4.954  17.058 -0.2895  0.7831 -0.1810
 2968TIP3    H130395   2.950   4.986  17.123 -1.5906  0.4494  1.2996
 2968TIP3    H230396   2.806   5.003  17.078 -1.4065 -1.0883  0.0701
 2969TIP3   OH230397   3.827   6.202  13.737 -0.6922  0.7702  0.2332
 2969TIP3    H130398   3.860   6.202  13.648  1.4030 -0.1810  0.9835
 2969TIP3    H230399   3.740   6.164  13.731  0.1672 -1.0370 -1.1428
 2970TIP3   OH230400   1.117   0.291  14.908  0.0257 -0.1016  0.2476
 2970TIP3    H130401   1.038   0.236  14.912 -0.0025 -0.2836 -2.2570
 2970TIP3    H230402   1.109   0.350  14.984 -1.4590 -1.4994  1.2117
 2971TIP3   OH230403   3.388   0.974  16.697  0.7500 -0.1659  0.5471
 2971TIP3    H130404   3.349   0.944  16.779  0.7856  0.6443  0.8673
 2971TIP3    H230405   3.438   0.899  16.665  0.1001 -0.7341  0.8710
 2972TIP3   OH230406   5.212   5.857   0.663 -0.2908 -0.1158  0.3127
 2972TIP3    H130407   5.189   5.770   0.696  2.2729 -1.1463 -0.4859
 2972TIP3    H230408   5.260   5.898   0.734 -0.9225  0.4055  0.4440
 2973TIP3   OH230409   5.427   6.183  13.470 -0.2885  0.1147  0.5619
 2973TIP3    H130410   5.425   6.215  13.560  1.0491  1.4505  0.1215
 2973TIP3    H230411   5.335   6.183  13.442 -0.4549  2.0313  1.0993
 2974TIP3   OH230412   6.426   1.866  17.029 -0.7119 -0.1654  0.2254
 2974TIP3    H130413   6.381   1.940  17.069 -3.0534  0.9994 -4.2155
 2974TIP3    H230414   6.361   1.797  17.026 -0.8722  0.0312 -2.1345
 2975TIP3   OH230415   1.221   0.775   3.789 -0.3429  0.1003  0.7976
 2975TIP3    H130416   1.312   0.775   3.762 -0.1253  1.0810  1.4961
 2975TIP3    H230417   1.205   0.686   3.820 -0.1518 -0.5927 -1.0062
 2976TIP3   OH230418   5.685   1.441  13.308 -0.3485 -0.4150  0.5638
 2976TIP3    H130419   5.685   1.536  13.318 -0.8764 -0.3336 -0.1024
 2976TIP3    H230420   5.632   1.426  13.229 -0.5036 -1.2759  0.8272
 2977TIP3   OH230421   1.109   0.622  15.055 -0.4207 -0.0373 -0.2155
 2977TIP3    H130422   1.030   0.632  15.003 -0.0777 -0.9855 -0.9327
 2977TIP3    H230423   1.078   0.620  15.146 -1.1321  0.3967 -0.4417
 2978TIP3   OH230424   2.337   4.108   2.493 -1.0939 -0.3602 -0.1743
 2978TIP3    H130425   2.317   4.077   2.582  2.7791  1.0115  1.2639
 2978TIP3    H230426   2.353   4.028   2.443 -0.1886 -1.0555  1.1979
 2979TIP3   OH230427   5.709   3.416   6.738  0.5077  0.3934 -0.4867
 2979TIP3    H130428   5.752   3.488   6.692 -0.4689 -0.0928 -2.2015
 2979TIP3    H230429   5.676   3.359   6.668 -0.4316 -0.7068  0.8237
 2980TIP3   OH230430   0.611   3.421   1.994 -0.2313  0.1814 -0.2723
 2980TIP3    H130431   0.580   3.485   2.058  1.9167  1.9458 -0.9576
 2980TIP3    H230432   0.544   3.352   1.995 -0.2668  0.1819  3.8109
 2981TIP3   OH230433   1.047   4.228  12.627  0.1832 -0.1915  0.3155
 2981TIP3    H130434   0.980   4.177  12.582 -0.9140  0.4574  1.1970
 2981TIP3    H230435   1.047   4.194  12.717  2.5999 -1.7193 -0.2118
 2982TIP3   OH230436   5.475   1.943   5.538  0.4671 -0.3185 -0.7676
 2982TIP3    H130437   5.536   2.015   5.555 -1.4391  1.7112 -2.2747
 2982TIP3    H230438   5.443   1.917   5.624 -2.2939  3.7814 -0.4218
 2983TIP3   OH230439   4.265   0.763  10.622  0.7099  0.1351  0.2092
 2983TIP3    H130440   4.204   0.689  10.615  1.5986 -0.7918  1.7846
 2983TIP3    H230441   4.235   0.811  10.700  1.1419  0.4708  0.1732
 2984TIP3   OH230442   2.779   2.014  11.173 -0.1159 -0.6442  0.4200
 2984TIP3    H130443   2.744   1.955  11.106 -0.7183 -0.7805  0.8471
 2984TIP3    H230444   2.762   1.970  11.256  2.2003 -1.2843  0.5885
 2985TIP3   OH230445   2.816   1.333   2.592  0.1687  0.1465  0.0157
 2985TIP3    H130446   2.803   1.325   2.498  1.0179  0.3100 -0.1206
 2985TIP3    H230447   2.801   1.244   2.626 -1.9864  0.4802 -0.0299
 2986TIP3   OH230448   6.048   6.610   3.675  0.0298  0.3082 -0.0381
 2986TIP3    H130449   6.076   6.533   3.724 -1.2156  0.6969  1.3102
 2986TIP3    H230450   5.959   6.591   3.647  1.0170 -0.2708 -2.9667
 2987TIP3   OH230451   1.707   0.630   1.231  0.2393  0.2496 -0.2900
 2987TIP3    H130452   1.685   0.548   1.276 -0.5649  0.9021  0.5403
 2987TIP3    H230453   1.801   0.623   1.212 -0.2443 -1.7641 -2.1429
 2988TIP3   OH230454   4.543   0.289  13.441  0.1508 -0.1218  0.1991
 2988TIP3    H130455   4.476   0.293  13.373  0.0648 -0.8213  0.2357
 2988TIP3    H230456   4.569   0.196  13.443  1.9929  0.3509 -0.6684
 2989TIP3   OH230457   3.827   0.764  15.061  0.1214  0.0308 -0.4280
 2989TIP3    H130458   3.755   0.702  15.068 -0.3940  0.7651  1.3484
 2989TIP3    H230459   3.887   0.739  15.132 -0.3086  1.7932  0.5842
 2990TIP3   OH230460   0.654   1.023  12.902  0.6546  0.1113  0.1757
 2990TIP3    H130461   0.629   1.024  12.995  0.2378 -2.6188  0.1220
 2990TIP3    H230462   0.744   0.990  12.902 -0.1637 -2.1787 -0.5419
 2991TIP3   OH230463   0.795   4.941  11.465 -0.7698  0.0114 -0.3137
 2991TIP3    H130464   0.868   5.003  11.466  0.9033 -1.8935 -1.4083
 2991TIP3    H230465   0.794   4.906  11.376 -1.7591 -1.4507  0.2486
 2992TIP3   OH230466   6.104   4.184  14.563  0.0159  0.0403 -0.2900
 2992TIP3    H130467   6.186   4.147  14.531 -0.2278 -0.2449 -0.5769
 2992TIP3    H230468   6.094   4.266  14.514  1.6958  1.6601  1.9069
 2993TIP3   OH230469   4.386   1.590   3.149 -0.4695  0.0412 -0.4449
 2993TIP3    H130470   4.406   1.660   3.087  0.0793  0.9463  0.7473
 2993TIP3    H230471   4.330   1.631   3.215  1.0582 -0.2554  1.0611
 2994TIP3   OH230472   1.745   6.372  15.972 -0.4246 -0.8072 -0.0400
 2994TIP3    H130473   1.820   6.319  15.944 -0.1640 -0.2311 -0.4510
 2994TIP3    H230474   1.676   6.309  15.989  0.0557 -1.3233  0.0211
 2995TIP3   OH230475   1.028   4.565  13.535  0.2176 -0.0063  0.7714
 2995TIP3    H130476   1.059   4.493  13.480 -2.2355 -0.8281  0.3675
 2995TIP3    H230477   1.081   4.640  13.510  0.2816 -0.7863 -1.5039
 2996TIP3   OH230478   2.439   4.656  10.559 -0.2364 -0.1334 -0.1172
 2996TIP3    H130479   2.381   4.701  10.498  2.5114  2.1706 -1.1273
 2996TIP3    H230480   2.383   4.631  10.632 -3.3254 -1.7649 -2.9429
 2997TIP3   OH230481   0.268   3.267   5.229  0.5348 -0.6196  0.3083
 2997TIP3    H130482   0.215   3.197   5.266  0.9474 -0.6112  0.9187
 2997TIP3    H230483   0.244   3.268   5.136  0.8778 -1.8760  0.1974
 2998TIP3   OH230484   1.709   0.620  10.796 -0.5609  0.4676 -0.2888
 2998TIP3    H130485   1.629   0.640  10.845  0.0377 -0.7118  1.2137
 2998TIP3    H230486   1.699   0.529  10.769 -0.1337  0.6029 -0.9150
 2999TIP3   OH230487   4.911   0.931  13.177 -0.3346 -0.2991 -0.1599
 2999TIP3    H130488   4.892   0.945  13.084 -0.8308 -1.1714 -0.2049
 2999TIP3    H230489   4.954   1.011  13.206  0.3016 -0.2334 -1.2746
 3000TIP3   OH230490   6.153   3.860  16.291 -0.1501  0.2318 -0.1324
 3000TIP3    H130491   6.068   3.817  16.298 -0.5839  0.9758 -0.6169
 3000TIP3    H230492   6.135   3.938  16.238  0.2501  1.9121  2.1448
 3001TIP3   OH230493   2.304   6.643  16.293  0.0298  0.3193 -0.1918
 3001TIP3    H130494   2.214   6.675  16.283 -0.1397 -0.1240 -0.1005
 3001TIP3    H230495   2.353   6.717  16.328 -0.1366  0.8012 -0.9812
 3002TIP3   OH230496   1.584   1.781   6.586  0.0871  0.4495 -0.3505
 3002TIP3    H130497   1.510   1.789   6.646 -0.1126  0.1796 -0.5629
 3002TIP3    H230498   1.635   1.708   6.621 -0.6911 -0.5148 -1.2235
 3003TIP3   OH230499   6.500   0.399   1.052  0.2037 -0.5935 -0.2533
 3003TIP3    H130500   6.453   0.482   1.059  0.4203 -0.4119 -0.9044
 3003TIP3    H230501   6.441   0.334   1.090  0.1567 -0.0929  0.5298
 3004TIP3   OH230502   2.090   0.721   5.555 -0.6231 -0.6669 -0.2774
 3004TIP3    H130503   2.155   0.660   5.592  0.4336  0.5094 -0.1550
 3004TIP3    H230504   2.142   0.791   5.515 -1.7996  1.1312  1.2185
 3005TIP3   OH230505   1.483   4.332   4.757 -0.0314  0.6232 -0.0872
 3005TIP3    H130506   1.530   4.314   4.675  0.7348 -1.9690  0.8643
 3005TIP3    H230507   1.540   4.391   4.805  1.4456 -1.0424  0.2604
 3006TIP3   OH230508   5.263   0.292  11.516  0.2895  0.3980  0.0891
 3006TIP3    H130509   5.250   0.207  11.558  0.7164  0.4141  0.2590
 3006TIP3    H230510   5.322   0.274  11.443  0.7654  0.6286  0.4129
 3007TIP3   OH230511   5.423   4.894  16.738  0.1523 -0.2418 -0.2288
 3007TIP3    H130512   5.353   4.947  16.775  0.3681  0.0771 -0.2666
 3007TIP3    H230513   5.418   4.811  16.784 -0.5219 -0.3731 -0.5321
 3008TIP3   OH230514   5.953   1.172   3.634 -0.0023  0.1850 -0.0443
 3008TIP3    H130515   5.867   1.208   3.613 -0.2346 -0.0051  0.5789
 3008TIP3    H230516   5.976   1.211   3.718 -0.3898 -1.3393  0.7856
 3009TIP3   OH230517   1.194   4.436  15.816  0.0120 -0.2083  0.0695
 3009TIP3    H130518   1.210   4.523  15.778  0.8039 -0.2147  0.3867
 3009TIP3    H230519   1.184   4.379  15.740  1.3246 -0.1685 -0.1310
 3010TIP3   OH230520   3.757   6.505  14.260  0.0761 -0.1499  0.1799
 3010TIP3    H130521   3.689   6.573  14.261  0.9685  0.7542  0.1990
 3010TIP3    H230522   3.728   6.442  14.326 -0.6948  0.2765  0.2646
 3011TIP3   OH230523   5.274   6.496  15.331 -0.2414 -0.1266  0.0804
 3011TIP3    H130524   5.209   6.565  15.316 -1.5889 -1.6971 -1.6793
 3011TIP3    H230525   5.265   6.474  15.423 -0.2818  1.5412  0.5022
 3012TIP3   OH230526   6.619   5.919  12.428  0.2017 -0.7003  0.5519
 3012TIP3    H130527   6.637   5.895  12.337  0.6733 -1.6078  0.8778
 3012TIP3    H230528   6.540   5.870  12.450 -0.1845 -0.1114  0.4871
 3013TIP3   OH230529   0.413   5.529   0.804 -0.2773  0.2784 -0.4857
 3013TIP3    H130530   0.421   5.489   0.718 -2.6880  1.5394 -1.3383
 3013TIP3    H230531   0.365   5.611   0.788 -2.8496 -0.5859  2.3388
 3014TIP3   OH230532   4.430   1.479  16.664  0.0520  0.2398  0.4193
 3014TIP3    H130533   4.402   1.560  16.622 -2.0015 -1.0067 -0.6903
 3014TIP3    H230534   4.523   1.471  16.641 -0.1836  1.3415 -0.9922
 3015TIP3   OH230535   6.445   4.385   4.222 -0.2005 -0.6692  0.3478
 3015TIP3    H130536   6.419   4.373   4.131  0.2227  0.8371  0.0025
 3015TIP3    H230537   6.375   4.346   4.273 -1.2808 -0.0200 -0.6125
 3016TIP3   OH230538   1.738   5.008  10.757 -0.7175  0.1024  0.6351
 3016TIP3    H130539   1.655   5.016  10.709 -0.3586 -1.2694 -0.2356
 3016TIP3    H230540   1.721   4.940  10.823  0.5184 -2.2162 -1.3623
 3017TIP3   OH230541   1.713   3.233   5.834 -0.5628  0.3714 -0.0504
 3017TIP3    H130542   1.621   3.258   5.824 -1.0452 -1.5390 -0.6279
 3017TIP3    H230543   1.713   3.175   5.910 -0.0849 -0.8299 -0.9651
 3018TIP3   OH230544   3.947   0.352   0.159 -0.0692 -0.5922  0.4599
 3018TIP3    H130545   3.976   0.315   0.242  0.1841  0.0847  0.6812
 3018TIP3    H230546   3.861   0.389   0.177  0.4857  0.6116  0.7435
 3019TIP3   OH230547   6.197   3.774  15.069  0.0598 -0.0548 -0.4235
 3019TIP3    H130548   6.106   3.805  15.069  1.1283  3.2943  0.1720
 3019TIP3    H230549   6.237   3.820  14.994  1.5459 -0.5910  0.0340
 3020TIP3   OH230550   0.636   1.796  15.243  0.0439 -0.5482 -0.0513
 3020TIP3    H130551   0.668   1.885  15.232  0.1274 -0.5552  0.1339
 3020TIP3    H230552   0.662   1.751  15.163 -0.3599 -0.2989 -0.3209
 3021TIP3   OH230553   4.166   1.932  10.370  0.0028  0.1560  0.4496
 3021TIP3    H130554   4.246   1.905  10.414  0.1111 -1.0829 -0.4501
 3021TIP3    H230555   4.195   1.994  10.303  0.4786 -1.5798 -1.0226
 3022TIP3   OH230556   6.137   2.797  16.488 -0.4198  0.6269 -0.2943
 3022TIP3    H130557   6.205   2.730  16.486 -1.6429 -0.7325  1.3805
 3022TIP3    H230558   6.112   2.808  16.396  0.3153 -0.6876 -0.6733
 3023TIP3   OH230559   2.544   4.895   2.849  0.1755  0.0841 -0.7990
 3023TIP3    H130560   2.532   4.817   2.902  1.0282  0.1672 -0.4643
 3023TIP3    H230561   2.597   4.866   2.775 -0.0067  0.2153 -0.9805
 3024TIP3   OH230562   6.793   5.063  16.627  0.0679  0.4108 -0.1273
 3024TIP3    H130563   6.765   5.012  16.551  1.2412 -0.5143  0.0593
 3024TIP3    H230564   6.740   5.030  16.699  0.4796 -0.2049 -0.1079
 3025TIP3   OH230565   4.458   4.734   1.871 -0.4527 -0.0777  0.1476
 3025TIP3    H130566   4.515   4.809   1.886 -0.3800 -0.0900 -0.0592
 3025TIP3    H230567   4.388   4.769   1.815  0.8342 -0.7142 -1.9081
 3026TIP3   OH230568   3.855   0.982  13.662 -0.1075  0.0244 -0.3627
 3026TIP3    H130569   3.916   0.915  13.692 -1.4331 -1.6872 -1.3746
 3026TIP3    H230570   3.810   1.013  13.741  1.3191  0.5750  0.2500
 3027TIP3   OH230571   0.014   2.895   6.114 -0.1366 -0.2190 -0.1377
 3027TIP3    H130572   0.026   2.917   6.206 -0.8834 -1.0425  0.1621
 3027TIP3    H230573   0.087   2.837   6.093  0.9468  1.2380 -0.5109
 3028TIP3   OH230574   3.552   3.062  11.415 -0.2143 -0.0096  0.0716
 3028TIP3    H130575   3.645   3.043  11.430  0.3336  2.6810  0.3188
 3028TIP3    H230576   3.552   3.128  11.345 -1.9386  0.0581  0.1147
 3029TIP3   OH230577   2.071   6.730   3.784  0.1168  0.2612 -0.5828
 3029TIP3    H130578   2.107   6.679   3.857 -0.2547  0.6463 -0.1249
 3029TIP3    H230579   1.983   6.695   3.771 -0.0653  0.6360 -0.3993
 3030TIP3   OH230580   6.509   4.363  12.787  0.5089 -0.1532 -0.6620
 3030TIP3    H130581   6.508   4.410  12.871  0.0366  0.5784 -1.0716
 3030TIP3    H230582   6.572   4.411  12.734  0.9841 -0.7607 -0.6473
 3031TIP3   OH230583   6.627   5.500  13.272 -0.5146  0.2978  0.0164
 3031TIP3    H130584   6.677   5.464  13.199  1.3082  1.4024  0.6883
 3031TIP3    H230585   6.617   5.427  13.332  2.0726  0.5142  0.7898
 3032TIP3   OH230586   2.767   6.311   5.048 -0.3147  0.3035  0.3206
 3032TIP3    H130587   2.808   6.226   5.064 -1.5397 -0.1470  1.1602
 3032TIP3    H230588   2.747   6.345   5.136 -0.5667  1.0813 -0.0312
 3033TIP3   OH230589   1.834   0.456   4.014  0.0413  0.0739 -0.2839
 3033TIP3    H130590   1.757   0.443   4.070  0.4411  0.9223  0.4726
 3033TIP3    H230591   1.893   0.509   4.067  0.4635  0.8236 -1.4870
 3034TIP3   OH230592   0.377   3.683   5.182 -0.4551  0.4645  0.3610
 3034TIP3    H130593   0.285   3.672   5.206 -0.6691  0.8139 -0.3185
 3034TIP3    H230594   0.384   3.774   5.152 -0.2038 -0.0201 -1.0408
 3035TIP3   OH230595   0.203   2.586   3.518 -0.1219  0.3617 -0.1062
 3035TIP3    H130596   0.118   2.541   3.519  1.5178 -2.8564  0.9269
 3035TIP3    H230597   0.209   2.625   3.431 -2.5373  0.4591 -0.2577
 3036TIP3   OH230598   3.594   4.877  10.881  0.3392 -0.3327  0.3242
 3036TIP3    H130599   3.655   4.854  10.811  0.0964  0.0194 -0.0013
 3036TIP3    H230600   3.509   4.845  10.850 -0.0175  1.0927 -0.1683
 3037TIP3   OH230601   6.030   6.434  12.584  0.7159  0.3908  0.0606
 3037TIP3    H130602   6.111   6.383  12.573 -0.8210 -2.2817  0.7067
 3037TIP3    H230603   6.057   6.509  12.636  3.1828  0.5970 -1.4322
 3038TIP3   OH230604   3.136   2.599  14.756  0.7145 -0.1092  0.4565
 3038TIP3    H130605   3.228   2.596  14.782  0.3810 -1.5307  1.5372
 3038TIP3    H230606   3.092   2.541  14.819 -0.8109  0.0557 -0.4515
 3039TIP3   OH230607   0.365   4.623  12.481 -0.3703 -0.2890  0.3255
 3039TIP3    H130608   0.305   4.625  12.555 -1.6496 -0.2224 -0.6854
 3039TIP3    H230609   0.317   4.665  12.410  0.0890 -2.0689 -1.0810
 3040TIP3   OH230610   0.351   1.927   2.669 -0.3878  0.3932  0.0834
 3040TIP3    H130611   0.350   1.921   2.765  1.2688  0.0183  0.0966
 3040TIP3    H230612   0.268   1.967   2.646 -0.5619  0.9879  1.7212
 3041TIP3   OH230613   4.695   3.098  14.845 -0.0958 -0.4978 -0.5925
 3041TIP3    H130614   4.629   3.041  14.884  1.9737 -0.5319  3.1144
 3041TIP3    H230615   4.701   3.172  14.906  2.4122  0.0589 -1.4635
 3042TIP3   OH230616   5.061   5.498   3.383 -0.2630 -0.3624  0.0215
 3042TIP3    H130617   5.123   5.433   3.418 -0.8747 -0.7514  0.4138
 3042TIP3    H230618   4.978   5.451   3.380 -0.6365  0.2989 -0.0422
 3043TIP3   OH230619   3.347   1.918   6.395 -0.0758 -0.2145 -0.8074
 3043TIP3    H130620   3.425   1.864   6.407  1.1815  1.8777  0.6625
 3043TIP3    H230621   3.378   2.008   6.401 -2.2633  0.7194 -2.4275
 3044TIP3   OH230622   4.634   0.608   1.087 -0.3396  0.2009 -0.0662
 3044TIP3    H130623   4.616   0.516   1.109 -1.0486 -0.2276 -2.3098
 3044TIP3    H230624   4.560   0.655   1.124 -1.1814 -0.4270 -0.9171
 3045TIP3   OH230625   2.232   1.581  15.117 -0.0662 -0.3001 -0.5745
 3045TIP3    H130626   2.186   1.664  15.130  0.7839  0.0115  0.4906
 3045TIP3    H230627   2.165   1.522  15.082 -0.2782  1.2805 -2.8920
 3046TIP3   OH230628   3.851   2.808  12.237  0.0911 -0.0411 -0.5957
 3046TIP3    H130629   3.903   2.883  12.209  1.2056 -0.5807  0.0173
 3046TIP3    H230630   3.906   2.732  12.217 -1.3701 -0.7527 -1.9816
 3047TIP3   OH230631   4.106   2.106   2.663  0.5017 -0.7168  0.5578
 3047TIP3    H130632   4.096   2.120   2.757 -0.3255 -2.7026  0.8076
 3047TIP3    H230633   4.090   2.192   2.624  0.8309  0.1226  2.2185
 3048TIP3   OH230634   3.401   0.475   0.751  0.4139 -0.2169  0.4958
 3048TIP3    H130635   3.474   0.427   0.789  0.6222  1.1048  1.7994
 3048TIP3    H230636   3.340   0.488   0.823 -1.1168 -1.2619 -0.5669
 3049TIP3   OH230637   3.210   3.850  15.524  0.5100  0.0931  0.0760
 3049TIP3    H130638   3.242   3.783  15.584  0.7619  0.0698 -0.0822
 3049TIP3    H230639   3.257   3.929  15.550  0.1106  0.2392  0.3515
 3050TIP3   OH230640   1.460   2.042   6.782 -0.1074 -0.5139  0.0581
 3050TIP3    H130641   1.410   1.972   6.824  1.4413 -0.3652  2.2153
 3050TIP3    H230642   1.476   2.106   6.851 -0.6439  1.5558 -1.6408
 3051TIP3   OH230643   4.356   6.082  16.544 -0.3368 -0.2257  1.2272
 3051TIP3    H130644   4.407   6.117  16.470 -0.0406 -2.8151  0.1523
 3051TIP3    H230645   4.421   6.042  16.601 -0.7443  0.3073  2.0684
 3052TIP3   OH230646   0.646   1.749   4.184  0.2729  0.0658 -0.7242
 3052TIP3    H130647   0.629   1.827   4.132  1.5449  0.6373 -0.2976
 3052TIP3    H230648   0.726   1.769   4.233 -0.6016 -0.6457  1.0708
 3053TIP3   OH230649   2.131   1.290  15.983  0.2824  0.0418  0.1552
 3053TIP3    H130650   2.160   1.273  15.894 -1.7207  0.6500 -0.6208
 3053TIP3    H230651   2.071   1.218  16.003 -0.0343  0.4407  0.6588
 3054TIP3   OH230652   1.453   6.266  14.733  0.3349 -0.2442 -0.7460
 3054TIP3    H130653   1.518   6.276  14.803  0.3698 -1.6179 -0.5674
 3054TIP3    H230654   1.451   6.172  14.715 -1.7090 -0.2569 -0.6316
 3055TIP3   OH230655   2.981   5.660  12.267  0.5055  0.3269  0.4704
 3055TIP3    H130656   3.035   5.708  12.203  1.1016 -1.7650 -0.6425
 3055TIP3    H230657   3.030   5.667  12.349  1.3573  0.3468 -0.0253
 3056TIP3   OH230658   6.042   0.639   3.002 -0.0012  0.0599 -0.7322
 3056TIP3    H130659   5.970   0.664   2.944  0.5662  2.5370 -0.4407
 3056TIP3    H230660   6.038   0.702   3.074  1.4279 -0.8224  0.1458
 3057TIP3   OH230661   0.973   1.367  16.229 -0.3145 -0.1671 -0.3680
 3057TIP3    H130662   1.008   1.312  16.299  0.8251 -0.5478 -1.2115
 3057TIP3    H230663   0.878   1.358  16.236 -0.1470 -2.4088 -0.6091
 3058TIP3   OH230664   5.059   6.312  13.565 -0.1292  0.4681 -0.0901
 3058TIP3    H130665   5.077   6.255  13.490 -0.0820  0.6745 -0.2361
 3058TIP3    H230666   5.010   6.385  13.529  1.0726  1.2494 -0.1549
 3059TIP3   OH230667   3.436   2.787   4.738  0.3853 -0.4063  0.1580
 3059TIP3    H130668   3.371   2.719   4.719 -0.0482 -0.1835  0.8132
 3059TIP3    H230669   3.394   2.868   4.709  0.3512 -0.2566  0.6189
 3060TIP3   OH230670   3.989   5.322  17.210 -0.6458  0.2595  0.3355
 3060TIP3    H130671   4.052   5.368  17.265 -0.7572  2.6970 -1.4905
 3060TIP3    H230672   4.037   5.299  17.131 -1.7375  1.2704 -0.6599
 3061TIP3   OH230673   6.626   6.082  16.702 -0.1694  0.2626  0.0126
 3061TIP3    H130674   6.564   6.060  16.772  0.2148 -1.6108 -0.2248
 3061TIP3    H230675   6.572   6.103  16.627 -0.5536  0.5560  0.3718
 3062TIP3   OH230676   0.908   5.601  13.582  0.0738  0.2119 -0.3099
 3062TIP3    H130677   0.876   5.678  13.628  0.9718  0.0836  0.5405
 3062TIP3    H230678   1.001   5.598  13.602  0.1698 -0.7346 -0.8601
 3063TIP3   OH230679   4.902   2.341  13.597 -0.5530  0.2356  0.3245
 3063TIP3    H130680   4.982   2.305  13.557 -1.1393  2.0451 -2.6131
 3063TIP3    H230681   4.909   2.316  13.689  2.1583 -1.8378 -0.3531
 3064TIP3   OH230682   4.380   4.472  12.263  0.2287 -0.5288 -0.2563
 3064TIP3    H130683   4.306   4.447  12.319 -0.6096  0.7978 -0.7654
 3064TIP3    H230684   4.453   4.481  12.325 -0.5426  0.3125  0.5506
 3065TIP3   OH230685   4.429   0.460  11.471 -0.0581 -0.1963  0.3829
 3065TIP3    H130686   4.498   0.493  11.414  1.5400  1.6832  3.2727
 3065TIP3    H230687   4.462   0.377  11.505  1.4885  1.4158  2.9158
 3066TIP3   OH230688   0.109   4.522  15.941 -0.2193  0.1811 -0.0476
 3066TIP3    H130689   0.163   4.545  16.017 -0.5555 -0.2101  0.3046
 3066TIP3    H230690   0.110   4.427  15.938 -1.1175  0.1662  0.1115
 3067TIP3   OH230691   0.279   2.996   2.275  0.1862 -0.0138 -0.2330
 3067TIP3    H130692   0.323   2.925   2.323 -1.3035 -0.8874 -0.1340
 3067TIP3    H230693   0.194   2.960   2.252 -0.7496  1.9006  0.1733
 3068TIP3   OH230694   6.014   4.717  16.048 -0.3741  0.5210  0.1996
 3068TIP3    H130695   6.102   4.755  16.043 -0.3988  0.5440 -0.0406
 3068TIP3    H230696   5.978   4.728  15.960 -0.0778 -0.7808 -0.0981
 3069TIP3   OH230697   5.026   3.272  15.709  0.3806 -0.1549  0.1947
 3069TIP3    H130698   5.063   3.238  15.627  0.9916 -1.1365  0.8600
 3069TIP3    H230699   4.985   3.355  15.684 -1.7722 -1.6923 -1.6235
 3070TIP3   OH230700   2.023   2.424  14.052 -0.0314  0.1453 -0.3689
 3070TIP3    H130701   2.113   2.446  14.028 -0.1035  2.1691  1.0533
 3070TIP3    H230702   2.031   2.347  14.108  0.7730  0.0411 -0.6217
 3071TIP3   OH230703   5.886   0.121  16.482  0.4371  0.2332 -0.4420
 3071TIP3    H130704   5.850   0.106  16.394  2.7588  0.6596 -1.4863
 3071TIP3    H230705   5.926   0.207  16.477 -1.5683  1.3525  1.7989
 3072TIP3   OH230706   4.012   0.309   1.774  0.0987 -0.6852  0.2266
 3072TIP3    H130707   3.974   0.297   1.687  0.5392  0.5153 -0.1369
 3072TIP3    H230708   4.021   0.404   1.784  0.2907 -0.8209  1.4789
 3073TIP3   OH230709   1.183   3.154   0.534 -0.3204 -1.3269  0.4269
 3073TIP3    H130710   1.177   3.234   0.586 -0.7399  0.2588 -1.9586
 3073TIP3    H230711   1.136   3.088   0.584 -1.8074  0.4738  1.4455
 3074TIP3   OH230712   5.638   5.553  14.432 -0.5889 -0.0790 -0.4365
 3074TIP3    H130713   5.669   5.604  14.507 -2.2576 -0.1998  0.3553
 3074TIP3    H230714   5.631   5.464  14.465 -0.2015 -0.3497 -1.0798
 3075TIP3   OH230715   1.358   6.252   1.904 -0.0851 -0.7276  0.2390
 3075TIP3    H130716   1.428   6.268   1.967 -1.3486 -0.0774  1.5031
 3075TIP3    H230717   1.394   6.280   1.820  0.7354  0.7963  1.0763
 3076TIP3   OH230718   4.137   1.747   1.864 -0.5418 -0.4005  0.0402
 3076TIP3    H130719   4.168   1.665   1.825 -0.2699 -0.0123 -0.5645
 3076TIP3    H230720   4.076   1.782   1.800 -0.3091  0.1013  0.0935
 3077TIP3   OH230721   0.217   2.573   2.661  0.0329  0.1173  0.0500
 3077TIP3    H130722   0.256   2.661   2.660  0.3505 -0.0247 -0.2025
 3077TIP3    H230723   0.139   2.582   2.716  0.4378  0.4064  0.5930
 3078TIP3   OH230724   4.953   0.237  17.186  0.2293 -0.1324  0.3617
 3078TIP3    H130725   4.924   0.245  17.095  2.8376 -0.6034 -0.5628
 3078TIP3    H230726   4.948   0.327  17.220  1.4420  0.4895 -1.0033
 3079TIP3   OH230727   3.820   2.963   3.926  0.2725  0.7359  0.1338
 3079TIP3    H130728   3.826   2.878   3.882 -1.0044 -0.9792  3.0735
 3079TIP3    H230729   3.899   3.010   3.899  1.4833 -1.7560 -0.8168
 3080TIP3   OH230730   3.553   5.273  17.143 -0.3399 -0.2784 -0.5246
 3080TIP3    H130731   3.626   5.212  17.136 -0.2319 -0.1732 -0.3066
 3080TIP3    H230732   3.494   5.233  17.207 -0.6681 -0.5592 -0.9896
 3081TIP3   OH230733   4.960   1.415   5.338 -0.0319 -0.3619  0.0949
 3081TIP3    H130734   5.003   1.501   5.341 -1.1165  0.1950 -0.1615
 3081TIP3    H230735   4.963   1.390   5.245 -0.5029 -0.1966  0.0341
 3082TIP3   OH230736   5.156   3.783  16.836 -0.4374  0.0854  0.3986
 3082TIP3    H130737   5.185   3.851  16.775  1.2622 -1.8883 -1.0861
 3082TIP3    H230738   5.232   3.767  16.892 -1.0766 -0.0569  1.2280
 3083TIP3   OH230739   1.239   1.275   6.003 -0.4329 -0.2609  0.6910
 3083TIP3    H130740   1.195   1.194   5.979  0.8745 -0.5531 -0.8069
 3083TIP3    H230741   1.257   1.266   6.097 -0.1746 -1.7601  0.5132
 3084TIP3   OH230742   0.723   4.908  11.745  0.8513 -0.0279  0.0078
 3084TIP3    H130743   0.737   4.955  11.663  1.3685 -1.5980 -0.8228
 3084TIP3    H230744   0.808   4.869  11.765  0.7731  0.4795  1.3999
 3085TIP3   OH230745   1.354   1.963   5.907 -0.0218 -0.1468 -0.5299
 3085TIP3    H130746   1.338   2.036   5.848  0.6943 -0.0846 -0.6491
 3085TIP3    H230747   1.269   1.946   5.948 -0.1656  0.8198 -0.4153
 3086TIP3   OH230748   1.311   5.631   4.558 -0.9179 -0.0544  0.6467
 3086TIP3    H130749   1.274   5.590   4.637  0.2380  0.0029  1.2269
 3086TIP3    H230750   1.389   5.579   4.539  0.4755  1.7593  1.2832
 3087TIP3   OH230751   5.650   0.464  14.621  0.1877 -0.4173  0.2848
 3087TIP3    H130752   5.644   0.429  14.532  1.0855 -0.8711  0.3937
 3087TIP3    H230753   5.687   0.551  14.611  0.4984 -0.5542  0.2231
 3088TIP3   OH230754   0.521   4.774  16.716  0.0965  0.0504 -0.5078
 3088TIP3    H130755   0.485   4.856  16.680  2.2937  0.6745 -1.3859
 3088TIP3    H230756   0.507   4.781  16.810 -1.2652  0.6657 -0.7424
 3089TIP3   OH230757   6.003   1.382   3.425 -0.1804  0.2723  0.6165
 3089TIP3    H130758   6.006   1.456   3.486 -1.4354 -1.0875  2.3882
 3089TIP3    H230759   5.930   1.329   3.456  0.9405 -1.9042 -0.3864
 3090TIP3   OH230760   1.688   4.578  13.538  0.8671 -0.4286 -0.3550
 3090TIP3    H130761   1.706   4.662  13.581  0.3619  0.0082 -0.9879
 3090TIP3    H230762   1.724   4.589  13.450 -0.9554 -0.1679 -1.0755
 3091TIP3   OH230763   6.661   1.510   0.904 -0.2164  0.0291 -0.0065
 3091TIP3    H130764   6.566   1.520   0.904 -0.2752 -0.4850 -0.5964
 3091TIP3    H230765   6.685   1.509   0.811  0.2009 -1.2109  0.1008
 3092TIP3   OH230766   5.046   1.675  15.858  0.5930  0.2418  0.0267
 3092TIP3    H130767   4.977   1.722  15.906  0.5799  0.8532 -0.5767
 3092TIP3    H230768   5.128   1.711  15.893  0.6805 -1.9468  2.2143
 3093TIP3   OH230769   5.336   0.982  13.979  0.4459 -0.2500  0.3165
 3093TIP3    H130770   5.416   0.991  13.927  0.7860  1.1220  1.0475
 3093TIP3    H230771   5.298   1.070  13.978 -0.6397 -0.7132  0.6401
 3094TIP3   OH230772   5.447   1.935   3.860  0.4030 -0.4275  0.1300
 3094TIP3    H130773   5.430   1.876   3.933 -1.2923  0.5354  0.5397
 3094TIP3    H230774   5.541   1.953   3.864  0.2849 -0.2111  2.2018
 3095TIP3   OH230775   3.377   3.389  12.627 -0.3367 -0.2869 -0.5386
 3095TIP3    H130776   3.457   3.342  12.652 -0.1084 -0.1285 -0.9685
 3095TIP3    H230777   3.339   3.416  12.710  0.8907  1.0054 -0.3583
 3096TIP3   OH230778   1.627   0.574  16.046 -0.4538 -0.1564  0.3088
 3096TIP3    H130779   1.635   0.479  16.039 -0.9180 -0.2270  0.7346
 3096TIP3    H230780   1.579   0.600  15.967  1.0362 -0.0961 -0.5989
 3097TIP3   OH230781   6.815   6.070  13.614 -0.1148  0.0599 -0.0407
 3097TIP3    H130782   6.827   6.103  13.524  0.6968  0.3359  0.1627
 3097TIP3    H230783   6.721   6.074  13.628 -0.0965  1.7316 -0.2390
 3098TIP3   OH230784   5.107   1.298  14.810  0.2028  0.4963  0.0546
 3098TIP3    H130785   5.046   1.284  14.883  1.5902  0.4782  1.2398
 3098TIP3    H230786   5.146   1.211  14.795  0.0651  0.5436 -0.5890
 3099TIP3   OH230787   5.620   3.458   2.232  0.3845 -0.4296 -0.0282
 3099TIP3    H130788   5.634   3.553   2.236 -0.0189 -0.3560 -0.3768
 3099TIP3    H230789   5.570   3.438   2.311  1.5953 -0.5508  0.7292
 3100TIP3   OH230790   3.827   6.405  10.419  0.4115  0.2471 -0.8211
 3100TIP3    H130791   3.890   6.377  10.485  1.6437  0.6405 -1.8221
 3100TIP3    H230792   3.849   6.496  10.401  0.0597  0.1627 -1.7387
 3101TIP3   OH230793   4.336   6.812  15.396 -0.0337  0.0291  0.3864
 3101TIP3    H130794   4.297   6.725  15.393 -0.4314  0.2000  0.6274
 3101TIP3    H230795   4.350   6.835  15.304 -1.0223  0.2054  0.2764
 3102TIP3   OH230796   3.560   4.731   0.033 -0.2911  0.4327 -0.3176
 3102TIP3    H130797   3.604   4.744  -0.051 -1.0148 -1.6386 -1.0470
 3102TIP3    H230798   3.629   4.738   0.098  0.7340 -0.4888 -1.2907
 3103TIP3   OH230799   1.893   0.353   6.645 -0.1964  0.1071 -0.3927
 3103TIP3    H130800   1.931   0.311   6.722  1.0224 -0.0355 -1.0562
 3103TIP3    H230801   1.826   0.292   6.614 -0.3897 -0.0320  0.2923
 3104TIP3   OH230802   1.873   3.399   1.424  1.0254 -0.2151 -0.4363
 3104TIP3    H130803   1.878   3.322   1.367 -0.0437 -1.5557  1.2424
 3104TIP3    H230804   1.814   3.458   1.379  1.7088 -0.4501 -1.6603
 3105TIP3   OH230805   5.601   2.976  14.266 -0.3220 -0.5646 -0.0803
 3105TIP3    H130806   5.524   2.935  14.226  0.6065 -2.4974  0.0314
 3105TIP3    H230807   5.639   2.907  14.321  2.1079 -0.0220 -0.9906
 3106TIP3   OH230808   3.004   5.502   1.424  0.0195 -0.0191  0.3113
 3106TIP3    H130809   3.089   5.546   1.420  0.2285 -0.5151 -0.9726
 3106TIP3    H230810   2.955   5.549   1.492  1.5673 -0.1710  1.5522
 3107TIP3   OH230811   5.386   4.111   1.494 -0.5714  0.3915  0.4501
 3107TIP3    H130812   5.363   4.145   1.580  3.4400 -0.8215  2.1290
 3107TIP3    H230813   5.388   4.188   1.437 -1.6901  1.4460  1.8216
 3108TIP3   OH230814   3.864   2.567  13.261  0.1473 -0.3836  0.1815
 3108TIP3    H130815   3.897   2.657  13.263  1.1012 -0.7211  0.0359
 3108TIP3    H230816   3.775   2.573  13.296 -0.0214  0.7050 -0.4149
 3109TIP3   OH230817   5.791   4.175   2.058  0.7101  0.1634 -0.3641
 3109TIP3    H130818   5.863   4.214   2.007  2.7368 -0.1329  2.1888
 3109TIP3    H230819   5.827   4.093   2.090 -0.6825  0.1503  1.1817
 3110TIP3   OH230820   4.504   2.232   1.305  0.3221  0.0718  0.0404
 3110TIP3    H130821   4.540   2.221   1.393  1.6115 -0.6514 -0.5626
 3110TIP3    H230822   4.540   2.158   1.255  2.7280  2.5506 -2.0697
 3111TIP3   OH230823   2.776   4.404   5.163  0.1374  0.1414 -0.0686
 3111TIP3    H130824   2.835   4.333   5.190 -0.4420 -0.8838 -1.4417
 3111TIP3    H230825   2.784   4.407   5.068 -0.4987  1.3507 -0.0933
 3112TIP3   OH230826   2.271   0.700  17.043 -0.0336 -0.3346 -0.3698
 3112TIP3    H130827   2.266   0.741  16.957 -0.1305  2.5987  0.9958
 3112TIP3    H230828   2.365   0.695  17.062 -0.0759  0.8400  0.1829
 3113TIP3   OH230829   6.741   1.972   5.760 -0.0250 -0.0578 -0.1973
 3113TIP3    H130830   6.836   1.957   5.769 -0.2076 -1.0400  0.1540
 3113TIP3    H230831   6.732   2.067   5.765  0.9922  0.0762 -0.6964
 3114TIP3   OH230832   4.282   6.184   6.433  0.0258 -0.1805 -0.4089
 3114TIP3    H130833   4.351   6.139   6.385  0.1959 -0.6882  0.2978
 3114TIP3    H230834   4.205   6.128   6.423 -0.2119  0.2395 -0.9550
 3115TIP3   OH230835   0.485   5.949  13.136  0.0208 -0.7908 -1.0159
 3115TIP3    H130836   0.481   6.004  13.058 -0.9656 -0.9116 -1.0632
 3115TIP3    H230837   0.561   5.892  13.123  2.6814  2.3504  0.2478
 3116TIP3   OH230838   0.054   4.010   1.118 -0.0508  0.0590 -0.4574
 3116TIP3    H130839   0.101   4.057   1.186  0.1645  0.7354 -1.0736
 3116TIP3    H230840  -0.035   4.001   1.152  0.5503 -1.4007  0.8014
 3117TIP3   OH230841   1.058   6.711  11.514 -1.0581 -0.4146  0.3911
 3117TIP3    H130842   1.054   6.799  11.552  1.8365 -0.3382  0.6718
 3117TIP3    H230843   1.118   6.720  11.440  1.2326 -2.6245  1.9041
 3118TIP3   OH230844   2.299   1.838  10.710  0.1319 -0.4300 -0.1771
 3118TIP3    H130845   2.219   1.864  10.665  0.1820  0.9102  0.5006
 3118TIP3    H230846   2.278   1.753  10.750 -1.1901  0.2704  0.6314
 3119TIP3   OH230847   0.751   2.935   6.050  0.5466 -0.2419 -0.1045
 3119TIP3    H130848   0.818   2.904   6.111  0.4479 -2.3129 -1.0085
 3119TIP3    H230849   0.677   2.876   6.063 -0.4423  0.8896 -0.4256
 3120TIP3   OH230850   1.505   1.347   2.027 -0.1358 -0.1556  0.0984
 3120TIP3    H130851   1.587   1.303   2.050  0.5318  0.4495 -1.0274
 3120TIP3    H230852   1.456   1.354   2.109  0.8452 -0.7309  0.7355
 3121TIP3   OH230853   6.487   4.638   0.164  0.0559  0.7678  0.0127
 3121TIP3    H130854   6.427   4.619   0.091 -1.9651  0.2995  1.7482
 3121TIP3    H230855   6.557   4.574   0.155 -0.5561  0.2315 -1.0913
 3122TIP3   OH230856   3.456   2.259  11.979  0.0820 -0.2556 -0.1921
 3122TIP3    H130857   3.365   2.283  11.966  0.1428  0.1516  0.1447
 3122TIP3    H230858   3.481   2.213  11.898 -0.7962 -1.5095  0.2395
 3123TIP3   OH230859   0.918   5.376   1.361 -0.2741 -0.0824  0.4438
 3123TIP3    H130860   0.884   5.421   1.283  1.6792 -0.0457 -0.4130
 3123TIP3    H230861   0.914   5.442   1.430 -1.6735  0.0005  0.3040
 3124TIP3   OH230862   6.155   2.071  13.319 -0.4916 -0.1143 -0.0542
 3124TIP3    H130863   6.145   2.095  13.227  0.3514  0.8989  0.1049
 3124TIP3    H230864   6.131   1.978  13.322 -1.3112  0.0502 -1.1463
 3125TIP3   OH230865   3.485   2.739  16.019  0.4630 -0.7358 -0.4243
 3125TIP3    H130866   3.394   2.756  15.992  0.7656  0.7031 -0.6171
 3125TIP3    H230867   3.477   2.677  16.091 -0.8637  1.2011  1.1842
 3126TIP3   OH230868   2.470   6.098   2.457 -0.0062  0.2859  0.4477
 3126TIP3    H130869   2.537   6.110   2.524  0.4256 -0.4532  0.1468
 3126TIP3    H230870   2.515   6.057   2.384 -0.7516 -0.0697  0.1791
 3127TIP3   OH230871   6.174   3.046   6.228  0.0077  0.5413 -0.5165
 3127TIP3    H130872   6.137   3.055   6.316 -1.3565  1.7570 -1.1800
 3127TIP3    H230873   6.221   2.962   6.230  0.3495  0.7485  1.4765
 3128TIP3   OH230874   5.569   5.616  13.306 -0.2811  0.1078  0.1851
 3128TIP3    H130875   5.511   5.667  13.249  0.6962 -0.9546 -1.8340
 3128TIP3    H230876   5.509   5.568  13.364 -1.4147 -0.2400 -1.2302
 3129TIP3   OH230877   5.699   4.229  11.048  0.5450 -0.8993 -0.8297
 3129TIP3    H130878   5.717   4.148  10.999  0.2996 -0.7814 -1.1184
 3129TIP3    H230879   5.775   4.239  11.105  0.7360 -1.1548 -1.0334
 3130TIP3   OH230880   4.774   2.104   5.783  0.2387 -0.0895 -0.2321
 3130TIP3    H130881   4.768   2.113   5.878  0.1581  0.2078 -0.2662
 3130TIP3    H230882   4.750   2.190   5.749  2.4652  0.4569 -0.4496
 3131TIP3   OH230883   6.274   1.480  15.398  0.1971 -0.1294 -0.3186
 3131TIP3    H130884   6.363   1.490  15.433 -0.4264  1.0881  0.9676
 3131TIP3    H230885   6.275   1.531  15.317  0.9822 -1.0549 -0.9068
 3132TIP3   OH230886   1.412   0.820  15.146  0.0598  0.1578 -0.1175
 3132TIP3    H130887   1.496   0.839  15.105  1.2226 -1.4263  1.4386
 3132TIP3    H230888   1.410   0.724  15.155 -1.8284  0.1838  0.0386
 3133TIP3   OH230889   4.426   6.210  12.193  0.0157 -0.4907 -1.0254
 3133TIP3    H130890   4.480   6.185  12.118 -2.4074 -0.8981 -2.7035
 3133TIP3    H230891   4.371   6.133  12.210  2.1573 -1.3362  2.7930
 3134TIP3   OH230892   2.560   1.737   1.359 -0.7396  0.1043  0.3976
 3134TIP3    H130893   2.472   1.713   1.329 -0.9314  0.5461  0.6068
 3134TIP3    H230894   2.550   1.752   1.453 -0.2381 -0.7981  0.6037
 3135TIP3   OH230895   0.300   5.500  13.717 -0.5098  0.1564  0.1416
 3135TIP3    H130896   0.326   5.533  13.631 -0.2450  0.2123  0.2436
 3135TIP3    H230897   0.206   5.481  13.707 -0.6917  1.0551  0.1258
 3136TIP3   OH230898   5.657   1.604   0.193 -0.4485  0.0379 -0.3502
 3136TIP3    H130899   5.588   1.650   0.146 -0.6918 -0.0322 -0.0576
 3136TIP3    H230900   5.611   1.540   0.248 -0.0110 -2.5989 -2.9051
 3137TIP3   OH230901   0.431   0.919   1.079  0.5353 -0.6288 -0.1880
 3137TIP3    H130902   0.437   0.825   1.096  0.3199 -0.6105 -0.0102
 3137TIP3    H230903   0.443   0.959   1.165 -2.4058 -0.5961  0.2510
 3138TIP3   OH230904   0.571   1.739   3.313  0.1570  0.3585 -0.2617
 3138TIP3    H130905   0.666   1.751   3.314  0.2562 -0.3433 -0.7642
 3138TIP3    H230906   0.559   1.644   3.321 -0.5025  0.4651 -0.0001
 3139TIP3   OH230907   4.073   5.620   0.218  0.5586  0.8361  0.1934
 3139TIP3    H130908   4.125   5.686   0.264  0.0965  1.3292  0.0179
 3139TIP3    H230909   3.984   5.634   0.249  0.8511 -1.5089  2.2459
 3140TIP3   OH230910   1.633   2.029   4.711  0.5091 -0.2200  0.1063
 3140TIP3    H130911   1.563   1.978   4.670  1.0431 -0.4142 -0.5796
 3140TIP3    H230912   1.705   2.024   4.648  1.2235 -0.2380  0.9295
 3141TIP3   OH230913   4.464   5.821  12.674  0.5112  0.2526 -0.3466
 3141TIP3    H130914   4.389   5.821  12.615  0.6523  0.4076 -0.5241
 3141TIP3    H230915   4.432   5.865  12.753 -0.0600 -1.0793  0.1748
 3142TIP3   OH230916   5.543   2.685   3.672  0.0871  0.2875  0.0560
 3142TIP3    H130917   5.483   2.751   3.636  0.2318 -0.9557 -2.5162
 3142TIP3    H230918   5.492   2.605   3.674  0.7224 -0.1088  0.7698
 3143TIP3   OH230919   6.608   4.452   5.274 -0.4127 -0.3534  0.4269
 3143TIP3    H130920   6.682   4.488   5.226 -1.3155  0.6008 -0.2844
 3143TIP3    H230921   6.633   4.458   5.366  0.5328 -0.3891  0.1773
 3144TIP3   OH230922   0.894   5.105   2.886  0.1549 -0.0949 -0.2519
 3144TIP3    H130923   0.929   5.060   2.809  1.2040  2.0656 -1.0823
 3144TIP3    H230924   0.808   5.137   2.859 -0.8190 -1.9574  0.5049
 3145TIP3   OH230925   6.424   0.378  14.285  0.3576 -0.8814 -0.1980
 3145TIP3    H130926   6.434   0.352  14.194 -0.9266  1.5561 -1.0720
 3145TIP3    H230927   6.457   0.468  14.288 -1.0082 -0.4087  1.4128
 3146TIP3   OH230928   6.366   4.049  11.177  0.1188  0.0266  0.3979
 3146TIP3    H130929   6.394   4.141  11.185  1.7910 -0.5564  1.4800
 3146TIP3    H230930   6.407   4.018  11.097  0.1951 -0.0031  0.4500
 3147TIP3   OH230931   1.276   6.642  14.701  0.2332 -0.0402  0.2232
 3147TIP3    H130932   1.336   6.618  14.771 -0.0401 -0.5610  0.2789
 3147TIP3    H230933   1.191   6.652  14.744 -0.0553 -0.9490 -0.1262
 3148TIP3   OH230934   1.926   1.289  10.648 -0.4974  0.2706 -0.5870
 3148TIP3    H130935   1.942   1.251  10.562 -0.3895  0.2729 -0.5684
 3148TIP3    H230936   2.000   1.259  10.702 -0.5010  0.3671 -0.5280
 3149TIP3   OH230937   3.795   5.013   1.191 -0.0742  0.5392 -0.2401
 3149TIP3    H130938   3.861   5.042   1.128 -0.8648  1.0096 -0.8766
 3149TIP3    H230939   3.719   4.990   1.137 -0.3566 -0.1996  0.4603
 3150TIP3   OH230940   0.309   1.366   2.172  0.2770 -0.4940  0.0437
 3150TIP3    H130941   0.343   1.381   2.084  0.7194 -0.0748  0.2786
 3150TIP3    H230942   0.217   1.389   2.168  0.3705 -0.1748 -0.2344
 3151TIP3   OH230943   4.042   1.454   4.058  0.2017  0.4565  0.5767
 3151TIP3    H130944   3.980   1.526   4.074 -0.0424  0.5492 -0.7146
 3151TIP3    H230945   4.082   1.437   4.144 -1.7551  0.2523  1.4730
 3152TIP3   OH230946   4.988   5.981  14.456 -0.4957 -0.8298 -0.4840
 3152TIP3    H130947   5.065   6.026  14.490 -0.9889  0.7074 -1.3118
 3152TIP3    H230948   5.014   5.890  14.447  1.5211 -0.1736 -1.5985
 3153TIP3   OH230949   0.066   5.806  13.659 -0.4909 -0.0288 -0.0933
 3153TIP3    H130950   0.130   5.814  13.730 -0.0090 -1.1936 -0.3958
 3153TIP3    H230951   0.034   5.896  13.645 -0.3189  0.2606  1.3375
 3154TIP3   OH230952   3.355   4.819   1.955  0.4627  0.5947  0.3533
 3154TIP3    H130953   3.433   4.772   1.985 -1.3527 -2.4002  0.6380
 3154TIP3    H230954   3.345   4.792   1.863  0.1546  1.5390  0.1037
 3155TIP3   OH230955   1.606   6.526  13.187  0.1102 -0.1390 -0.0555
 3155TIP3    H130956   1.642   6.615  13.195  2.4990 -1.2201  1.9012
 3155TIP3    H230957   1.660   6.484  13.121 -0.4678 -0.4053 -0.3601
 3156TIP3   OH230958   0.684   5.007  10.969 -0.2199  0.5931 -0.4398
 3156TIP3    H130959   0.681   5.100  10.993  1.5061  0.6390 -0.2848
 3156TIP3    H230960   0.737   4.967  11.038  1.3112 -0.0161 -1.9379
 3157TIP3   OH230961   0.598   2.480   5.707 -0.2798 -0.2949 -0.3681
 3157TIP3    H130962   0.554   2.517   5.784 -0.7430 -1.2075 -0.1793
 3157TIP3    H230963   0.534   2.419   5.671 -0.5952  1.1310 -2.2843
 3158TIP3   OH230964   6.392   5.386  13.807 -0.6164 -0.3591  0.1654
 3158TIP3    H130965   6.301   5.418  13.812 -1.0233 -1.3341 -0.8866
 3158TIP3    H230966   6.417   5.372  13.899 -1.7820 -0.7713  0.4343
 3159TIP3   OH230967   0.037   6.360  14.312 -0.1608 -0.3131 -0.7401
 3159TIP3    H130968  -0.011   6.422  14.367  0.5640 -1.6454  1.4564
 3159TIP3    H230969   0.124   6.397  14.305 -0.8861  1.0564 -3.0149
 3160TIP3   OH230970   6.564   5.679  10.975  0.5050  0.0606 -0.2359
 3160TIP3    H130971   6.647   5.643  11.008  0.5067  1.1748  0.9850
 3160TIP3    H230972   6.578   5.686  10.881  2.5262  2.0814  0.1795
 3161TIP3   OH230973   3.080   2.838  12.999  0.1977  0.1953  0.1727
 3161TIP3    H130974   3.172   2.834  13.027 -0.0118  0.9486  0.9822
 3161TIP3    H230975   3.076   2.915  12.943  0.5233 -1.0700 -1.6743
 3162TIP3   OH230976   4.238   5.321   2.762 -0.7183  0.4122  0.2650
 3162TIP3    H130977   4.261   5.273   2.682  1.6423 -0.1179  1.2229
 3162TIP3    H230978   4.207   5.406   2.731 -1.1858 -0.2952 -1.2696
 3163TIP3   OH230979   1.814   4.578  13.293 -0.7321  0.4061  0.2553
 3163TIP3    H130980   1.882   4.556  13.229  0.0869  1.5841  0.7063
 3163TIP3    H230981   1.748   4.626  13.243  0.2153  1.8948  0.3941
 3164TIP3   OH230982   1.625   3.231   3.946 -0.3159 -0.0674 -0.0105
 3164TIP3    H130983   1.716   3.241   3.920 -0.0315 -1.1608  0.5233
 3164TIP3    H230984   1.588   3.319   3.940  0.4438  0.1690 -1.4466
 3165TIP3   OH230985   1.376   2.203  14.284  0.0947 -0.4473 -0.0857
 3165TIP3    H130986   1.295   2.162  14.315 -1.8748  3.9154  0.9343
 3165TIP3    H230987   1.435   2.198  14.359 -0.6817 -0.0769  0.5722
 3166TIP3   OH230988   2.354   6.179   3.569  0.0051  0.0698  0.7932
 3166TIP3    H130989   2.430   6.120   3.561  0.6409  0.8979  0.5990
 3166TIP3    H230990   2.360   6.235   3.491 -0.0426  1.0092  1.4523
 3167TIP3   OH230991   6.740   3.973  12.120  0.0135 -0.1655  0.0409
 3167TIP3    H130992   6.708   3.941  12.036 -0.3326 -0.4092  0.2615
 3167TIP3    H230993   6.741   3.895  12.176  0.0403  0.0334  0.3179
 3168TIP3   OH230994   3.230   1.039  10.291  0.3143  0.7104 -0.8263
 3168TIP3    H130995   3.256   0.978  10.361 -0.5034 -0.2047 -1.3050
 3168TIP3    H230996   3.192   1.113  10.338  1.1599  0.7836 -0.2394
 3169TIP3   OH230997   3.540   3.745  14.348  0.0837  0.1419 -0.0383
 3169TIP3    H130998   3.444   3.741  14.343  0.1145  0.0888 -0.6726
 3169TIP3    H230999   3.560   3.838  14.341  0.1350  0.0543 -1.2038
 3170TIP3   OH231000   6.006   5.729  12.913  0.1008 -0.4327 -0.4310
 3170TIP3    H131001   5.924   5.777  12.904 -0.5671 -1.2632  1.0994
 3170TIP3    H231002   6.050   5.741  12.829 -3.0731 -2.7851 -2.5567
 3171TIP3   OH231003   0.149   3.203   1.142  0.1746 -0.1298  0.1216
 3171TIP3    H131004   0.066   3.211   1.095  1.6446  2.7285 -2.1191
 3171TIP3    H231005   0.125   3.217   1.234 -1.8975  0.1857 -0.4343
 3172TIP3   OH231006   1.293   4.565   2.027 -0.9183 -0.2597  0.0603
 3172TIP3    H131007   1.231   4.637   2.013 -0.9208 -0.2691  0.0231
 3172TIP3    H231008   1.360   4.602   2.084 -0.5013  0.0148 -0.5904
 3173TIP3   OH231009   3.898   0.880  13.405  0.4669 -0.1925  0.8979
 3173TIP3    H131010   3.875   0.947  13.468 -0.5327  0.6713 -0.3555
 3173TIP3    H231011   3.987   0.901  13.378 -0.6238  2.0152 -1.1709
 3174TIP3   OH231012   5.032   6.726  10.754 -0.6818 -0.0934  0.0677
 3174TIP3    H131013   5.099   6.759  10.813  1.1991 -2.0858 -0.8830
 3174TIP3    H231014   4.950   6.736  10.802  0.7193 -1.1052  2.7706
 3175TIP3   OH231015   4.686   4.983   5.629 -0.0270 -0.4766 -0.0615
 3175TIP3    H131016   4.617   5.029   5.677 -0.3324  0.2819 -1.2087
 3175TIP3    H231017   4.744   5.053   5.598  1.0462 -1.0802  0.5708
 3176TIP3   OH231018   4.441   3.048   1.332 -0.4395  0.3224  0.3111
 3176TIP3    H131019   4.448   2.953   1.346 -0.2540  0.1911 -0.6667
 3176TIP3    H231020   4.436   3.084   1.420  2.0917 -0.3860  0.7916
 3177TIP3   OH231021   5.219   6.773  11.186 -0.4438 -0.0022  0.0614
 3177TIP3    H131022   5.235   6.692  11.139 -2.1238 -1.6814  2.2477
 3177TIP3    H231023   5.303   6.795  11.227 -0.1045 -0.8821 -0.1682
 3178TIP3   OH231024   1.991   5.926  16.019 -0.4483  0.0695 -0.0500
 3178TIP3    H131025   2.035   5.954  16.099  0.3206  0.9684 -0.7677
 3178TIP3    H231026   1.993   5.831  16.022 -2.4593  0.0623  2.0923
 3179TIP3   OH231027   6.227   6.473  11.840  0.1207  0.0177  0.4353
 3179TIP3    H131028   6.217   6.568  11.828  1.7931 -0.0164 -1.5625
 3179TIP3    H231029   6.194   6.436  11.758  0.1120 -1.1055  0.9392
 3180TIP3   OH231030   1.426   0.956  12.056  0.3232 -0.1940  0.4011
 3180TIP3    H131031   1.490   1.024  12.033 -1.4250  0.3402 -3.3885
 3180TIP3    H231032   1.472   0.874  12.040  1.3942  0.1161  1.7990
 3181TIP3   OH231033   5.431   5.118   1.780  0.1997 -0.0830 -0.7883
 3181TIP3    H131034   5.497   5.175   1.740 -1.2120  1.6785 -0.6457
 3181TIP3    H231035   5.365   5.105   1.712 -2.2178  2.9326  0.8276
 3182TIP3   OH231036   0.651   3.996   2.488  0.2592  0.0607 -0.0404
 3182TIP3    H131037   0.618   3.909   2.509  0.6997 -0.4462 -1.3486
 3182TIP3    H231038   0.594   4.027   2.417 -0.4949  1.2487  1.0500
 3183TIP3   OH231039   0.573   3.340  11.103 -0.5988  0.3951  0.0154
 3183TIP3    H131040   0.499   3.287  11.072  0.0792  0.7695 -2.3753
 3183TIP3    H231041   0.650   3.290  11.079 -0.0154  1.1967  0.1920
 3184TIP3   OH231042   1.085   0.679   4.001 -0.2524  0.4424 -0.4448
 3184TIP3    H131043   1.044   0.763   3.978  0.5637  0.8237 -0.5230
 3184TIP3    H231044   1.016   0.614   3.989 -0.7689  1.0574 -0.7945
 3185TIP3   OH231045   0.822   0.561  13.735  0.5107 -0.3471  0.4167
 3185TIP3    H131046   0.891   0.627  13.739 -0.5247  0.7417  0.4969
 3185TIP3    H231047   0.747   0.601  13.781 -0.3188 -1.3338 -0.0468
 3186TIP3   OH231048   4.156   5.652  14.680 -0.1145 -0.2047 -0.0140
 3186TIP3    H131049   4.063   5.645  14.699  0.1490  0.2943  1.5162
 3186TIP3    H231050   4.185   5.561  14.667 -0.5643 -0.4547  0.7167
 3187TIP3   OH231051   3.379   6.216  15.408  0.2675  0.0583 -0.1880
 3187TIP3    H131052   3.468   6.238  15.434 -0.8187  2.0843  2.0265
 3187TIP3    H231053   3.358   6.137  15.457 -0.2881  1.4599  1.8657
 3188TIP3   OH231054   1.108   0.103  11.687 -0.9651 -0.2989 -0.1881
 3188TIP3    H131055   1.114   0.195  11.713  0.5286  0.3418 -2.5940
 3188TIP3    H231056   1.190   0.086  11.639 -1.5134 -2.6855 -0.3553
 3189TIP3   OH231057   6.031   1.194   4.385  0.8137 -0.0283 -0.0442
 3189TIP3    H131058   5.953   1.190   4.440  1.4890 -0.8133  0.8876
 3189TIP3    H231059   6.066   1.282   4.399  1.8038 -0.6940  1.9904
 3190TIP3   OH231060   0.670   5.114   4.419  0.0691  0.3412 -0.4565
 3190TIP3    H131061   0.715   5.197   4.436  1.1444 -0.3256  0.0532
 3190TIP3    H231062   0.739   5.055   4.390 -0.2094 -1.1164  1.7197
 3191TIP3   OH231063   1.508   5.116   3.228 -0.2573  0.0649  0.4687
 3191TIP3    H131064   1.449   5.041   3.239  0.3205 -0.5140 -0.2599
 3191TIP3    H231065   1.481   5.155   3.145  0.0877  0.0679  0.3578
 3192TIP3   OH231066   0.519   1.403  12.740  0.3691 -0.1921 -0.3753
 3192TIP3    H131067   0.510   1.460  12.664  0.2181  0.6700  0.2805
 3192TIP3    H231068   0.545   1.462  12.811  0.0687 -0.9197  0.3446
 3193TIP3   OH231069   6.269   4.525  16.723  0.7346  0.1282 -0.0172
 3193TIP3    H131070   6.352   4.521  16.676  0.9460  0.8523  0.2798
 3193TIP3    H231071   6.205   4.487  16.663  0.5810  3.1310 -1.8822
 3194TIP3   OH231072   2.250   2.625   1.816  0.1371  0.6136  0.1411
 3194TIP3    H131073   2.267   2.537   1.784 -1.0462  0.4025  0.0853
 3194TIP3    H231074   2.336   2.668   1.815  0.8149 -0.7206  0.7571
 3195TIP3   OH231075   2.025   2.348  12.234 -0.1603 -0.3024  0.3449
 3195TIP3    H131076   2.091   2.351  12.165 -2.0418  0.9930 -1.4104
 3195TIP3    H231077   1.958   2.289  12.201 -1.3858  0.8311  0.7890
 3196TIP3   OH231078   3.582   5.585  11.002  0.3276  0.0348 -0.4471
 3196TIP3    H131079   3.593   5.585  10.907 -0.3256  1.3203 -0.5303
 3196TIP3    H231080   3.490   5.608  11.015 -0.2067 -2.4556  0.4486
 3197TIP3   OH231081   4.547   0.524  15.726  0.3628 -0.3292 -0.1035
 3197TIP3    H131082   4.489   0.468  15.778 -0.7932  0.8432 -0.0842
 3197TIP3    H231083   4.581   0.466  15.657 -1.5773 -0.8430 -0.6759
 3198TIP3   OH231084   6.760   0.637   3.164  0.0395 -0.0069 -0.5384
 3198TIP3    H131085   6.780   0.638   3.258 -1.5429  0.4059 -0.1910
 3198TIP3    H231086   6.817   0.705   3.127  0.3433  0.1441  0.1873
 3199TIP3   OH231087   3.109   1.817   4.760  0.5516 -0.0608  0.1730
 3199TIP3    H131088   3.019   1.794   4.783 -0.4064  0.0317 -3.1620
 3199TIP3    H231089   3.122   1.903   4.800 -0.5350 -0.4629  1.4252
 3200TIP3   OH231090   6.543   1.925   3.931 -1.1278 -0.2531  0.1325
 3200TIP3    H131091   6.545   1.923   4.027  1.2332 -0.7835  0.0942
 3200TIP3    H231092   6.577   1.840   3.905 -0.4926  0.4118 -1.1969
 3201TIP3   OH231093   5.799   2.124  14.838  0.1340 -0.1401 -0.0122
 3201TIP3    H131094   5.821   2.122  14.745 -0.2524  3.7393 -0.2490
 3201TIP3    H231095   5.869   2.075  14.881  0.7165 -1.3084 -2.2343
 3202TIP3   OH231096   4.947   6.452   3.349  0.1557 -0.5636  0.0642
 3202TIP3    H131097   5.022   6.396   3.327  0.2797 -0.5314  0.3991
 3202TIP3    H231098   4.875   6.419   3.296  1.2995  1.6801 -3.0284
 3203TIP3   OH231099   1.465   0.430   1.750 -0.2985 -0.8161  0.2906
 3203TIP3    H131100   1.423   0.424   1.836 -0.1822 -0.8962  0.3404
 3203TIP3    H231101   1.546   0.382   1.759  1.0707  1.5235  0.9666
 3204TIP3   OH231102   0.425   5.637  17.088 -0.1995  0.8347  0.1017
 3204TIP3    H131103   0.420   5.549  17.051 -0.1707  1.1770 -0.7375
 3204TIP3    H231104   0.346   5.645  17.141  0.1707  0.0422  0.7737
 3205TIP3   OH231105   5.969   3.981   5.009  0.9595 -0.2666 -0.0573
 3205TIP3    H131106   5.966   4.077   5.009 -1.4732 -0.2988  2.4684
 3205TIP3    H231107   5.935   3.956   4.923  0.0036  1.0846 -0.0812
 3206TIP3   OH231108   2.140   2.679  15.316 -0.4304 -0.2129 -0.5003
 3206TIP3    H131109   2.095   2.600  15.287 -2.1009  0.3097  0.6019
 3206TIP3    H231110   2.118   2.687  15.409  3.0317 -0.6417  0.4221
 3207TIP3   OH231111   4.791   2.535  16.618 -0.0036 -0.1902 -0.2372
 3207TIP3    H131112   4.836   2.617  16.597 -0.9897  0.7627  1.2180
 3207TIP3    H231113   4.698   2.555  16.606 -0.3090 -0.8337  0.8979
 3208TIP3   OH231114   0.558   1.835   5.033  0.5217 -0.3595 -0.0783
 3208TIP3    H131115   0.580   1.744   5.056 -0.3349 -0.5755 -0.1089
 3208TIP3    H231116   0.519   1.871   5.113  0.3524 -0.1833 -0.2422
 3209TIP3   OH231117   0.542   3.096  15.666 -0.1497 -0.2016 -0.2208
 3209TIP3    H131118   0.465   3.053  15.703  0.3239 -0.2015  0.7838
 3209TIP3    H231119   0.507   3.168  15.614 -0.8721 -0.7893 -0.5451
 3210TIP3   OH231120   5.912   6.069  14.060  0.1460 -0.3925 -0.3181
 3210TIP3    H131121   5.999   6.032  14.043 -0.1808 -1.8342  1.0200
 3210TIP3    H231122   5.851   6.004  14.024 -0.4290 -0.9506  1.6067
 3211TIP3   OH231123   2.782   5.695   1.290  0.0814  0.2388  0.6916
 3211TIP3    H131124   2.749   5.766   1.235 -2.3890 -1.4652 -0.1144
 3211TIP3    H231125   2.744   5.712   1.376  1.1106  0.9718  1.0110
 3212TIP3   OH231126   2.930   0.265   2.614 -0.1088 -0.6054  0.6272
 3212TIP3    H131127   2.866   0.229   2.553 -1.0437  0.3736  0.9931
 3212TIP3    H231128   2.959   0.190   2.666 -1.0685 -1.0540  0.5331
 3213TIP3   OH231129   5.913   6.369  15.759 -0.5639  0.6215 -0.1670
 3213TIP3    H131130   5.882   6.356  15.669 -0.9280  0.8882 -0.0823
 3213TIP3    H231131   5.862   6.307  15.811  1.7047 -1.6643 -0.5232
 3214TIP3   OH231132   3.589   5.186   4.879 -0.1907  0.0088 -0.2246
 3214TIP3    H131133   3.502   5.223   4.891 -0.8522 -2.2203  2.2879
 3214TIP3    H231134   3.647   5.246   4.925 -0.7094  0.2267  0.1476
 3215TIP3   OH231135   0.780   6.543   0.918  0.4628 -0.0872 -0.1209
 3215TIP3    H131136   0.718   6.579   0.981  0.1613 -3.1415  1.4181
 3215TIP3    H231137   0.866   6.558   0.957  0.3796 -0.5242  0.2238
 3216TIP3   OH231138   2.034   2.295   3.880  0.0704  1.1411 -0.2280
 3216TIP3    H131139   2.006   2.291   3.972 -1.7166 -0.3797 -0.7951
 3216TIP3    H231140   1.956   2.267   3.831  1.8651 -0.8224 -2.0283
 3217TIP3   OH231141   2.717   5.770  14.364 -0.5048 -0.2337 -0.2573
 3217TIP3    H131142   2.633   5.727  14.383 -0.1099 -1.0173 -0.2544
 3217TIP3    H231143   2.694   5.846  14.312 -0.9718 -2.0808 -2.8140
 3218TIP3   OH231144   4.960   1.063  11.512 -0.6405 -0.6100  0.2056
 3218TIP3    H131145   4.991   1.144  11.552 -0.6041 -1.5776  2.2192
 3218TIP3    H231146   5.035   1.029  11.464  0.0646 -0.6954  1.3744
 3219TIP3   OH231147   2.180   6.759  15.797  0.4369  0.1050  0.1661
 3219TIP3    H131148   2.220   6.676  15.824  1.5420  0.0828 -1.4216
 3219TIP3    H231149   2.206   6.768  15.705 -0.3635  1.8121  0.1005
 3220TIP3   OH231150   2.314   5.769  11.573  0.2720 -0.0439 -0.1936
 3220TIP3    H131151   2.295   5.825  11.498  0.0209 -0.7024 -0.6267
 3220TIP3    H231152   2.369   5.699  11.538  1.0481  0.2277  0.4552
 3221TIP3   OH231153   1.812   6.801  12.039  0.2404 -0.3575  0.1018
 3221TIP3    H131154   1.794   6.884  11.995 -1.7900 -1.4261 -1.1369
 3221TIP3    H231155   1.851   6.746  11.971  0.0137 -0.9800  0.4754
 3222TIP3   OH231156   1.358   5.514   5.593 -0.5139  0.0191  0.5781
 3222TIP3    H131157   1.357   5.459   5.671 -1.3008  1.4603  1.6159
 3222TIP3    H231158   1.451   5.529   5.575 -0.3230 -0.7351  0.9388
 3223TIP3   OH231159   4.865   5.336   3.167  0.5397  0.6581  0.0481
 3223TIP3    H131160   4.875   5.335   3.262  0.5347  3.2509  0.1274
 3223TIP3    H231161   4.774   5.361   3.152  0.1963 -0.9522 -0.6598
 3224TIP3   OH231162   3.361   5.937   6.448 -0.2675  0.3664  0.0848
 3224TIP3    H131163   3.400   6.020   6.420  1.7678  0.3843  2.7783
 3224TIP3    H231164   3.353   5.945   6.543  0.2921 -2.6747  0.4273
 3225TIP3   OH231165   2.446   4.563  16.078  0.1053  0.0697  0.3893
 3225TIP3    H131166   2.528   4.609  16.061 -0.4274  1.0800  0.5099
 3225TIP3    H231167   2.386   4.631  16.107 -0.1289 -1.0306  2.5663
 3226TIP3   OH231168   0.409   2.381   4.871  0.3368  1.0088 -0.2237
 3226TIP3    H131169   0.353   2.448   4.911  0.2034  0.1836  0.9913
 3226TIP3    H231170   0.448   2.425   4.796  1.0969  2.7956  1.1639
 3227TIP3   OH231171   4.015   3.793  12.003  0.4226  0.0414 -0.6015
 3227TIP3    H131172   3.947   3.781  12.069  0.7083 -1.9521 -0.6379
 3227TIP3    H231173   4.054   3.878  12.024 -2.1661  1.2885 -0.6953
 3228TIP3   OH231174   0.596   6.737   5.836 -0.1754 -0.5627 -0.6564
 3228TIP3    H131175   0.565   6.761   5.748 -4.2032  0.2246  0.8944
 3228TIP3    H231176   0.523   6.691   5.876  2.1200 -2.1793  1.8391
 3229TIP3   OH231177   2.310   4.461  13.488  0.3068 -0.0707 -0.0912
 3229TIP3    H131178   2.332   4.369  13.502 -1.2703 -0.3908  0.4012
 3229TIP3    H231179   2.217   4.466  13.508  0.1082  1.3892 -1.3169
 3230TIP3   OH231180   4.014   2.055   4.934 -0.6497  0.7705 -0.4538
 3230TIP3    H131181   4.028   2.033   4.842  0.7620  0.2401 -0.1279
 3230TIP3    H231182   4.023   2.150   4.938 -2.6281  1.0042 -1.1756
 3231TIP3   OH231183   5.455   4.826   1.766  0.1234 -0.3004 -0.1555
 3231TIP3    H131184   5.492   4.886   1.831  1.5854 -0.9607 -0.3518
 3231TIP3    H231185   5.487   4.740   1.794 -1.9441 -1.0076  0.1312
 3232TIP3   OH231186   6.744   1.905   4.427 -0.5406 -0.6340 -0.5439
 3232TIP3    H131187   6.797   1.875   4.501  0.0873 -1.0513 -1.1582
 3232TIP3    H231188   6.808   1.926   4.359 -1.1340 -0.5504 -1.0783
 3233TIP3   OH231189   2.842   3.282  13.597  0.5489 -0.7048 -0.0330
 3233TIP3    H131190   2.826   3.372  13.627  2.5403  0.2690 -1.7406
 3233TIP3    H231191   2.899   3.245  13.663 -3.1231 -2.0034  2.5953
 3234TIP3   OH231192   6.389   1.618   4.277  0.6397 -0.0554  0.5350
 3234TIP3    H131193   6.348   1.532   4.289  1.6741 -0.7122 -0.5168
 3234TIP3    H231194   6.355   1.648   4.192  1.0230  0.1582  0.4585
 3235TIP3   OH231195   1.844   1.073   5.563 -0.0354 -0.0563 -0.4355
 3235TIP3    H131196   1.890   1.057   5.481  1.6899 -0.7260  0.6372
 3235TIP3    H231197   1.819   1.165   5.559  1.2091  0.2586 -1.1251
 3236TIP3   OH231198   1.564   5.219   2.376 -0.0671  0.4201  0.2241
 3236TIP3    H131199   1.590   5.154   2.311  1.0051  0.5343  0.5247
 3236TIP3    H231200   1.532   5.167   2.450  0.0108  0.2503  0.1379
 3237TIP3   OH231201   0.105   3.257  17.173 -0.0343 -0.5184  0.0528
 3237TIP3    H131202   0.131   3.184  17.229 -0.4457  0.3156  1.3809
 3237TIP3    H231203   0.017   3.280  17.204 -0.4884 -0.3940 -1.3168
 3238TIP3   OH231204   4.882   1.026  13.659  0.1691  0.3901  0.1053
 3238TIP3    H131205   4.843   1.065  13.737 -0.7217  0.8740 -0.5814
 3238TIP3    H231206   4.891   0.933  13.681 -1.5834  0.2208  0.1880
 3239TIP3   OH231207   3.419   2.514  12.991  0.2302  0.4277  0.7034
 3239TIP3    H131208   3.327   2.523  12.964  1.0856  2.1246 -1.7838
 3239TIP3    H231209   3.447   2.603  13.008  2.3572  0.3240 -1.9065
 3240TIP3   OH231210   2.019   0.224  16.800 -0.7670  0.0457 -0.0768
 3240TIP3    H131211   1.932   0.198  16.772 -0.7410  1.4875 -1.5893
 3240TIP3    H231212   2.005   0.299  16.859 -0.6196 -0.6663  0.8811
 3241TIP3   OH231213   4.244   0.458  14.605  0.0874  0.2280 -0.3014
 3241TIP3    H131214   4.164   0.505  14.582 -1.6357 -1.8648  1.2040
 3241TIP3    H231215   4.279   0.506  14.679 -0.3255  0.5753 -0.3277
 3242TIP3   OH231216   2.998   6.795  14.804  0.1561 -0.8011  0.2570
 3242TIP3    H131217   2.935   6.751  14.747  0.5057 -0.4220 -0.4313
 3242TIP3    H231218   2.945   6.849  14.862 -0.3196 -2.6082  1.5449
 3243TIP3   OH231219   0.723   1.137   6.023  0.1891  0.4757 -0.6587
 3243TIP3    H131220   0.639   1.120   5.981 -0.5947 -0.1277  1.0925
 3243TIP3    H231221   0.703   1.207   6.086  0.3347 -1.5989  1.7527
 3244TIP3   OH231222   0.993   1.876   2.513 -0.0503 -0.0884 -0.0733
 3244TIP3    H131223   0.916   1.916   2.552 -1.5633 -2.0045 -1.0579
 3244TIP3    H231224   1.033   1.826   2.584  0.0229  0.4902  0.2990
 3245TIP3   OH231225   0.210   4.769  14.930  0.0095 -0.8017 -0.4341
 3245TIP3    H131226   0.292   4.792  14.974  0.8810  0.1987 -2.4957
 3245TIP3    H231227   0.147   4.833  14.961  0.1327 -1.2376  0.7444
 3246TIP3   OH231228   4.590   1.299   5.625 -0.3896  0.3345 -0.0800
 3246TIP3    H131229   4.627   1.286   5.712 -0.8983  1.9211  0.3905
 3246TIP3    H231230   4.536   1.222   5.610 -1.0075  0.4636  1.3886
 3247TIP3   OH231231   5.179   0.004  14.406 -0.3856 -0.1825  0.5467
 3247TIP3    H131232   5.227   0.054  14.472 -3.4036  2.5058  0.8693
 3247TIP3    H231233   5.209   0.041  14.323 -1.3901  1.0897  0.7261
 3248TIP3   OH231234   2.141   1.350  15.602 -0.6050 -0.1189 -0.1179
 3248TIP3    H131235   2.219   1.302  15.574  0.5634  2.1400 -0.9064
 3248TIP3    H231236   2.100   1.293  15.667  1.8763 -1.2298  0.5571
 3249TIP3   OH231237   6.248   4.583   2.589 -0.3443 -0.5834 -0.5084
 3249TIP3    H131238   6.169   4.638   2.592 -0.6260 -1.0632  0.9366
 3249TIP3    H231239   6.305   4.628   2.526  0.2833  2.4839  2.1415
 3250TIP3   OH231240   0.459   0.723  16.514 -0.1846  0.3154 -0.2674
 3250TIP3    H131241   0.446   0.628  16.515 -0.8787  0.4027 -0.8676
 3250TIP3    H231242   0.552   0.734  16.499 -0.0184 -0.2822  0.3048
 3251TIP3   OH231243   2.465   3.534   0.436  0.1737  0.0689 -0.3217
 3251TIP3    H131244   2.377   3.516   0.403  0.5585 -1.4551 -0.5461
 3251TIP3    H231245   2.515   3.558   0.358 -0.3653  2.3014 -0.0085
 3252TIP3   OH231246   2.387   6.428   4.919 -0.4759 -0.3674 -0.0805
 3252TIP3    H131247   2.367   6.379   4.839  0.6210  0.8066 -1.0831
 3252TIP3    H231248   2.321   6.498   4.922 -1.3778 -1.2227  0.7954
 3253TIP3   OH231249   1.120   2.998   2.499 -0.2406  0.0246 -0.6908
 3253TIP3    H131250   1.170   2.937   2.444 -0.3919 -0.5342 -0.2191
 3253TIP3    H231251   1.184   3.064   2.526  0.0190 -0.1436 -0.8910
 3254TIP3   OH231252   2.475   4.826   5.129  0.2404 -0.3573  0.1219
 3254TIP3    H131253   2.455   4.904   5.078 -2.0160 -1.4150 -0.6878
 3254TIP3    H231254   2.532   4.857   5.200 -0.1295  1.8862 -0.5326
 3255TIP3   OH231255   5.638   3.073  17.008  0.4680  0.2463  0.0323
 3255TIP3    H131256   5.681   3.121  16.937  3.1072 -0.0100  1.4007
 3255TIP3    H231257   5.687   3.097  17.087 -0.6015 -1.6825  1.3233
 3256TIP3   OH231258   1.261   3.453  15.975 -0.1097  0.2286 -0.6823
 3256TIP3    H131259   1.312   3.509  16.032  1.1846  1.0282 -2.5653
 3256TIP3    H231260   1.303   3.367  15.981 -0.5861  0.0583  0.3073
 3257TIP3   OH231261   2.148   0.425   3.684  0.1848  0.4275 -0.6846
 3257TIP3    H131262   2.120   0.349   3.632 -3.5663  1.2849 -0.0235
 3257TIP3    H231263   2.216   0.390   3.742 -2.2057 -2.7250  0.3619
 3258TIP3   OH231264   5.656   6.294  10.864  0.0173  0.0600  0.2880
 3258TIP3    H131265   5.634   6.248  10.783 -0.7745 -0.7623  0.9684
 3258TIP3    H231266   5.576   6.341  10.887 -0.6732 -1.9277  2.0862
 3259TIP3   OH231267   2.328   0.925  14.638  0.0930 -0.1101  0.0403
 3259TIP3    H131268   2.238   0.931  14.606  0.0883  0.3004  0.1233
 3259TIP3    H231269   2.348   0.832  14.637  0.2690 -0.0720 -1.6673
 3260TIP3   OH231270   4.268   5.588   0.440 -0.1110 -0.1432 -0.1267
 3260TIP3    H131271   4.344   5.622   0.487  0.2221  1.2507 -1.6018
 3260TIP3    H231272   4.302   5.561   0.355 -1.2970  0.8169 -0.9400
 3261TIP3   OH231273   2.626   0.228   5.428 -0.4603 -0.2455  0.0808
 3261TIP3    H131274   2.702   0.273   5.465  0.0611 -1.3981  0.4198
 3261TIP3    H231275   2.551   0.269   5.471  0.1011 -1.0412  1.8829
 3262TIP3   OH231276   2.631   3.184  14.624  0.1500  0.4358  0.5663
 3262TIP3    H131277   2.704   3.212  14.568  0.8420  0.2414  1.3656
 3262TIP3    H231278   2.560   3.245  14.603  0.3159  0.2143 -0.7101
 3263TIP3   OH231279   2.014   6.772  11.782  0.0199  0.1897 -0.0503
 3263TIP3    H131280   2.007   6.865  11.763 -0.8568 -0.3628 -2.6296
 3263TIP3    H231281   2.098   6.762  11.827  1.5039  1.8097 -2.3876
 3264TIP3   OH231282   2.539   0.667   2.531  0.6086  0.2198 -0.0703
 3264TIP3    H131283   2.484   0.643   2.457  2.5553  1.3131 -1.9266
 3264TIP3    H231284   2.486   0.648   2.608 -1.2963 -1.3243 -1.7264
 3265TIP3   OH231285   3.846   1.016  14.974  0.3324 -0.5165 -0.4066
 3265TIP3    H131286   3.837   0.928  15.012  1.0696 -0.0370  0.8788
 3265TIP3    H231287   3.756   1.051  14.975  0.3614 -0.4163  1.1620
 3266TIP3   OH231288   6.116   5.119  14.297 -0.8199  0.2695  0.3976
 3266TIP3    H131289   6.190   5.137  14.355 -0.2028 -0.7973 -0.0576
 3266TIP3    H231290   6.092   5.028  14.317 -1.5160  0.3648 -0.0047
 3267TIP3   OH231291   4.286   1.885  15.081 -0.4861 -0.5962 -0.4109
 3267TIP3    H131292   4.229   1.906  15.007 -0.4634  1.8429  0.2279
 3267TIP3    H231293   4.365   1.849  15.040 -0.2003  1.3291 -1.6568
 3268TIP3   OH231294   4.076   2.838  14.694 -0.1434 -0.6938 -0.6614
 3268TIP3    H131295   4.001   2.782  14.712  0.7751 -1.8219 -0.3306
 3268TIP3    H231296   4.097   2.822  14.602 -1.0540  0.5374 -1.1000
 3269TIP3   OH231297   4.937   1.936  16.188  1.1607  0.0466  0.8801
 3269TIP3    H131298   4.927   1.983  16.271 -1.9231 -1.4315  1.4331
 3269TIP3    H231299   4.973   1.851  16.213 -0.4136 -0.6579  0.8411
 3270TIP3   OH231300   6.736   1.027   0.243  0.2451 -0.6881 -0.2956
 3270TIP3    H131301   6.749   1.111   0.289 -0.9055 -0.6633  0.0128
 3270TIP3    H231302   6.648   0.999   0.270  1.5323 -3.2002  1.5275
 3271TIP3   OH231303   0.546   2.555  12.345 -0.2188  0.1541 -0.3651
 3271TIP3    H131304   0.537   2.649  12.361  1.3714  0.6105 -1.9051
 3271TIP3    H231305   0.616   2.549  12.279  0.1334 -2.1377  0.1722
 3272TIP3   OH231306   6.642   6.541  13.053 -0.2995  0.2212 -0.2315
 3272TIP3    H131307   6.564   6.485  13.049 -1.4556  1.7381  0.5718
 3272TIP3    H231308   6.714   6.479  13.066 -0.9794 -1.4490 -3.6628
 3273TIP3   OH231309   6.485   6.558  17.003 -0.0718 -0.4158 -0.3724
 3273TIP3    H131310   6.536   6.488  16.964 -0.3727 -1.1685  0.5692
 3273TIP3    H231311   6.535   6.585  17.080  0.3313  0.8026 -1.0447
 3274TIP3   OH231312   5.251   0.717   2.386 -0.2798  0.1331 -0.2519
 3274TIP3    H131313   5.206   0.796   2.356 -1.4744 -1.0951 -1.7477
 3274TIP3    H231314   5.181   0.653   2.400  0.7999 -1.1029 -0.4107
 3275TIP3   OH231315   4.142   2.265   5.546  0.0641 -0.4993  0.0728
 3275TIP3    H131316   4.217   2.291   5.492  0.4833 -1.6665  0.0736
 3275TIP3    H231317   4.067   2.266   5.487  0.0864  0.6347  0.0604
 3276TIP3   OH231318   2.512   0.878  15.589 -0.5644 -0.2881 -0.0591
 3276TIP3    H131319   2.524   0.866  15.495  1.7350 -0.3580  0.2051
 3276TIP3    H231320   2.512   0.789  15.625 -3.7945 -0.4055 -0.1948
 3277TIP3   OH231321   5.826   0.560  13.833  0.7778  0.1829 -0.1725
 3277TIP3    H131322   5.851   0.620  13.903  3.4324 -0.2162 -0.7439
 3277TIP3    H231323   5.833   0.473  13.871 -2.1397  0.1203  0.3627
 3278TIP3   OH231324   3.730   0.863  12.333 -1.3446  0.2541  0.3187
 3278TIP3    H131325   3.742   0.839  12.425 -0.0426  2.1224  0.6815
 3278TIP3    H231326   3.787   0.804  12.285  0.0945  1.0748  0.9830
 3279TIP3   OH231327   3.317   3.722  15.750 -0.3308 -0.6024  0.5577
 3279TIP3    H131328   3.360   3.639  15.770  0.6726 -0.2606 -0.1545
 3279TIP3    H231329   3.362   3.786  15.805 -1.4057 -0.5944  1.4471
 3280TIP3   OH231330   6.181   5.315   1.687  0.6719 -0.3603 -0.0873
 3280TIP3    H131331   6.143   5.391   1.733  0.4554 -2.1819  2.9013
 3280TIP3    H231332   6.275   5.324   1.699  0.7362  0.1343 -0.9203
 3281TIP3   OH231333   0.295   1.530   5.313  0.0899 -0.3483  0.1911
 3281TIP3    H131334   0.307   1.565   5.225  1.3434 -0.7207  0.1976
 3281TIP3    H231335   0.201   1.517   5.322 -0.2862  1.9113 -0.2287
 3282TIP3   OH231336   2.748   6.375   1.929 -0.1235 -0.1396  0.0157
 3282TIP3    H131337   2.716   6.313   1.863  0.1870 -0.3009  0.0158
 3282TIP3    H231338   2.767   6.321   2.005  1.5833 -0.2673 -0.4777
 3283TIP3   OH231339   4.106   5.922  17.280 -0.3506 -0.7237  0.3038
 3283TIP3    H131340   4.029   5.974  17.304 -0.3136  0.2757 -1.6253
 3283TIP3    H231341   4.093   5.902  17.187  2.0223 -0.0095 -0.2143
 3284TIP3   OH231342   4.042   4.028   0.325  0.5156  0.1136 -0.0099
 3284TIP3    H131343   4.070   4.054   0.237  0.2907 -4.0318 -1.3931
 3284TIP3    H231344   3.947   4.030   0.321  0.5074 -0.0485  0.1253
 3285TIP3   OH231345   1.695   6.611  15.820  0.5844  0.1243  0.5656
 3285TIP3    H131346   1.709   6.528  15.866 -0.3601 -0.2544  0.1837
 3285TIP3    H231347   1.676   6.585  15.730 -0.2483  0.7252  0.5664
 3286TIP3   OH231348   4.445   4.453   6.505  0.2479 -0.1820  0.4045
 3286TIP3    H131349   4.353   4.469   6.526  0.3274 -0.9038  1.3175
 3286TIP3    H231350   4.454   4.358   6.504  1.1209 -0.1163  0.9596
 3287TIP3   OH231351   0.471   1.298   4.740 -0.6274  0.0945 -0.0828
 3287TIP3    H131352   0.487   1.274   4.649  0.0770 -2.4447  0.6646
 3287TIP3    H231353   0.534   1.368   4.758 -1.1181  0.9705 -1.6680
 3288TIP3   OH231354   0.053   5.264   5.490 -0.2889  0.4358  0.2613
 3288TIP3    H131355   0.092   5.206   5.556 -0.3220  1.5192  1.2512
 3288TIP3    H231356  -0.041   5.256   5.504 -0.3775 -0.9114 -1.0339
 3289TIP3   OH231357   1.260   6.263   4.668 -0.1448 -0.1884 -0.2609
 3289TIP3    H131358   1.305   6.250   4.751  1.1327  2.5360 -0.4938
 3289TIP3    H231359   1.176   6.217   4.679 -0.0260  0.1989  2.5331
 3290TIP3   OH231360   0.515   4.587   2.100  0.3204  0.3096  0.2739
 3290TIP3    H131361   0.437   4.641   2.106 -0.2244 -0.3713 -0.6437
 3290TIP3    H231362   0.586   4.643   2.133 -0.3207  1.3808 -0.1490
 3291TIP3   OH231363   1.854   4.538   2.216  0.5601 -0.2038 -0.0452
 3291TIP3    H131364   1.880   4.599   2.146 -0.8325  0.7512  0.2299
 3291TIP3    H231365   1.926   4.540   2.278 -0.8195  3.7707  1.5996
 3292TIP3   OH231366   3.854   2.310  13.978  0.3829 -0.1078 -0.0059
 3292TIP3    H131367   3.944   2.325  13.950  0.1399  1.6383  0.0865
 3292TIP3    H231368   3.828   2.391  14.023 -0.8614 -1.0040  0.9577
 3293TIP3   OH231369   4.277   1.640  12.818  0.0025  0.0243 -0.4408
 3293TIP3    H131370   4.334   1.708  12.782 -2.7112  2.7250  0.2022
 3293TIP3    H231371   4.269   1.663  12.911 -0.5831 -1.4566 -0.1142
 3294TIP3   OH231372   0.999   2.827   4.513  0.3690 -0.1033  1.4791
 3294TIP3    H131373   1.012   2.842   4.606  0.9959  0.5867  1.2836
 3294TIP3    H231374   1.037   2.740   4.497 -1.5202 -1.1114  2.2298
 3295TIP3   OH231375   4.203   2.242   0.305 -0.1845 -0.8365 -0.1217
 3295TIP3    H131376   4.204   2.193   0.223 -0.4955 -1.1019  0.0276
 3295TIP3    H231377   4.227   2.331   0.280  1.1127 -1.2267 -0.2802
 3296TIP3   OH231378   1.030   5.443   1.910  1.0001 -0.4410 -0.7693
 3296TIP3    H131379   1.013   5.508   1.978 -1.7075 -1.4741 -0.3809
 3296TIP3    H231380   1.102   5.480   1.859  0.2327  2.3891  0.0619
 3297TIP3   OH231381   0.852   0.918   6.726  0.0608 -1.1871 -0.0619
 3297TIP3    H131382   0.790   0.846   6.717  0.8617 -1.8420 -0.2917
 3297TIP3    H231383   0.818   0.986   6.667 -1.6086 -0.7191  1.3684
 3298TIP3   OH231384   5.241   6.421   4.822  0.0514  0.3746 -0.0509
 3298TIP3    H131385   5.303   6.446   4.754  0.8899  1.3689  1.0718
 3298TIP3    H231386   5.216   6.504   4.863  0.9213 -0.3799  2.0354
 3299TIP3   OH231387   2.111   5.443  11.747  0.7066 -0.9318  0.0065
 3299TIP3    H131388   2.156   5.453  11.663  0.8663 -0.9879  0.0871
 3299TIP3    H231389   2.053   5.519  11.752  0.4020 -1.1367 -0.3425
 3300TIP3   OH231390   2.348   4.983  13.901  0.3508  0.3718 -0.1130
 3300TIP3    H131391   2.318   4.990  13.810  1.8880 -0.4061 -0.6947
 3300TIP3    H231392   2.442   4.997  13.897  0.6095 -0.7785  1.2093
 3301TIP3   OH231393   3.929   0.766   3.688 -0.5698  0.2120  0.2436
 3301TIP3    H131394   3.917   0.837   3.625 -0.7959 -0.3571 -0.3589
 3301TIP3    H231395   3.961   0.692   3.635  1.5689  0.4385  1.1445
 3302TIP3   OH231396   2.465   0.989  14.397 -0.4505  0.3394  0.5258
 3302TIP3    H131397   2.442   1.016  14.485 -1.5171  1.5989 -0.1155
 3302TIP3    H231398   2.401   0.921  14.375 -0.0493 -0.1298  0.7888
 3303TIP3   OH231399   6.726   3.679  15.346  0.1410  0.1939 -0.1540
 3303TIP3    H131400   6.762   3.748  15.291 -0.9680 -0.5264 -1.8487
 3303TIP3    H231401   6.632   3.680  15.328 -0.0897 -0.7819  0.9028
 3304TIP3   OH231402   0.342   0.111   0.974 -0.3812  0.1007 -0.1922
 3304TIP3    H131403   0.329   0.142   0.884  0.7542 -0.0952 -0.4406
 3304TIP3    H231404   0.435   0.087   0.977 -1.0354 -2.4759  0.2387
 3305TIP3   OH231405   1.536   2.334   5.785 -0.6143 -0.2183  0.0638
 3305TIP3    H131406   1.583   2.413   5.756  0.0237 -1.6224 -2.9784
 3305TIP3    H231407   1.600   2.264   5.776 -2.7079 -1.8749 -2.3739
 3306TIP3   OH231408   0.947   1.988  12.362 -0.9076 -0.4772  0.2903
 3306TIP3    H131409   0.901   2.045  12.300 -0.4535 -1.0058 -0.5451
 3306TIP3    H231410   0.905   1.903  12.352 -0.3150 -0.7554  0.1378
 3307TIP3   OH231411   0.798   4.293   5.416  0.0633  0.1737  0.4167
 3307TIP3    H131412   0.883   4.323   5.384  0.2860  0.4123  1.2248
 3307TIP3    H231413   0.812   4.200   5.436 -0.2315 -0.1201 -0.7041
 3308TIP3   OH231414   0.793   5.678   4.805  0.8285 -0.1356  0.2361
 3308TIP3    H131415   0.818   5.640   4.720 -0.7300 -0.5489 -0.0446
 3308TIP3    H231416   0.732   5.748   4.782 -0.9134 -1.3410  1.1038
 3309TIP3   OH231417   2.231   0.841   6.221  0.1744 -0.2592  1.0289
 3309TIP3    H131418   2.232   0.913   6.157  0.0684  0.2817  1.6313
 3309TIP3    H231419   2.296   0.866   6.286  0.2407 -0.7852  1.1700
 3310TIP3   OH231420   0.180   1.973   4.350  0.5868 -0.1411  0.0818
 3310TIP3    H131421   0.256   1.915   4.348  0.5577 -0.1516 -1.6320
 3310TIP3    H231422   0.191   2.030   4.274 -0.3401  0.8760  0.6907
 3311TIP3   OH231423   5.154   2.874   4.882 -0.1316  0.0535  0.4230
 3311TIP3    H131424   5.092   2.943   4.859  2.2444  1.7846 -0.9964
 3311TIP3    H231425   5.168   2.825   4.801 -0.2478 -0.8414  0.9312
 3312TIP3   OH231426   6.342   4.195   2.880  0.0225  0.1775  0.1216
 3312TIP3    H131427   6.343   4.252   2.804  0.6160 -0.3922 -0.3096
 3312TIP3    H231428   6.383   4.114   2.849 -0.9287 -0.5209  0.6832
 3313TIP3   OH231429   6.584   6.057   4.954 -0.2324 -0.1283 -0.2553
 3313TIP3    H131430   6.597   5.962   4.950 -0.0690 -0.1682  1.1972
 3313TIP3    H231431   6.575   6.077   5.047 -1.5185  1.1297 -0.6388
 3314TIP3   OH231432   5.245   3.172   0.061  0.0053  0.1738 -0.6002
 3314TIP3    H131433   5.200   3.225  -0.004 -0.1037 -0.2788 -0.8905
 3314TIP3    H231434   5.177   3.146   0.123  0.0794  0.4657 -0.3895
 3315TIP3   OH231435   0.755   3.924   1.257 -1.1251 -0.2945  0.0330
 3315TIP3    H131436   0.684   3.868   1.290 -2.2279  1.5354  0.8491
 3315TIP3    H231437   0.735   4.011   1.292  1.6653  0.2147  0.4908
 3316TIP3   OH231438   2.382   0.992  11.997 -1.0417 -0.4972 -0.2837
 3316TIP3    H131439   2.462   1.006  12.048 -0.2924 -3.5484 -0.5695
 3316TIP3    H231440   2.406   1.018  11.908 -0.1760 -1.8858 -0.4749
 3317TIP3   OH231441   0.241   3.897   4.375 -0.2330 -0.1767 -0.2448
 3317TIP3    H131442   0.198   3.820   4.411 -0.7019 -1.1622 -2.7756
 3317TIP3    H231443   0.335   3.879   4.385 -0.3645  0.1811  1.6699
 3318TIP3   OH231444   5.807   4.302  14.378  0.2370  0.6018  0.0944
 3318TIP3    H131445   5.779   4.217  14.411 -1.4737  0.5570 -1.4240
 3318TIP3    H231446   5.873   4.331  14.442  0.1190 -1.3864  1.1750
 3319TIP3   OH231447   5.401   5.801   5.062 -0.1195  0.2728  0.0903
 3319TIP3    H131448   5.418   5.767   4.974 -1.6043  1.6723 -0.7659
 3319TIP3    H231449   5.486   5.831   5.093  0.4643 -0.4802 -0.7404
 3320TIP3   OH231450   3.978   4.270  17.147 -0.5097 -0.6164 -0.1432
 3320TIP3    H131451   3.968   4.325  17.224  0.3520 -0.8338  0.1297
 3320TIP3    H231452   3.889   4.259  17.114 -0.8937 -0.5593  0.8421
 3321TIP3   OH231453   3.655   6.345   5.719  0.5092 -0.5713  0.1323
 3321TIP3    H131454   3.576   6.341   5.773 -0.1555 -1.2162 -0.8755
 3321TIP3    H231455   3.694   6.430   5.740  0.6966 -1.1709  2.2368
 3322TIP3   OH231456   0.662   6.241  11.994 -0.4221  0.4580  0.9588
 3322TIP3    H131457   0.613   6.159  11.994 -0.3678  0.4257  0.9196
 3322TIP3    H231458   0.595   6.308  11.978 -0.5124  0.4510  1.3118
 3323TIP3   OH231459   6.342   3.152  13.502 -0.0724 -0.1276  0.0965
 3323TIP3    H131460   6.393   3.077  13.471 -0.2607 -0.0293 -0.4547
 3323TIP3    H231461   6.253   3.134  13.472 -0.3087 -0.1659  0.8208
 3324TIP3   OH231462   2.914   0.939  16.289  0.1533 -0.9766  0.5658
 3324TIP3    H131463   2.976   0.969  16.222 -0.4847 -2.0037 -0.5238
 3324TIP3    H231464   2.969   0.905  16.359  0.8425  0.4484  0.7251
 3325TIP3   OH231465   1.430   3.271   3.286  0.3208  0.2387  0.6375
 3325TIP3    H131466   1.428   3.352   3.235  0.2229  0.4639  0.9918
 3325TIP3    H231467   1.447   3.202   3.222 -2.2597  0.2062 -0.0789
 3326TIP3   OH231468   0.882   5.854  11.839 -0.2803  0.2891 -0.0236
 3326TIP3    H131469   0.896   5.915  11.912  0.5453  0.6161 -0.4381
 3326TIP3    H231470   0.788   5.857  11.822 -0.4580  0.3166  0.9320
 3327TIP3   OH231471   4.285   3.611   2.582  0.2674  0.3280  0.8927
 3327TIP3    H131472   4.226   3.546   2.620  2.7049 -2.2647  0.4153
 3327TIP3    H231473   4.323   3.656   2.658  2.2892 -2.2577  1.4732
 3328TIP3   OH231474   2.213   3.485   2.006 -0.7067 -0.1936  0.2551
 3328TIP3    H131475   2.121   3.479   1.979 -0.5222  0.3464 -0.5429
 3328TIP3    H231476   2.259   3.426   1.946 -0.0948  2.1291 -1.6419
 3329TIP3   OH231477   1.092   4.251   1.196  0.1328 -0.3371 -0.3317
 3329TIP3    H131478   1.140   4.283   1.272  0.6319 -1.3338 -0.2281
 3329TIP3    H231479   1.105   4.156   1.197  0.7678 -0.2872 -2.0782
 3330TIP3   OH231480   6.310   0.950   2.447  0.8192 -0.5907 -0.8729
 3330TIP3    H131481   6.215   0.957   2.445  0.7839  0.0452  1.8345
 3330TIP3    H231482   6.328   0.871   2.498  1.7494  0.8958  1.1490
 3331TIP3   OH231483   5.748   3.364  16.989 -0.1793 -0.0782 -0.0520
 3331TIP3    H131484   5.757   3.450  16.948 -0.8717  0.1486  0.2695
 3331TIP3    H231485   5.834   3.347  17.028 -0.9765  1.9291  2.7238
 3332TIP3   OH231486   1.521   4.554  11.238 -0.8316 -0.0251  0.4360
 3332TIP3    H131487   1.552   4.593  11.156  0.7577  1.3584  1.6553
 3332TIP3    H231488   1.427   4.542  11.225 -0.6087  0.2139 -1.5601
 3333TIP3   OH231489   1.202   5.524   2.238 -0.6620  0.4000 -0.5357
 3333TIP3    H131490   1.257   5.601   2.252 -1.3205  1.2367 -2.2923
 3333TIP3    H231491   1.264   5.452   2.223 -0.0532  0.7468  0.2849
 3334TIP3   OH231492   3.263   3.482  11.580 -0.1607 -0.0170 -0.2098
 3334TIP3    H131493   3.357   3.485  11.601 -0.0099  1.0854 -0.9466
 3334TIP3    H231494   3.259   3.511  11.489 -1.2239 -0.0495 -0.1728
 3335TIP3   OH231495   0.252   3.406  14.628  0.1381 -0.3906  0.0959
 3335TIP3    H131496   0.252   3.317  14.592  3.6491 -0.2045 -0.6198
 3335TIP3    H231497   0.298   3.458  14.562 -0.7747  1.6944  1.0734
 3336TIP3   OH231498   2.349   2.442   4.001 -0.4800 -0.5141 -0.3407
 3336TIP3    H131499   2.335   2.399   3.916  0.5722 -1.1945 -0.1827
 3336TIP3    H231500   2.329   2.373   4.065 -0.0980 -0.3582 -0.0574
 3337TIP3   OH231501   5.198   2.242   5.226 -0.6021  0.2233  0.0223
 3337TIP3    H131502   5.246   2.178   5.279  0.8248 -0.0405 -1.5267
 3337TIP3    H231503   5.254   2.320   5.225  0.2289 -0.3500 -2.4449
 3338TIP3   OH231504   4.300   1.621  13.093 -0.3801 -0.2616  0.0117
 3338TIP3    H131505   4.320   1.531  13.118 -2.0696 -0.9415 -0.9747
 3338TIP3    H231506   4.218   1.641  13.138 -0.7966  0.2629 -0.9650
 3339TIP3   OH231507   0.336   4.649   5.428 -0.5194  0.2903  0.0314
 3339TIP3    H131508   0.280   4.726   5.428  2.0948  2.2941  0.4865
 3339TIP3    H231509   0.279   4.577   5.453 -3.1662  1.9731 -0.9654
 3340TIP3   OH231510   5.583   3.628  16.296 -0.0290 -0.0517 -0.0878
 3340TIP3    H131511   5.546   3.539  16.292  1.7065 -0.8504  0.9344
 3340TIP3    H231512   5.535   3.677  16.230 -3.6858 -0.7458  1.9257
 3341TIP3   OH231513   3.423   3.116  14.047 -0.3022 -0.5674  0.1735
 3341TIP3    H131514   3.449   3.152  14.132 -0.1583  1.4635 -0.7119
 3341TIP3    H231515   3.498   3.133  13.990 -0.5653 -1.5511 -0.4938
 3342TIP3   OH231516   1.164   1.997   4.903 -0.1193 -0.0040 -0.0526
 3342TIP3    H131517   1.133   1.967   4.988 -1.9494  0.8591 -0.3883
 3342TIP3    H231518   1.203   2.082   4.920 -1.5873  0.7334 -0.2262
 3343TIP3   OH231519   5.912   0.939   4.729  0.4692  0.2373  0.2552
 3343TIP3    H131520   5.847   0.884   4.773  1.0256  0.7965  1.7962
 3343TIP3    H231521   5.870   1.025   4.722  1.5224  0.9427  2.4284
 3344TIP3   OH231522   4.972   4.021   1.140  0.2558 -0.1375 -0.1512
 3344TIP3    H131523   4.897   4.073   1.169  0.3075 -0.2527  0.1958
 3344TIP3    H231524   4.994   4.056   1.054 -0.5389 -0.4665 -0.4887
 3345TIP3   OH231525   1.854   5.060  11.160  0.6519 -0.0338  0.4218
 3345TIP3    H131526   1.847   4.980  11.108  1.1555 -0.0428  0.3603
 3345TIP3    H231527   1.769   5.102  11.151  0.1884 -0.8523  0.9245
 3346TIP3   OH231528   5.835   5.337  16.631 -0.5566 -0.2915  0.4185
 3346TIP3    H131529   5.858   5.394  16.703 -1.0586 -0.5430  0.7821
 3346TIP3    H231530   5.817   5.252  16.671  1.6651 -1.1383 -0.2692
 3347TIP3   OH231531   2.132   3.241  14.239  0.3466 -0.1583 -0.2769
 3347TIP3    H131532   2.218   3.283  14.232  0.1311  0.3476  0.0611
 3347TIP3    H231533   2.099   3.239  14.149  0.3322  0.4548 -0.2878
 3348TIP3   OH231534   4.405   3.851   5.505 -0.0163 -0.6839  0.0261
 3348TIP3    H131535   4.481   3.842   5.447  1.8414  1.3305  2.0315
 3348TIP3    H231536   4.389   3.762   5.538  1.3027 -1.1803 -0.6455
 3349TIP3   OH231537   4.179   2.683   1.959  0.1867 -0.6045  0.1144
 3349TIP3    H131538   4.153   2.629   1.884  0.6700 -2.7580  1.4508
 3349TIP3    H231539   4.271   2.703   1.942  0.1043 -0.4820 -0.2045
 3350TIP3   OH231540   4.324   6.220   0.561  0.5466 -0.1405  0.0256
 3350TIP3    H131541   4.331   6.134   0.603  2.0920 -0.5756 -1.0474
 3350TIP3    H231542   4.335   6.201   0.467 -1.5903  0.9496 -0.4825
 3351TIP3   OH231543   6.374   4.351   2.661  0.4633 -0.6241 -0.2419
 3351TIP3    H131544   6.328   4.433   2.648 -0.7014 -1.0016  1.3592
 3351TIP3    H231545   6.359   4.302   2.581  0.0570  0.2011 -0.6743
 3352TIP3   OH231546   3.358   5.007   4.166 -0.1444 -0.0563 -0.2483
 3352TIP3    H131547   3.384   4.967   4.084  1.1811 -1.2586  0.7324
 3352TIP3    H231548   3.346   4.933   4.226  1.9081  0.9687  1.4750
 3353TIP3   OH231549   2.916   2.910   2.859  0.0727  0.5108  0.2851
 3353TIP3    H131550   2.999   2.911   2.811  0.0975  0.1223  0.3195
 3353TIP3    H231551   2.897   3.003   2.876  0.9195  0.5552  0.9923
 3354TIP3   OH231552   5.570   2.565   3.091  0.0782  0.3262  0.2185
 3354TIP3    H131553   5.530   2.479   3.101 -1.0173  0.5947 -1.7054
 3354TIP3    H231554   5.656   2.548   3.054 -1.3980  0.2055 -3.3423
 3355TIP3   OH231555   0.630   1.507  15.488 -0.6463 -0.2083  0.2962
 3355TIP3    H131556   0.555   1.522  15.546 -0.9217  0.7145 -0.2950
 3355TIP3    H231557   0.706   1.520  15.544 -0.9136  0.3527  0.5339
 3356TIP3   OH231558   0.781   5.517   3.656  0.2993 -0.4806  0.7402
 3356TIP3    H131559   0.702   5.500   3.604  1.0417 -0.9527 -0.2387
 3356TIP3    H231560   0.815   5.430   3.676  0.1223 -0.2985  1.8703
 3357TIP3   OH231561   5.769   1.423  16.494  0.1226  0.0918 -0.3038
 3357TIP3    H131562   5.688   1.428  16.545  0.1917 -3.1594  0.2530
 3357TIP3    H231563   5.826   1.365  16.545  1.8377  0.3033 -1.9247
 3358TIP3   OH231564   4.966   6.411  12.303 -0.3236  0.4589  0.4334
 3358TIP3    H131565   5.056   6.396  12.332  0.0369 -1.6980 -1.6628
 3358TIP3    H231566   4.912   6.373  12.372  0.4309 -0.9243  0.2663
 3359TIP3   OH231567   0.481   1.074   5.869  0.2258  0.0730 -0.3406
 3359TIP3    H131568   0.457   0.982   5.878 -1.5561  0.6634  1.5758
 3359TIP3    H231569   0.492   1.087   5.775 -1.6419 -1.6110 -0.8462
 3360TIP3   OH231570   3.405   4.761   1.392 -0.5141 -0.0530 -0.0208
 3360TIP3    H131571   3.378   4.762   1.484  0.1750  2.6489  0.1915
 3360TIP3    H231572   3.470   4.691   1.387  0.3182  0.5426  1.8262
 3361TIP3   OH231573   3.744   0.119  12.266  0.2558  0.4660  0.3134
 3361TIP3    H131574   3.685   0.044  12.258 -0.1111  0.9064 -1.1529
 3361TIP3    H231575   3.712   0.183  12.203  0.2345  2.1053  1.9138
 3362TIP3   OH231576   3.834   3.913   4.202  0.4094  0.4384  0.3367
 3362TIP3    H131577   3.898   3.843   4.186 -0.5641 -0.6235  1.0023
 3362TIP3    H231578   3.888   3.992   4.213  1.5315 -0.2209 -0.2801
 3363TIP3   OH231579   5.304   5.092  10.909 -0.0141 -0.3948 -0.0902
 3363TIP3    H131580   5.365   5.164  10.921 -2.1726  1.6654 -1.0142
 3363TIP3    H231581   5.302   5.047  10.993  0.7571  1.1118  0.7471
 3364TIP3   OH231582   0.051   1.105   6.218  0.8566 -0.5369 -0.3079
 3364TIP3    H131583   0.016   1.016   6.210  0.8322 -0.5705  0.1376
 3364TIP3    H231584   0.146   1.092   6.222  0.8565 -0.5380 -0.3083
 3365TIP3   OH231585   0.571   5.631   0.073  0.1016 -0.1356  0.4977
 3365TIP3    H131586   0.656   5.670   0.053  0.8534 -1.2714  1.4249
 3365TIP3    H231587   0.554   5.572  -0.001  0.3233 -0.2351  0.5245
 3366TIP3   OH231588   3.625   2.908  16.992  0.0113 -0.1615 -0.1698
 3366TIP3    H131589   3.561   2.975  16.968 -2.5449 -2.3875  0.1179
 3366TIP3    H231590   3.689   2.954  17.046 -0.9018  2.3202 -1.1302
 3367TIP3   OH231591   1.706   4.380  10.801  0.0244  0.0460 -0.0188
 3367TIP3    H131592   1.720   4.285  10.808  0.8256  0.0382 -1.5514
 3367TIP3    H231593   1.793   4.418  10.811 -0.4162  0.6941  1.5104
 3368TIP3   OH231594   5.182   2.452  13.863  0.0916  0.3713 -0.0568
 3368TIP3    H131595   5.135   2.524  13.822  0.5631  0.4277 -0.5062
 3368TIP3    H231596   5.113   2.393  13.896 -0.2882  0.0057 -1.4848
 3369TIP3   OH231597   3.570   4.042  14.423  0.2991 -0.0395  0.3037
 3369TIP3    H131598   3.542   4.133  14.418 -0.7704 -0.3990 -0.6142
 3369TIP3    H231599   3.665   4.045  14.418  0.3615  1.1284  1.9908
 3370TIP3   OH231600   2.767   6.045   5.072 -0.4966 -0.5388 -0.1969
 3370TIP3    H131601   2.745   5.954   5.050 -0.1651 -0.6586 -0.0402
 3370TIP3    H231602   2.780   6.044   5.167  2.8443 -1.0545 -0.5763
 3371TIP3   OH231603   5.656   6.219  15.845 -0.3924  0.5865 -0.7656
 3371TIP3    H131604   5.622   6.274  15.915 -1.8004  1.4276 -2.0854
 3371TIP3    H231605   5.586   6.157  15.827  1.1770 -1.6818  0.7016
 3372TIP3   OH231606   4.540   2.893  12.557  0.2332 -0.0546 -0.1195
 3372TIP3    H131607   4.613   2.886  12.618  0.3443  0.7146 -0.1651
 3372TIP3    H231608   4.559   2.970  12.504 -1.5698  1.3123  1.1570
 3373TIP3   OH231609   4.485   1.242  13.803  0.2257  0.4549 -0.0689
 3373TIP3    H131610   4.497   1.157  13.846  0.4053  1.0876  1.1682
 3373TIP3    H231611   4.453   1.220  13.716  1.8193 -0.9380 -0.3383
 3374TIP3   OH231612   4.730   4.735   5.704 -0.1354 -0.0386 -0.0332
 3374TIP3    H131613   4.825   4.735   5.709 -0.1196 -1.4415  0.0095
 3374TIP3    H231614   4.706   4.827   5.696  1.0791  0.5428  2.4311
 3375TIP3   OH231615   4.795   1.019   2.648  0.3380  0.7957  0.4576
 3375TIP3    H131616   4.711   1.024   2.602  0.7691 -0.5840 -0.5276
 3375TIP3    H231617   4.842   1.098   2.622  0.8230 -0.2616 -2.0529
 3376TIP3   OH231618   4.100   5.871  16.986 -0.4459 -0.4360  0.7834
 3376TIP3    H131619   4.116   5.850  16.894  0.3063  0.6609  0.6641
 3376TIP3    H231620   4.161   5.941  17.006 -1.0487 -0.2314  1.9503
 3377TIP3   OH231621   0.887   3.930  10.472 -0.0702  0.0349  0.3758
 3377TIP3    H131622   0.959   3.988  10.448 -0.0572  0.8329  2.2842
 3377TIP3    H231623   0.824   3.939  10.400  0.5879  1.2869 -0.0629
 3378TIP3   OH231624   3.358   3.550   0.797  0.0546  0.0964 -0.0712
 3378TIP3    H131625   3.296   3.603   0.746  0.1214  0.2955  0.0562
 3378TIP3    H231626   3.417   3.614   0.837  1.0051 -0.1548 -1.0631
 3379TIP3   OH231627   6.118   5.218  13.271 -0.4756 -0.5277  0.2031
 3379TIP3    H131628   6.056   5.168  13.325 -0.6362 -0.3965  0.1430
 3379TIP3    H231629   6.072   5.228  13.187 -0.9548  0.7849  0.6137
 3380TIP3   OH231630   4.605   2.959   0.611 -0.2604  0.1354 -0.9664
 3380TIP3    H131631   4.630   2.880   0.563  0.7619 -0.2188  0.1342
 3380TIP3    H231632   4.553   2.927   0.685  0.8481  0.4335 -0.0601
 3381TIP3   OH231633   5.571   4.688   5.302  0.5016  0.3165  0.1042
 3381TIP3    H131634   5.582   4.640   5.220  1.9050  2.0607 -0.7591
 3381TIP3    H231635   5.629   4.644   5.363  0.3981 -0.2241 -0.1851
 3382TIP3   OH231636   2.725   5.773  17.032  0.2225 -0.4524  0.2664
 3382TIP3    H131637   2.665   5.812  17.096 -3.1181 -1.9095 -1.8021
 3382TIP3    H231638   2.773   5.848  16.996 -0.4641  0.7963  1.8984
 3383TIP3   OH231639   5.024   3.068   1.180 -0.2356 -0.0500 -0.0108
 3383TIP3    H131640   4.995   3.148   1.225 -0.3535  0.5624 -1.1565
 3383TIP3    H231641   5.119   3.071   1.185 -0.0896  1.7157 -2.6132
 3384TIP3   OH231642   3.585   5.938   3.456 -0.3257  0.1822 -0.6046
 3384TIP3    H131643   3.589   6.012   3.516 -0.3867  0.3998 -0.8682
 3384TIP3    H231644   3.535   5.871   3.503 -0.7699  0.5185 -0.5954
 3385TIP3   OH231645   0.751   5.191   5.553  0.0123 -0.4074  0.1660
 3385TIP3    H131646   0.656   5.191   5.567  0.1247 -0.5291  0.9968
 3385TIP3    H231647   0.780   5.108   5.590  0.2713 -1.0203 -1.3762
 3386TIP3   OH231648   1.156   4.509   5.464 -0.1780  0.4987  0.2830
 3386TIP3    H131649   1.250   4.514   5.486 -0.0661  0.2198 -0.1310
 3386TIP3    H231650   1.147   4.426   5.417 -0.8783 -0.1410  1.4992
 3387TIP3   OH231651   2.608   4.853  10.962  0.3805 -0.2633 -0.0001
 3387TIP3    H131652   2.530   4.800  10.944 -0.3983  1.0379 -0.4706
 3387TIP3    H231653   2.663   4.842  10.885 -0.2760  0.5004 -0.5788
 3388TIP3   OH231654   1.948   6.302  12.937  0.5721  0.2221 -0.3372
 3388TIP3    H131655   1.916   6.222  12.894 -2.1678  1.0213  0.1366
 3388TIP3    H231656   1.981   6.272  13.022  0.2761 -0.4890 -0.4677
 3389TIP3   OH231657   3.661   3.536  14.166  0.4095  0.2768 -0.0786
 3389TIP3    H131658   3.615   3.459  14.200 -0.4857  0.6875 -0.3309
 3389TIP3    H231659   3.648   3.603  14.233 -2.2312  1.3953 -1.6145
 3390TIP3   OH231660   2.104   4.761  14.887 -0.3309  0.2969  0.1850
 3390TIP3    H131661   2.045   4.750  14.812 -0.6345 -0.6316  0.5600
 3390TIP3    H231662   2.177   4.812  14.852  0.3354 -1.5504 -1.1791
 3391TIP3   OH231663   2.114   6.612   1.170 -0.5658 -0.1155 -0.0846
 3391TIP3    H131664   2.037   6.556   1.173  0.0373 -0.8490  1.8328
 3391TIP3    H231665   2.186   6.558   1.202  0.4205  1.1177 -0.1524
 3392TIP3   OH231666   5.654   1.276   0.892  0.3459  0.6511 -0.1873
 3392TIP3    H131667   5.672   1.278   0.986  1.8925  1.5767 -0.4782
 3392TIP3    H231668   5.696   1.196   0.861  1.3469  1.2454 -0.3712
 3393TIP3   OH231669   3.818   5.888  16.920 -0.0919  0.0070  0.2409
 3393TIP3    H131670   3.894   5.924  16.966  0.0739  0.4958 -0.4086
 3393TIP3    H231671   3.745   5.944  16.947 -0.1325 -0.1696  0.4998
 3394TIP3   OH231672   1.183   5.429  15.783  0.0648  0.0196 -0.2676
 3394TIP3    H131673   1.244   5.381  15.839 -0.1648 -0.7517 -0.6718
 3394TIP3    H231674   1.127   5.361  15.745  0.7827  0.4238 -2.1323
 3395TIP3   OH231675   1.558   2.480   1.904 -0.0117  0.3205  0.3604
 3395TIP3    H131676   1.652   2.464   1.892  0.0462  1.7177 -1.2224
 3395TIP3    H231677   1.554   2.541   1.977  0.2788 -0.1254  0.7529
 3396TIP3   OH231678   2.436   2.388  15.845  0.1395  0.3858  0.1861
 3396TIP3    H131679   2.363   2.427  15.796 -1.1468  0.3079  1.9815
 3396TIP3    H231680   2.512   2.442  15.821 -0.2160 -0.2986 -2.6629
 3397TIP3   OH231681   5.096   6.266  14.050  0.5471 -0.3164 -0.2613
 3397TIP3    H131682   5.144   6.348  14.058 -0.6740  0.4508 -0.6070
 3397TIP3    H231683   5.053   6.272  13.964  0.3059 -1.2402 -0.2096
 3398TIP3   OH231684   6.384   6.358  12.230  0.2327  0.1195  0.5790
 3398TIP3    H131685   6.408   6.294  12.162 -0.0608  1.1124 -0.4770
 3398TIP3    H231686   6.467   6.393  12.260  0.3103  0.6725 -0.2545
 3399TIP3   OH231687   2.750   4.191   0.228 -0.1549 -0.0384  0.3430
 3399TIP3    H131688   2.744   4.112   0.282 -0.7783  1.5674  2.7058
 3399TIP3    H231689   2.835   4.183   0.184  1.1812 -0.6282  2.8922
 3400TIP3   OH231690   6.378   4.002   0.807 -0.6592  0.4332  1.1682
 3400TIP3    H131691   6.338   4.067   0.866  0.0949  0.9697  1.0952
 3400TIP3    H231692   6.463   4.039   0.785 -1.4233  0.8448 -1.2718
 3401TIP3   OH231693   3.981   2.619   1.388  0.2793 -0.3135  0.2416
 3401TIP3    H131694   3.948   2.556   1.452  1.4292 -1.5060 -0.2893
 3401TIP3    H231695   3.995   2.566   1.309 -2.0827  1.3278 -1.3183
 3402TIP3   OH231696   6.260   0.794  13.260  0.3334  0.1644 -0.0168
 3402TIP3    H131697   6.253   0.702  13.287  1.6456 -0.0535 -0.3933
 3402TIP3    H231698   6.266   0.842  13.343 -2.0636  0.0909  0.2462
 3403TIP3   OH231699   2.774   2.213  14.238 -0.4509  0.1500 -0.4374
 3403TIP3    H131700   2.754   2.212  14.332 -1.6879  1.4559 -0.6765
 3403TIP3    H231701   2.756   2.123  14.209 -0.4545 -0.1553  0.4772
 3404TIP3   OH231702   2.640   3.430   1.720  0.8410 -0.5222 -0.0438
 3404TIP3    H131703   2.569   3.485   1.687  0.6504 -1.5505 -1.4467
 3404TIP3    H231704   2.704   3.491   1.756  0.7512  0.6472 -1.7984
 3405TIP3   OH231705   5.025   0.766  11.310  0.1637 -0.0582 -0.0270
 3405TIP3    H131706   5.071   0.845  11.283 -1.2887  1.0003  0.5456
 3405TIP3    H231707   5.075   0.694  11.270  1.5307  1.1241 -0.4884
 3406TIP3   OH231708   2.605   6.548   3.418  0.0058  0.5945 -0.7600
 3406TIP3    H131709   2.518   6.513   3.437  0.3132 -0.0653 -0.5773
 3406TIP3    H231710   2.665   6.475   3.433  0.5308  0.8599 -1.5233
 3407TIP3   OH231711   6.155   3.960  11.977  0.7866  0.0416 -0.2574
 3407TIP3    H131712   6.225   3.956  12.043  0.8451  0.4740 -0.2921
 3407TIP3    H231713   6.170   4.042  11.931  0.9248 -0.4124 -1.0200
 3408TIP3   OH231714   4.288   6.016   3.742 -0.3750 -0.2067  0.1118
 3408TIP3    H131715   4.334   5.996   3.824  0.5099 -2.3996 -0.8815
 3408TIP3    H231716   4.351   6.064   3.690 -0.2355 -0.5830 -0.0688
 3409TIP3   OH231717   2.529   0.616  15.761  0.2284 -0.4463 -0.3404
 3409TIP3    H131718   2.459   0.561  15.727 -0.5842 -0.1519  0.8347
 3409TIP3    H231719   2.500   0.641  15.848  1.4178  0.3673 -0.1636
 3410TIP3   OH231720   4.393   2.995  11.069  0.2312 -0.1427  0.3341
 3410TIP3    H131721   4.334   3.064  11.037 -0.8876 -0.8938  0.7420
 3410TIP3    H231722   4.480   3.029  11.053 -0.3118  1.4744  0.7387
 3411TIP3   OH231723   3.732   1.342  14.452  0.7486 -0.3899  1.4174
 3411TIP3    H131724   3.758   1.388  14.533  2.5598 -0.2192  0.7544
 3411TIP3    H231725   3.687   1.409  14.400  1.9995  0.2373  1.1261
 3412TIP3   OH231726   0.475   5.974   1.164 -0.5132  0.1181  0.2659
 3412TIP3    H131727   0.437   6.062   1.169 -0.3997  0.0723  2.2860
 3412TIP3    H231728   0.444   5.930   1.243  0.5116 -1.2330 -0.0691
 3413TIP3   OH231729   6.543   5.653   3.373 -0.8443  0.3518  0.1506
 3413TIP3    H131730   6.480   5.682   3.439 -2.3481 -1.3112 -0.4976
 3413TIP3    H231731   6.563   5.563   3.397 -0.8343 -0.0264 -1.2270
 3414TIP3   OH231732   4.288   3.274   2.240  0.1094 -0.6653  0.3484
 3414TIP3    H131733   4.310   3.320   2.321  2.2325 -0.9262 -0.0327
 3414TIP3    H231734   4.289   3.343   2.173 -0.3017 -0.6666  0.3436
 3415TIP3   OH231735   0.781   3.224   1.294 -0.0124 -0.2088  0.5103
 3415TIP3    H131736   0.764   3.157   1.359 -1.7342 -0.1635  0.1197
 3415TIP3    H231737   0.870   3.206   1.264 -0.7768 -2.8881 -0.2632
 3416TIP3   OH231738   2.455   3.934   3.882 -0.0069  0.2671 -0.2039
 3416TIP3    H131739   2.413   3.953   3.798  0.1617 -0.2245 -0.4058
 3416TIP3    H231740   2.546   3.962   3.869  0.0906 -0.0899 -0.2879
 3417TIP3   OH231741   0.745   1.726   5.689  0.5623 -0.6868 -0.0502
 3417TIP3    H131742   0.747   1.820   5.670 -0.3007 -0.9761 -1.6908
 3417TIP3    H231743   0.657   1.711   5.723 -0.4005 -1.3878 -2.6855
 3418TIP3   OH231744   5.684   4.454  14.610  0.1010  0.2030  0.4315
 3418TIP3    H131745   5.723   4.367  14.617  1.2686  0.7788  1.3164
 3418TIP3    H231746   5.710   4.498  14.690 -0.2063  1.4752 -0.1575
 3419TIP3   OH231747   4.817   2.755   3.483 -0.1442 -0.0019 -0.1351
 3419TIP3    H131748   4.727   2.785   3.492 -0.0366  0.4753 -0.5899
 3419TIP3    H231749   4.868   2.816   3.536 -0.3998 -2.1110  2.6729
 3420TIP3   OH231750   0.779   5.448   5.517  0.8998  0.6695 -0.2644
 3420TIP3    H131751   0.748   5.456   5.427 -0.6531 -0.6282  0.1207
 3420TIP3    H231752   0.780   5.353   5.533  1.3944  0.8809  1.0047
 3421TIP3   OH231753   6.098   6.650   4.145 -0.4008 -0.4578 -0.2943
 3421TIP3    H131754   6.113   6.635   4.238 -1.5585  0.9007  0.1164
 3421TIP3    H231755   6.137   6.573   4.102 -0.5768 -1.4903  1.3522
 3422TIP3   OH231756   0.896   1.880   0.280  0.0836 -0.4391  0.7854
 3422TIP3    H131757   0.875   1.965   0.240 -1.0888 -0.2827  1.6735
 3422TIP3    H231758   0.882   1.816   0.210  1.8994  0.1673 -0.1644
 3423TIP3   OH231759   5.142   3.536   4.010  0.2531  0.0922 -0.4430
 3423TIP3    H131760   5.154   3.608   3.948  1.3756 -0.9948 -1.5093
 3423TIP3    H231761   5.169   3.573   4.094  0.1473  1.1298 -0.8585
 3424TIP3   OH231762   1.030   6.604  13.905 -0.7842 -0.9237  0.0633
 3424TIP3    H131763   1.121   6.588  13.930 -1.1133 -1.3810  0.9532
 3424TIP3    H231764   1.037   6.667  13.833  0.1947 -0.2530  0.7219
 3425TIP3   OH231765   2.918   4.077   3.403  0.3876  0.3595 -0.2065
 3425TIP3    H131766   2.883   4.035   3.482 -0.0298 -0.1389 -0.6526
 3425TIP3    H231767   2.989   4.133   3.435  2.2629 -2.1515  0.2245
 3426TIP3   OH231768   4.150   3.669   2.309 -0.4465  0.0203 -0.1690
 3426TIP3    H131769   4.061   3.676   2.275 -0.6817  0.0426  0.4479
 3426TIP3    H231770   4.140   3.675   2.404  0.3248  1.2266 -0.1497
 3427TIP3   OH231771   2.071   2.253  17.218 -0.5397 -0.3752  0.2324
 3427TIP3    H131772   2.137   2.322  17.208 -0.6684 -0.2460  0.2618
 3427TIP3    H231773   2.103   2.181  17.164 -0.7571 -0.0324 -0.3653
 3428TIP3   OH231774   5.178   3.198  15.501 -0.4491  1.0787  0.1660
 3428TIP3    H131775   5.191   3.128  15.437  1.7059 -0.8735  2.6679
 3428TIP3    H231776   5.198   3.278  15.453  1.2732 -0.3614 -1.5927
 3429TIP3   OH231777   1.902   4.568   1.240  0.1610 -0.3056 -0.1816
 3429TIP3    H131778   1.924   4.591   1.150 -1.2337 -1.0242 -0.7238
 3429TIP3    H231779   1.933   4.478   1.250  3.6381  0.9821  1.2449
 3430TIP3   OH231780   1.624   5.061  13.189 -0.2881 -0.1730 -0.1991
 3430TIP3    H131781   1.590   5.140  13.147  0.4666  0.8844  1.1514
 3430TIP3    H231782   1.546   5.009  13.209 -0.8004  0.3037 -0.9220
 3431TIP3   OH231783   0.253   0.223  16.253  0.2459 -0.3670  0.3940
 3431TIP3    H131784   0.316   0.187  16.315  1.2288  2.0776  0.8640
 3431TIP3    H231785   0.208   0.292  16.302  0.8302  1.4027 -1.4838
 3432TIP3   OH231786   5.493   0.830   2.491  0.2879  0.1731  0.0303
 3432TIP3    H131787   5.414   0.806   2.443  0.6500  0.1761 -0.5760
 3432TIP3    H231788   5.540   0.747   2.503  0.8101  0.3564 -0.7354
 3433TIP3   OH231789   1.971   1.731   4.608  0.1228 -0.0602 -0.3398
 3433TIP3    H131790   2.004   1.754   4.694 -0.7550  0.4140 -0.1283
 3433TIP3    H231791   1.911   1.658   4.624  1.8823 -1.6896 -0.8550
 3434TIP3   OH231792   4.440   4.057  11.835 -0.8716 -0.1718  0.1734
 3434TIP3    H131793   4.520   4.070  11.886 -0.9595 -1.0528  0.5505
 3434TIP3    H231794   4.394   3.987  11.881 -1.0610 -0.8278 -0.9908
 3435TIP3   OH231795   5.884   2.747   4.723  0.2404  0.0764  0.8842
 3435TIP3    H131796   5.968   2.703   4.731 -0.1305 -1.3579 -2.3369
 3435TIP3    H231797   5.874   2.795   4.805  2.2439 -3.0777  3.0765
 3436TIP3   OH231798   1.116   3.933   4.488  0.2761  0.5253 -0.9234
 3436TIP3    H131799   1.050   3.987   4.445 -2.1238  0.5744  2.6116
 3436TIP3    H231800   1.085   3.843   4.476  0.0890  0.4817 -0.1849
 3437TIP3   OH231801   2.119   5.225  15.535 -0.2655 -0.3197  0.3842
 3437TIP3    H131802   2.028   5.254  15.527  0.6994  2.2903 -1.7045
 3437TIP3    H231803   2.113   5.129  15.535 -2.9450 -0.2050 -0.6839
 3438TIP3   OH231804   4.525   4.739   4.226 -0.2334 -0.6393 -0.5279
 3438TIP3    H131805   4.524   4.830   4.255  2.4572 -0.7655  0.1276
 3438TIP3    H231806   4.435   4.708   4.239 -1.4675  2.2052 -1.8252
 3439TIP3   OH231807   5.534   4.824   5.661 -0.8437  0.2132  0.6441
 3439TIP3    H131808   5.477   4.890   5.621 -1.6092 -0.4216  0.6538
 3439TIP3    H231809   5.484   4.792   5.736  1.2944  2.5459  3.1131
 3440TIP3   OH231810   3.069   3.089  17.253  0.3622 -0.0514  0.9217
 3440TIP3    H131811   3.017   3.022  17.297 -1.2303  0.9859  0.6600
 3440TIP3    H231812   3.070   3.061  17.161 -1.7262  1.1329  0.5085
 3441TIP3   OH231813   3.108   2.211   3.461 -0.1407  0.2198  0.7843
 3441TIP3    H131814   3.040   2.180   3.522  1.3588  1.3934  3.1063
 3441TIP3    H231815   3.092   2.305   3.453 -1.1412 -0.1191 -1.7419
 3442TIP3   OH231816   0.780   1.706   4.640 -0.2567 -0.7249 -0.1755
 3442TIP3    H131817   0.715   1.770   4.669  0.3927  0.9109 -2.2275
 3442TIP3    H231818   0.864   1.749   4.655  0.2005 -1.2524 -1.2039
 3443TIP3   OH231819   4.899   1.794   5.172  0.3557 -0.1373  0.3558
 3443TIP3    H131820   4.883   1.761   5.260 -0.7803  0.3674  0.3453
 3443TIP3    H231821   4.820   1.771   5.122  0.9744 -0.3974 -0.5238
 3444TIP3   OH231822   0.156   1.472  13.004 -0.3014 -0.0523  0.6308
 3444TIP3    H131823   0.151   1.407  12.934 -2.9872  0.6919  0.0636
 3444TIP3    H231824   0.249   1.479  13.024  0.3566 -1.5096 -1.7004
 3445TIP3   OH231825   0.395   3.957  16.524  0.4289  0.2680  0.5465
 3445TIP3    H131826   0.414   3.895  16.595  0.6633 -0.9593 -0.5649
 3445TIP3    H231827   0.304   3.939  16.501  0.4434  0.4561  0.3451
 3446TIP3   OH231828   4.068   3.790   4.174  0.4208 -0.0550  0.1730
 3446TIP3    H131829   4.163   3.803   4.174  0.4117  0.0617  0.9349
 3446TIP3    H231830   4.056   3.696   4.159  0.6276  0.0751 -0.8258
 3447TIP3   OH231831   6.573   0.038  16.480 -0.0361 -0.0944 -0.1170
 3447TIP3    H131832   6.604  -0.011  16.556  0.4282  0.0515 -0.2117
 3447TIP3    H231833   6.532   0.116  16.516  0.0955 -0.0749 -0.0092
 3448TIP3   OH231834   3.754   3.617  15.486 -0.0267 -0.0159  0.1586
 3448TIP3    H131835   3.684   3.669  15.526  0.8595  0.5443  1.0066
 3448TIP3    H231836   3.833   3.645  15.531  0.4227 -2.4350  0.9463
 3449TIP3   OH231837   2.470   1.728  11.242  0.4114  0.2553  0.6312
 3449TIP3    H131838   2.475   1.681  11.326 -1.1189 -2.1987 -0.6079
 3449TIP3    H231839   2.408   1.799  11.258 -0.8866 -0.9835  1.2539
 3450TIP3   OH231840   5.109   2.905   3.497 -0.0804 -0.1366 -0.1040
 3450TIP3    H131841   5.029   2.945   3.532 -0.4521 -1.2947  0.3987
 3450TIP3    H231842   5.173   2.912   3.568 -0.9528 -2.8465  1.0103
 3451TIP3   OH231843   1.822   2.116   1.081  0.0121 -0.2388  0.3300
 3451TIP3    H131844   1.738   2.094   1.040 -0.1103 -1.0676  1.0077
 3451TIP3    H231845   1.876   2.039   1.067  0.7939  0.4403 -0.4283
 3452TIP3   OH231846   4.736   4.670  14.394  0.3173  1.0020  0.2565
 3452TIP3    H131847   4.803   4.737  14.388  1.0185  0.4159  1.4467
 3452TIP3    H231848   4.782   4.591  14.423 -1.1400  1.0279  2.7899
 3453TIP3   OH231849   6.655   0.484   2.963  0.2712  0.0862  0.0019
 3453TIP3    H131850   6.696   0.522   3.041  1.3099 -0.4857 -0.2577
 3453TIP3    H231851   6.696   0.398   2.955 -1.0604 -0.5434 -0.2033
 3454TIP3   OH231852   5.422   3.689  10.747  0.1384 -0.1571  0.6456
 3454TIP3    H131853   5.389   3.647  10.667  0.5515 -0.2521  0.5257
 3454TIP3    H231854   5.349   3.742  10.777  0.1367  0.2451 -0.0544
 3455TIP3   OH231855   5.677   6.215   3.864  0.1361  0.2054  0.4692
 3455TIP3    H131856   5.636   6.276   3.926  1.3167  1.7053 -0.1762
 3455TIP3    H231857   5.771   6.230   3.876  0.4702 -2.1040  0.8707
 3456TIP3   OH231858   6.409   5.413  14.943  0.1779 -0.8635 -0.2156
 3456TIP3    H131859   6.393   5.321  14.963 -2.9466  0.0552  1.8646
 3456TIP3    H231860   6.462   5.444  15.017 -1.8401 -0.1498  0.9504
 3457TIP3   OH231861   3.861   3.256  12.875  0.2794 -0.4885 -0.4649
 3457TIP3    H131862   3.944   3.300  12.861 -0.2792  0.4695 -0.8029
 3457TIP3    H231863   3.870   3.172  12.830  1.9439 -1.4501  1.5473
 3458TIP3   OH231864   4.783   3.832   6.619 -0.2867  0.0762  0.5032
 3458TIP3    H131865   4.734   3.842   6.700 -0.5394  1.6361  0.1700
 3458TIP3    H231866   4.838   3.910   6.615  1.3211 -1.0460  0.2529
 3459TIP3   OH231867   2.240   2.302   5.789 -0.4059  0.1142  0.3788
 3459TIP3    H131868   2.191   2.345   5.720  0.6741  0.5679 -0.1219
 3459TIP3    H231869   2.270   2.373   5.846 -3.0281 -0.4205  2.4948
 3460TIP3   OH231870   5.379   2.834  14.165  0.3209 -0.0214  0.1958
 3460TIP3    H131871   5.293   2.873  14.150  0.2581  0.4030  1.6496
 3460TIP3    H231872   5.369   2.743  14.136 -0.9165 -0.2535  1.2989
 3461TIP3   OH231873   1.192   3.962   3.162  0.1523  0.1713 -0.0157
 3461TIP3    H131874   1.223   3.941   3.250 -0.8942  0.1830  0.3574
 3461TIP3    H231875   1.135   4.038   3.174 -0.4913 -0.2125 -0.6160
 3462TIP3   OH231876   6.752   5.267   0.126  0.2131 -0.4728 -0.4621
 3462TIP3    H131877   6.659   5.244   0.134  0.1664 -0.0616  0.2259
 3462TIP3    H231878   6.779   5.231   0.042 -0.3982 -1.1958 -0.3479
 3463TIP3   OH231879   1.538   6.772  13.775 -0.4142 -0.0813 -0.2094
 3463TIP3    H131880   1.499   6.684  13.775 -0.7571  0.0718  0.2131
 3463TIP3    H231881   1.565   6.785  13.684 -1.4548 -0.1434 -0.5406
 3464TIP3   OH231882   4.209   4.827   2.578 -0.1247  0.0196  0.2596
 3464TIP3    H131883   4.175   4.858   2.494  0.5101  0.2257  0.0754
 3464TIP3    H231884   4.303   4.843   2.573 -0.3631  2.1673  1.9181
 3465TIP3   OH231885   3.169   0.128   2.774 -0.6413 -0.0151  0.0119
 3465TIP3    H131886   3.169   0.073   2.853  0.6016  0.7349  0.5426
 3465TIP3    H231887   3.206   0.071   2.706 -1.6838 -0.6520 -0.0338
 3466TIP3   OH231888   4.760   2.070   0.069  0.4612  0.1264 -0.3987
 3466TIP3    H131889   4.706   1.995   0.095  0.7535  0.1715  0.3679
 3466TIP3    H231890   4.702   2.126   0.018 -0.0743 -0.0757 -0.0140
 3467TIP3   OH231891   4.435   4.672   1.226 -0.1751  0.3400  0.1176
 3467TIP3    H131892   4.465   4.758   1.255  0.3720 -0.1474  1.0008
 3467TIP3    H231893   4.505   4.640   1.170 -0.9327  0.9928 -1.2286
 3468TIP3   OH231894   6.188   4.456  16.992 -0.6142 -0.2465 -0.4618
 3468TIP3    H131895   6.226   4.511  16.923 -0.6238  0.0310 -0.2472
 3468TIP3    H231896   6.094   4.478  16.990 -0.4694  0.4572  0.2732
 3469TIP3   OH231897   4.305   2.451   0.158 -0.3019 -0.0813 -0.0246
 3469TIP3    H131898   4.280   2.533   0.200 -1.6339 -0.0818 -0.8042
 3469TIP3    H231899   4.394   2.467   0.125 -0.7753  1.2372 -0.6786
 3470TIP3   OH231900   1.196   2.078   1.841 -0.0634 -0.4120  0.0536
 3470TIP3    H131901   1.199   1.993   1.884 -1.7582  0.1995  1.4537
 3470TIP3    H231902   1.287   2.106   1.836  0.6484 -2.9907 -1.8638
 3471TIP3   OH231903   3.001   1.671   1.135 -0.4709 -0.2454 -0.3038
 3471TIP3    H131904   2.915   1.631   1.151 -0.4576 -0.3640 -0.5252
 3471TIP3    H231905   2.990   1.762   1.164 -0.2732 -0.6003  0.9136
 3472TIP3   OH231906   1.020   3.299  13.131  0.0617 -0.2754  0.0898
 3472TIP3    H131907   0.961   3.356  13.178 -1.7638 -1.7590 -0.3433
 3472TIP3    H231908   0.991   3.304  13.040  1.4278 -0.0149 -0.3445
 3473TIP3   OH231909   0.389   4.430   0.633  0.3411  0.0139  0.8470
 3473TIP3    H131910   0.319   4.441   0.699  1.6312 -0.2387  2.2835
 3473TIP3    H231911   0.351   4.465   0.553 -1.0146  0.9931  1.8793
 3474TIP3   OH231912   4.681   1.546  16.517 -1.0183  0.6347  0.7195
 3474TIP3    H131913   4.620   1.597  16.464 -0.0635 -0.6058 -1.6159
 3474TIP3    H231914   4.753   1.606  16.535 -0.6309  0.6170 -0.7111
 3475TIP3   OH231915   2.037   4.607   0.990 -0.0893 -0.6832  0.3165
 3475TIP3    H131916   1.991   4.656   0.921  0.4323  0.0960  0.5075
 3475TIP3    H231917   2.127   4.601   0.959  0.1191 -0.4464  0.8589
 3476TIP3   OH231918   2.689   0.400  14.083  0.4072 -0.1892 -0.8379
 3476TIP3    H131919   2.681   0.368  13.994  0.3773 -1.5881 -0.3487
 3476TIP3    H231920   2.712   0.322  14.134  0.5949  0.6275  0.3399
 3477TIP3   OH231921   2.256   0.046   0.396 -0.2568 -0.2651 -0.2288
 3477TIP3    H131922   2.255  -0.031   0.453  1.9623 -2.4071 -2.9060
 3477TIP3    H231923   2.331   0.097   0.427 -0.1095 -0.5416 -0.1259
 3478TIP3   OH231924   0.429   2.610  16.558 -0.4096  0.2595  0.5853
 3478TIP3    H131925   0.509   2.601  16.609 -0.8020  0.2527  1.2001
 3478TIP3    H231926   0.455   2.587  16.468 -0.0731 -1.3617  1.0680
 3479TIP3   OH231927   4.777   6.132  14.404  0.0882  0.3552 -0.3205
 3479TIP3    H131928   4.732   6.083  14.336 -1.7613  2.1882 -0.4624
 3479TIP3    H231929   4.854   6.079  14.426 -0.6846 -1.4843 -2.0016
 3480TIP3   OH231930   0.358   6.426  17.220  0.2050  0.6442 -0.2675
 3480TIP3    H131931   0.360   6.382  17.135 -1.7380 -0.0856  0.0492
 3480TIP3    H231932   0.378   6.518  17.200  0.8813  0.2726 -1.3553
 3481TIP3   OH231933   5.476   2.721  13.584  0.0358  0.3821  0.0055
 3481TIP3    H131934   5.494   2.710  13.677  0.7320  0.2673 -0.1364
 3481TIP3    H231935   5.408   2.657  13.565 -1.0251  1.2820  0.6997
 3482TIP3   OH231936   5.754   0.342  10.637 -0.2699  0.0153  0.1476
 3482TIP3    H131937   5.677   0.286  10.651 -0.3448  0.2799  0.8177
 3482TIP3    H231938   5.824   0.300  10.688 -0.3052  0.4845  0.5853
 3483TIP3   OH231939   1.270   4.265  15.109 -0.4789 -0.8015 -0.3326
 3483TIP3    H131940   1.255   4.325  15.036  0.1193 -1.0488 -0.6638
 3483TIP3    H231941   1.193   4.276  15.165 -0.1591  0.5848 -0.1654
 3484TIP3   OH231942   5.932   3.662  12.086 -0.0561 -0.3685  0.7346
 3484TIP3    H131943   5.841   3.693  12.080 -0.8503 -2.9288 -1.5056
 3484TIP3    H231944   5.940   3.630  12.176 -2.3892 -2.8305  0.1558
 3485TIP3   OH231945   3.071   4.416  14.515  0.3622 -0.0946 -0.2560
 3485TIP3    H131946   3.043   4.330  14.485  3.5203 -0.5257 -2.2166
 3485TIP3    H231947   3.098   4.461  14.435  0.6545  1.9783  0.9812
 3486TIP3   OH231948   3.480   3.306   2.890  0.7303  0.3926  0.8985
 3486TIP3    H131949   3.461   3.400   2.889  0.1268  0.3167 -3.5345
 3486TIP3    H231950   3.397   3.264   2.910  0.3673  0.7215  0.0921
 3487TIP3   OH231951   4.420   1.993   0.526 -0.2646  0.0406 -0.2476
 3487TIP3    H131952   4.401   2.024   0.615  1.0332  0.5961 -0.1613
 3487TIP3    H231953   4.477   1.917   0.539  2.4978  1.9740 -0.6723
 3488TIP3   OH231954   6.325   3.361  15.150  0.4566  0.0391  0.2614
 3488TIP3    H131955   6.271   3.351  15.072 -0.6447  0.3326  0.9878
 3488TIP3    H231956   6.415   3.357  15.117  0.0208 -2.2951 -0.7191
 3489TIP3   OH231957   4.983   4.421   5.456 -0.5996  0.2101 -0.6144
 3489TIP3    H131958   5.077   4.433   5.444 -0.5568 -0.8647 -1.4053
 3489TIP3    H231959   4.969   4.327   5.446 -1.6136  0.2123  0.5433
 3490TIP3   OH231960   0.125   1.467   2.431  0.4529  0.0082 -0.2518
 3490TIP3    H131961   0.191   1.536   2.424 -0.8870  1.2346 -1.0900
 3490TIP3    H231962   0.046   1.512   2.461 -0.2004 -1.3191  0.0596
 3491TIP3   OH231963   6.475   2.549  15.371 -0.8028 -0.1467 -0.0977
 3491TIP3    H131964   6.527   2.469  15.371 -0.9195 -0.2314  0.9980
 3491TIP3    H231965   6.520   2.607  15.433 -1.5319  0.0972  0.2057
 3492TIP3   OH231966   5.990   0.494   2.421  0.3853  0.1023 -0.2443
 3492TIP3    H131967   5.899   0.464   2.431 -0.3994  1.9116 -1.5727
 3492TIP3    H231968   6.035   0.461   2.498 -1.9402  1.0015  1.5646
 3493TIP3   OH231969   5.844   2.268   0.154 -0.1034 -0.5769 -0.2421
 3493TIP3    H131970   5.761   2.311   0.138  0.6379  0.7202 -0.6347
 3493TIP3    H231971   5.860   2.281   0.248 -0.1452 -0.4555 -0.2517
 3494TIP3   OH231972   1.491   0.351  11.831  0.0335 -0.3577  0.1738
 3494TIP3    H131973   1.404   0.383  11.856  0.0479  0.7518 -1.1412
 3494TIP3    H231974   1.549   0.382  11.900 -0.1099  1.6730 -0.5814
 3495TIP3   OH231975   4.334   4.240  11.686 -0.1136 -0.3278  0.2032
 3495TIP3    H131976   4.400   4.184  11.728 -0.4052 -0.1366  0.9218
 3495TIP3    H231977   4.290   4.182  11.624 -1.9733 -1.5625  2.5761
 3496TIP3   OH231978   4.315   1.112  15.513 -0.4125  0.4474 -0.2321
 3496TIP3    H131979   4.374   1.041  15.540  1.8721  2.2135 -0.4632
 3496TIP3    H231980   4.343   1.134  15.424 -1.5066  1.2240 -0.3875
 3497TIP3   OH231981   4.765   6.003   3.417  0.2365 -0.0754 -0.4461
 3497TIP3    H131982   4.802   6.031   3.334  1.1540  0.5424  0.1755
 3497TIP3    H231983   4.683   5.960   3.393  0.4752  0.1446 -1.6640
 3498TIP3   OH231984   5.186   4.142  16.870  0.1536 -0.4262 -0.1058
 3498TIP3    H131985   5.260   4.089  16.841 -1.0361 -0.9819 -2.2567
 3498TIP3    H231986   5.206   4.230  16.839  0.0336 -0.5303 -0.4814
 3499TIP3   OH231987   4.726   0.475  14.163  0.0715  0.6495 -0.1725
 3499TIP3    H131988   4.644   0.523  14.174 -0.3990  0.0343 -0.9907
 3499TIP3    H231989   4.791   0.527  14.210 -0.4464  2.0516 -0.9924
 3500TIP3   OH231990   3.921   3.755  11.537  0.1093  0.3543 -0.0440
 3500TIP3    H131991   3.952   3.695  11.470  1.0901 -0.1431  0.8274
 3500TIP3    H231992   3.997   3.811  11.556 -0.4916  1.2145 -0.1405
 3501TIP3   OH231993   3.322   3.717  12.705  0.1340 -0.0653  0.4775
 3501TIP3    H131994   3.254   3.650  12.704  0.7684 -0.7068  0.2328
 3501TIP3    H231995   3.362   3.708  12.792  1.4637 -1.2725 -0.2373
 3502TIP3   OH231996   4.473   3.748  13.375  0.4617 -0.1028  0.5478
 3502TIP3    H131997   4.535   3.678  13.393  1.3529  0.4706 -0.1858
 3502TIP3    H231998   4.404   3.707  13.324  2.5125  0.1228 -2.5967
 3503TIP3   OH231999   1.014   2.687  15.476  0.0451 -0.0973  0.2744
 3503TIP3    H132000   0.979   2.765  15.432 -1.8086  0.2937  2.3810
 3503TIP3    H232001   1.003   2.705  15.569  0.8331 -2.3375  0.8324
 3504TIP3   OH232002   6.599   1.274  11.196 -0.4488 -0.3252  0.0996
 3504TIP3    H132003   6.602   1.301  11.105 -2.0671 -0.0670  0.1072
 3504TIP3    H232004   6.611   1.354  11.246  0.8093 -0.5183  0.1307
 3505TIP3   OH232005   0.428   5.490  14.442 -0.4438  0.3937 -0.0271
 3505TIP3    H132006   0.356   5.428  14.450  1.4662 -1.7966  0.6155
 3505TIP3    H232007   0.458   5.480  14.351 -0.2328  0.4848  0.0328
 3506TIP3   OH232008   3.217   1.312  16.347 -0.6172 -0.2272 -0.5502
 3506TIP3    H132009   3.217   1.259  16.427  0.9377  1.9588  0.9408
 3506TIP3    H232010   3.132   1.356  16.347 -1.1665 -1.2760 -0.8274
 3507TIP3   OH232011   3.269   1.964   0.615  0.1672  0.1677 -0.6904
 3507TIP3    H132012   3.283   2.054   0.586 -0.3754  0.7766  0.8744
 3507TIP3    H232013   3.205   1.928   0.554 -1.2160  1.5260 -0.0751
 3508TIP3   OH232014   6.795   5.193  14.060  0.1904  0.0594  0.4094
 3508TIP3    H132015   6.746   5.243  13.995  0.2501  1.6361  1.5209
 3508TIP3    H232016   6.803   5.253  14.134  1.4547 -1.1482  1.2767
 3509TIP3   OH232017   1.496   6.365   4.274  0.1403 -0.3718 -0.1056
 3509TIP3    H132018   1.538   6.280   4.289  1.2685 -0.0143 -1.1874
 3509TIP3    H232019   1.449   6.382   4.356  0.9418 -1.4420  0.6081
 3510TIP3   OH232020   2.158   2.979   0.113  0.4781  0.0845 -0.8101
 3510TIP3    H132021   2.207   2.909   0.156  0.2088  0.9755  1.0245
 3510TIP3    H232022   2.225   3.040   0.081  0.6744  2.0365  2.9460
 3511TIP3   OH232023   3.163   5.817   5.915  0.0877  0.3515  0.7375
 3511TIP3    H132024   3.244   5.766   5.907  0.1990  0.5109  0.8280
 3511TIP3    H232025   3.158   5.837   6.009 -1.8300 -2.5256  1.3076
 3512TIP3   OH232026   3.553   5.499   1.794 -0.5985 -0.2089  0.6256
 3512TIP3    H132027   3.506   5.460   1.721  0.8093 -0.8573  0.0452
 3512TIP3    H232028   3.552   5.431   1.862 -0.1005 -0.3995  0.4429
 3513TIP3   OH232029   0.846   0.882   1.877 -0.3133 -0.1378 -0.1382
 3513TIP3    H132030   0.759   0.916   1.896 -0.1074  0.9313 -1.0446
 3513TIP3    H232031   0.904   0.936   1.931 -0.0164  0.6924 -1.2826
 3514TIP3   OH232032   3.216   0.641  13.784  0.0033 -0.1513  0.0959
 3514TIP3    H132033   3.197   0.729  13.751 -0.7530 -0.4666 -0.3147
 3514TIP3    H232034   3.286   0.609  13.727 -1.3290 -0.7087 -1.2504
 3515TIP3   OH232035   1.916   4.637  12.800  0.1963 -0.4820 -0.0578
 3515TIP3    H132036   1.829   4.617  12.836 -0.5265  2.1739 -0.2756
 3515TIP3    H232037   1.914   4.602  12.711 -1.2210  0.9848 -0.6116
 3516TIP3   OH232038   3.310   1.331   1.105 -0.6184 -0.6874 -0.1049
 3516TIP3    H132039   3.292   1.390   1.032 -0.5875 -0.8850 -0.2716
 3516TIP3    H232040   3.229   1.281   1.115 -1.1985  0.4520  1.0320
 3517TIP3   OH232041   1.913   0.350   0.524  0.2681  0.3541 -0.4551
 3517TIP3    H132042   1.994   0.352   0.474  0.6140  1.2620  0.1240
 3517TIP3    H232043   1.939   0.321   0.611 -0.4998 -2.3370 -1.0584
 3518TIP3   OH232044   5.231   2.127  10.736 -0.7461 -0.2955  0.3668
 3518TIP3    H132045   5.238   2.110  10.642 -0.9002 -1.5140  0.5689
 3518TIP3    H232046   5.293   2.066  10.776 -1.0411 -0.1246  1.0919
 3519TIP3   OH232047   5.971   0.574   0.480 -0.2126  0.4630  0.5203
 3519TIP3    H132048   5.977   0.625   0.399 -2.3320  2.1096  1.3697
 3519TIP3    H232049   6.062   0.552   0.500  0.3533  0.0020 -2.2959
 3520TIP3   OH232050   6.464   5.504  14.476  0.5590 -0.1537  0.0604
 3520TIP3    H132051   6.453   5.409  14.473  1.6206 -0.2939  0.4056
 3520TIP3    H232052   6.416   5.532  14.554 -0.3974 -0.3132 -0.4679
 3521TIP3   OH232053   2.331   6.614  13.719  0.5998  0.3268 -0.2041
 3521TIP3    H132054   2.330   6.708  13.735 -0.1953  0.2460  0.2365
 3521TIP3    H232055   2.278   6.577  13.790 -1.4475 -0.2117 -1.9710
 3522TIP3   OH232056   2.330   3.732  13.607 -0.8309  0.2802 -0.6705
 3522TIP3    H132057   2.251   3.771  13.646  0.2568  1.7598  0.1050
 3522TIP3    H232058   2.315   3.739  13.513 -1.3972  1.0486 -0.5339
 3523TIP3   OH232059   2.468   5.026  15.830 -0.2587 -0.2267 -0.3308
 3523TIP3    H132060   2.444   5.054  15.742  0.4773  2.0865  0.1553
 3523TIP3    H232061   2.525   4.951  15.817  0.3012  0.4515 -1.8760
 3524TIP3   OH232062   1.621   4.086  11.376  0.7150  0.1352 -0.3053
 3524TIP3    H132063   1.529   4.082  11.350  1.0527  0.7040 -1.6041
 3524TIP3    H232064   1.644   4.179  11.371  1.4130 -0.0246 -0.1624
 3525TIP3   OH232065   4.432   2.264  15.498 -0.3746 -0.2082  0.0224
 3525TIP3    H132066   4.409   2.207  15.424 -2.1027  1.0463 -0.4449
 3525TIP3    H232067   4.395   2.221  15.574 -1.4990  0.1716 -0.3014
 3526TIP3   OH232068   2.770   1.296  15.733  0.1091  0.5738  0.3075
 3526TIP3    H132069   2.776   1.205  15.705 -0.0346  1.0802 -1.4452
 3526TIP3    H232070   2.679   1.321  15.716 -0.4347  0.4433  2.7794
 3527TIP3   OH232071   1.359   0.202   4.482  0.4494 -0.7048  0.1477
 3527TIP3    H132072   1.289   0.139   4.498  0.2415  0.4409  4.1088
 3527TIP3    H232073   1.425   0.153   4.433 -1.2387 -2.9852  0.0868
 3528TIP3   OH232074   0.980   2.133   1.217 -0.2116 -0.6080  0.7416
 3528TIP3    H132075   1.026   2.053   1.240 -0.2171 -0.7734  0.1920
 3528TIP3    H232076   1.013   2.199   1.278  0.6173 -0.7696  0.4743
 3529TIP3   OH232077   6.143   2.140  13.792  0.0884 -0.2613  0.0476
 3529TIP3    H132078   6.079   2.179  13.852  0.4819 -0.5185  0.6329
 3529TIP3    H232079   6.098   2.138  13.708 -1.1562 -1.6360  0.7182
 3530TIP3   OH232080   5.467   6.386  14.383 -0.0425  0.2614 -0.0817
 3530TIP3    H132081   5.438   6.440  14.309 -0.5826 -1.0171 -0.8075
 3530TIP3    H232082   5.405   6.407  14.453 -0.1223  0.7382 -0.2884
 3531TIP3   OH232083   1.481   3.302  12.228  0.0936  0.6413  0.0787
 3531TIP3    H132084   1.552   3.330  12.170 -0.6746  2.0007 -0.2283
 3531TIP3    H232085   1.401   3.320  12.178 -0.4817 -0.4849  0.5849
 3532TIP3   OH232086   6.343   6.123  11.621 -0.6007 -0.7144  0.0740
 3532TIP3    H132087   6.301   6.209  11.624  1.5658  0.5072 -2.7874
 3532TIP3    H232088   6.437   6.142  11.614  0.0851 -3.3537  1.3953
 3533TIP3   OH232089   0.413   3.660  10.441 -0.0656 -0.7803 -0.3589
 3533TIP3    H132090   0.415   3.676  10.535 -1.3499 -1.3738 -0.2160
 3533TIP3    H232091   0.371   3.575  10.433 -0.6548 -0.3825 -1.5154
 3534TIP3   OH232092   5.469   4.799  12.344 -0.6172  0.2843 -0.3017
 3534TIP3    H132093   5.522   4.767  12.271 -1.2040  0.0766 -0.6328
 3534TIP3    H232094   5.443   4.888  12.318  0.7494  0.9342  0.4845
 3535TIP3   OH232095   3.426   6.695  15.594 -0.3740  0.0873 -0.1335
 3535TIP3    H132096   3.340   6.695  15.635  0.1480 -1.7774  1.0083
 3535TIP3    H232097   3.471   6.772  15.631 -0.7780 -0.1836  0.9194
 3536TIP3   OH232098   2.110   3.479  13.871 -0.2984 -0.1539 -0.4861
 3536TIP3    H132099   2.119   3.467  13.777  0.4728 -1.4132 -0.2641
 3536TIP3    H232100   2.197   3.507  13.900 -0.1474 -1.1534  0.0468
 3537TIP3   OH232101   5.423   0.097   3.823 -0.3957  0.8118 -0.2669
 3537TIP3    H132102   5.464   0.138   3.900  0.5875 -1.7880  0.6457
 3537TIP3    H232103   5.331   0.090   3.845 -0.0344 -0.3809  0.9145
 3538TIP3   OH232104   2.916   4.780  13.416  0.1090  0.0949 -0.1605
 3538TIP3    H132105   3.008   4.804  13.430  0.0682  0.6990 -0.8633
 3538TIP3    H232106   2.867   4.861  13.433 -0.2290 -0.0587 -0.3887
 3539TIP3   OH232107   1.533   5.136   5.621 -0.3065 -0.0756 -0.1572
 3539TIP3    H132108   1.482   5.148   5.541 -3.6939 -0.4835  1.8330
 3539TIP3    H232109   1.548   5.225   5.653 -1.3385 -0.0157  0.1741
 3540TIP3   OH232110   3.724   4.013   5.263 -0.0930  0.7996 -0.2206
 3540TIP3    H132111   3.740   3.922   5.285 -0.6491  0.7821  0.1260
 3540TIP3    H232112   3.732   4.017   5.167 -1.6203  0.0699 -0.3918
 3541TIP3   OH232113   1.982   4.847   5.649  0.1009  0.1899  0.1431
 3541TIP3    H132114   2.065   4.894   5.646  0.5290 -0.5931 -0.1437
 3541TIP3    H232115   1.925   4.894   5.588  0.5559  0.2746 -0.2090
 3542TIP3   OH232116   4.773   1.907  13.921  0.2439  0.8331 -0.4822
 3542TIP3    H132117   4.796   1.871  13.835  1.9881  1.1176 -0.1509
 3542TIP3    H232118   4.722   1.986  13.901 -2.0576 -0.7963 -1.2177
 3543TIP3   OH232119   0.239   5.530   3.538  0.4037  0.4889 -0.3982
 3543TIP3    H132120   0.164   5.503   3.485 -0.7218  0.2169  1.3159
 3543TIP3    H232121   0.224   5.623   3.554  1.4378  0.8879 -1.6598
 3544TIP3   OH232122   6.468   1.165  15.734  0.1330  0.2314 -0.0038
 3544TIP3    H132123   6.495   1.114  15.658  0.6455  0.1563  0.2264
 3544TIP3    H232124   6.385   1.204  15.708  0.2968  0.1944 -0.6003
 3545TIP3   OH232125   5.034   2.522  15.652  0.5173  0.6098 -0.2500
 3545TIP3    H132126   5.112   2.483  15.693  0.0054 -1.3620 -1.0930
 3545TIP3    H232127   5.050   2.513  15.558  0.3679  2.4416 -0.4511
 3546TIP3   OH232128   0.092   4.342  15.256  0.5776  0.5164 -0.0164
 3546TIP3    H132129   0.131   4.329  15.170 -2.2425 -0.2970 -1.2202
 3546TIP3    H232130  -0.001   4.351  15.239  0.1413  1.8399  2.8340
 3547TIP3   OH232131   0.038   2.091  13.687 -1.0042  0.8544 -0.1792
 3547TIP3    H132132   0.099   2.018  13.700 -0.6991  1.1790  0.2444
 3547TIP3    H232133  -0.034   2.073  13.748 -2.7872 -1.0648 -2.7292
 3548TIP3   OH232134   5.635   0.127  14.763  0.0856  0.2224 -0.5160
 3548TIP3    H132135   5.691   0.065  14.716  2.2387  0.5918  1.4889
 3548TIP3    H232136   5.696   0.186  14.807 -1.8776  0.6394  1.7332
 3549TIP3   OH232137   4.194   3.909   3.003 -0.0536  0.5938  0.0169
 3549TIP3    H132138   4.236   3.947   2.927 -0.7170  1.1089 -0.0970
 3549TIP3    H232139   4.222   3.964   3.076 -0.2365  0.7196 -0.0068
 3550TIP3   OH232140   2.727   6.653  12.492  0.3574  0.1526 -0.0518
 3550TIP3    H132141   2.734   6.731  12.546  1.0762 -0.5570  0.8956
 3550TIP3    H232142   2.704   6.685  12.405 -2.2449  1.2086  0.9932
 3551TIP3   OH232143   4.525   0.275   4.713  0.1179 -0.3519 -0.5808
 3551TIP3    H132144   4.474   0.209   4.761 -1.0323  0.8676 -0.0841
 3551TIP3    H232145   4.545   0.342   4.779 -0.6659  0.8851 -1.5777
 3552TIP3   OH232146   5.752   5.903  14.895  0.3426 -0.3602  0.0255
 3552TIP3    H132147   5.664   5.866  14.898  0.2434 -0.2136 -0.9461
 3552TIP3    H232148   5.761   5.937  14.806  1.1814  0.1156  0.2840
 3553TIP3   OH232149   4.700   1.653  17.144 -0.2458  0.9301 -0.0087
 3553TIP3    H132150   4.786   1.636  17.104 -0.0839  2.1166 -0.1836
 3553TIP3    H232151   4.687   1.581  17.205 -0.3227 -0.7235 -1.9366
 3554TIP3   OH232152   1.333   1.597   0.796 -0.2426  0.1786  0.6892
 3554TIP3    H132153   1.372   1.685   0.798  0.1010  0.0560 -0.3637
 3554TIP3    H232154   1.250   1.609   0.749 -1.0851  0.2753  2.1668
 3555TIP3   OH232155   5.817   5.234  17.279 -0.0537  0.4588  0.0306
 3555TIP3    H132156   5.909   5.207  17.288  0.3720  1.1773 -1.9174
 3555TIP3    H232157   5.778   5.167  17.223 -1.3790 -1.2257  2.9002
 3556TIP3   OH232158   2.662   5.344   4.352 -0.6296  0.0596  0.8774
 3556TIP3    H132159   2.744   5.295   4.346 -1.4225 -1.2368  0.2426
 3556TIP3    H232160   2.663   5.403   4.277  0.4959  1.2807  1.8462
 3557TIP3   OH232161   0.142   2.798   3.155 -0.4771 -0.3158 -0.2114
 3557TIP3    H132162   0.124   2.796   3.249 -1.0008  1.7759 -0.2421
 3557TIP3    H232163   0.055   2.799   3.114 -0.2502  0.2659 -0.6735
 3558TIP3   OH232164   1.148   3.694   1.736 -0.1752 -0.4376  0.1846
 3558TIP3    H132165   1.217   3.711   1.800  0.1367  1.3858 -0.5903
 3558TIP3    H232166   1.080   3.648   1.786  1.4779 -2.0474  0.9971
 3559TIP3   OH232167   0.278   4.153   1.234  0.0526  0.1664  0.2201
 3559TIP3    H132168   0.365   4.189   1.218 -0.8134  1.6473 -1.2572
 3559TIP3    H232169   0.218   4.217   1.195 -1.6261 -1.6353 -0.1975
 3560TIP3   OH232170   5.473   5.446   5.176 -0.7880 -0.3545  0.0509
 3560TIP3    H132171   5.482   5.353   5.158  1.0070 -0.0265 -0.8807
 3560TIP3    H232172   5.527   5.489   5.109 -1.4785  1.3435  0.5497
 3561TIP3   OH232173   2.916   5.977   0.315 -0.5032  0.4980  0.1678
 3561TIP3    H132174   2.941   6.030   0.239  2.3859 -1.9160 -0.6748
 3561TIP3    H232175   2.833   5.937   0.290 -0.8851  1.7887 -0.6586
 3562TIP3   OH232176   2.811   6.332  13.422 -0.1177 -0.2631 -0.0421
 3562TIP3    H132177   2.855   6.417  13.420 -1.8049  0.6090 -1.4495
 3562TIP3    H232178   2.722   6.351  13.451 -0.4189 -1.6179 -0.0142
 3563TIP3   OH232179   2.936   5.931  13.944 -0.0159  0.4789 -0.6509
 3563TIP3    H132180   2.914   5.866  13.878 -0.3708  1.2083 -1.2654
 3563TIP3    H232181   2.928   6.015  13.898 -2.4036  1.1323  0.8962
 3564TIP3   OH232182   1.567   1.182  14.181  0.0324 -0.2533  0.5914
 3564TIP3    H132183   1.477   1.149  14.189  0.4484 -1.4979  0.1561
 3564TIP3    H232184   1.578   1.199  14.088 -0.0997  0.9355  0.7795
 3565TIP3   OH232185   0.904   2.841  11.124 -0.2509 -0.1564 -0.2869
 3565TIP3    H132186   0.961   2.903  11.078  1.0823 -0.5712  0.7727
 3565TIP3    H232187   0.942   2.755  11.105 -0.4102 -0.4192  0.5585
 3566TIP3   OH232188   4.015   5.020   1.043  0.0528 -0.5781 -0.3744
 3566TIP3    H132189   4.067   4.959   0.990  1.7026 -0.8020  1.4470
 3566TIP3    H232190   4.071   5.097   1.052 -0.4731 -0.2967  0.5127
 3567TIP3   OH232191   0.187   0.119   1.440 -0.2529  1.0060 -0.2384
 3567TIP3    H132192   0.144   0.035   1.424 -0.0402  0.6177  1.1073
 3567TIP3    H232193   0.224   0.144   1.356 -2.0725  0.7529 -1.1316
 3568TIP3   OH232194   5.530   6.164   5.460 -0.0149  0.0279 -0.1090
 3568TIP3    H132195   5.447   6.210   5.477 -1.2087 -2.2490  0.3681
 3568TIP3    H232196   5.535   6.097   5.528  2.3492  0.2783  0.0006
 3569TIP3   OH232197   6.738   0.408  11.518  0.1708 -0.1920 -0.8143
 3569TIP3    H132198   6.722   0.493  11.559  0.2646 -0.1733 -0.8159
 3569TIP3    H232199   6.831   0.392  11.532  0.2420 -0.0971 -1.1869
 3570TIP3   OH232200   5.351   4.970   1.122 -0.1293  0.1642 -0.5065
 3570TIP3    H132201   5.445   4.960   1.111  0.0496  0.3284  0.7909
 3570TIP3    H232202   5.341   5.055   1.165 -0.8532  0.0151 -0.3742
 3571TIP3   OH232203   3.289   3.635  14.725 -0.0918 -0.0152 -0.1113
 3571TIP3    H132204   3.307   3.700  14.658  1.7674  1.0197  1.3464
 3571TIP3    H232205   3.277   3.553  14.677  0.8479  0.7801 -1.7085
 3572TIP3   OH232206   5.504   0.925  13.028  0.2570  0.6207 -0.1294
 3572TIP3    H132207   5.450   0.989  12.980  0.6185  1.0118 -0.0172
 3572TIP3    H232208   5.441   0.878  13.083  0.3251  2.8712  1.9977
 3573TIP3   OH232209   2.449   4.068  14.919 -0.0941  0.0886  0.3517
 3573TIP3    H132210   2.363   4.032  14.897  0.4363  0.0076 -1.7226
 3573TIP3    H232211   2.448   4.078  15.014 -1.7872 -1.4398  0.5106
 3574TIP3   OH232212   0.433   4.342  17.132  0.0673 -0.6325 -0.0814
 3574TIP3    H132213   0.526   4.354  17.147  0.0827 -0.8067 -0.0302
 3574TIP3    H232214   0.418   4.373  17.043  0.0775 -0.1169  0.0924
 3575TIP3   OH232215   3.891   6.442  16.162  0.0115  0.3793  0.9202
 3575TIP3    H132216   3.906   6.437  16.257  1.8913 -0.1899  0.6159
 3575TIP3    H232217   3.969   6.483  16.127  0.8317 -2.4115 -0.7277
 3576TIP3   OH232218   3.548   5.334  13.402  0.7528  0.6417 -0.2271
 3576TIP3    H132219   3.494   5.255  13.397 -0.2248  1.2348  0.8819
 3576TIP3    H232220   3.606   5.318  13.476 -0.9994  1.9100  1.4543
 3577TIP3   OH232221   4.064   4.532   5.833 -0.3806  0.1953 -0.4919
 3577TIP3    H132222   4.074   4.438   5.852 -0.2546  0.2803 -0.1361
 3577TIP3    H232223   4.109   4.544   5.749 -1.2504 -0.2438 -1.0254
 3578TIP3   OH232224   4.644   2.884  11.212 -0.1423  0.4697 -0.7113
 3578TIP3    H132225   4.635   2.973  11.246 -0.0333  0.4241 -0.5596
 3578TIP3    H232226   4.572   2.874  11.150 -0.8981  0.2341  0.2020
 3579TIP3   OH232227   0.583   2.826  14.083 -0.3494 -0.2563 -0.2041
 3579TIP3    H132228   0.554   2.747  14.038 -0.1947  0.1231 -0.9799
 3579TIP3    H232229   0.560   2.897  14.024 -0.6505  0.3009  0.5663
 3580TIP3   OH232230   2.436   6.805   5.354 -0.1498  0.6685 -0.1706
 3580TIP3    H132231   2.395   6.862   5.420  0.3055  0.2188  0.5096
 3580TIP3    H232232   2.513   6.769   5.399 -1.7795 -2.4449  0.2452
 3581TIP3   OH232233   4.385   2.724  10.997  0.1435 -0.4309 -0.0801
 3581TIP3    H132234   4.475   2.716  10.965  0.6356  1.4095  0.8103
 3581TIP3    H232235   4.375   2.816  11.021 -1.5856 -0.8702  1.0304
 3582TIP3   OH232236   6.586   5.031   5.683  0.3596 -0.2896  0.3315
 3582TIP3    H132237   6.641   5.006   5.609  0.4979 -1.0950  0.7041
 3582TIP3    H232238   6.636   5.007   5.760 -0.8378 -1.7838  0.6746
 3583TIP3   OH232239   4.645   6.598   3.707 -0.3749  0.1754 -0.3308
 3583TIP3    H132240   4.624   6.547   3.786 -0.3954  0.1070 -0.3805
 3583TIP3    H232241   4.658   6.687   3.739 -0.3164  0.1337 -0.2399
 3584TIP3   OH232242   4.996   3.863  14.844  0.2915 -0.4519 -0.2276
 3584TIP3    H132243   5.003   3.825  14.756 -2.7404  1.1847 -1.2458
 3584TIP3    H232244   5.006   3.957  14.830 -2.0009 -0.0071  0.8972
 3585TIP3   OH232245   4.717   3.721   1.292 -0.4524 -0.2263 -0.0028
 3585TIP3    H132246   4.806   3.756   1.287 -0.4786 -0.3137 -1.3771
 3585TIP3    H232247   4.678   3.767   1.366  0.2215  1.0279 -0.3964
 3586TIP3   OH232248   6.715   2.871  11.762 -0.5240  0.3746  0.1425
 3586TIP3    H132249   6.632   2.879  11.808 -1.0627  1.2227 -0.9675
 3586TIP3    H232250   6.741   2.962  11.744 -0.4161  0.0417 -1.4019
 3587TIP3   OH232251   6.092   5.876  16.095  0.4666 -0.5507 -0.5866
 3587TIP3    H132252   6.128   5.846  16.011  0.5984 -1.2499 -0.2839
 3587TIP3    H232253   6.039   5.803  16.126 -0.4807  0.1331 -0.5832
 3588TIP3   OH232254   3.589   0.211  11.055 -0.1153 -0.4143 -0.1817
 3588TIP3    H132255   3.583   0.269  10.978  1.9098 -0.0024 -0.0486
 3588TIP3    H232256   3.607   0.270  11.128 -2.4125 -0.7631  0.7159
 3589TIP3   OH232257   2.584   1.395   3.377 -0.0445  0.2746 -0.4796
 3589TIP3    H132258   2.542   1.315   3.346  2.0675 -1.6418  1.4181
 3589TIP3    H232259   2.658   1.407   3.318  0.4626  0.0085  0.0940
 3590TIP3   OH232260   1.208   2.061  15.281 -0.1142  0.2801  0.5086
 3590TIP3    H132261   1.184   2.128  15.344 -1.6053  0.8612 -0.6547
 3590TIP3    H232262   1.155   2.079  15.204  0.5799 -1.3160 -0.3895
 3591TIP3   OH232263   5.725   5.647  16.367  0.8974 -0.0104 -0.1672
 3591TIP3    H132264   5.659   5.705  16.330  2.5655  1.7173 -0.5325
 3591TIP3    H232265   5.690   5.559  16.353 -0.9893  0.8277 -0.9602
 3592TIP3   OH232266   0.947   1.316   6.046  0.5288  0.3658 -0.8292
 3592TIP3    H132267   0.928   1.235   5.999 -0.6632  1.3597 -2.0960
 3592TIP3    H232268   0.900   1.383   5.997  2.2716  1.9685 -0.3572
 3593TIP3   OH232269   6.232   3.163  14.556 -0.2083 -0.0174 -0.2066
 3593TIP3    H132270   6.300   3.220  14.521 -0.2480 -0.4496 -0.9859
 3593TIP3    H232271   6.276   3.109  14.622 -0.2075  1.0278  0.6643
 3594TIP3   OH232272   1.979   2.766  14.227  0.0940 -0.5727 -0.1212
 3594TIP3    H132273   1.987   2.814  14.144 -0.7045  2.1655  1.3483
 3594TIP3    H232274   1.891   2.728  14.223 -1.1246  2.0918  0.7596
 3595TIP3   OH232275   4.356   5.504  10.237  0.0146 -0.1811 -0.1835
 3595TIP3    H132276   4.340   5.420  10.281  0.8913 -0.6244 -0.6771
 3595TIP3    H232277   4.300   5.501  10.159  1.9323 -1.4460 -1.5656
 3596TIP3   OH232278   1.216   0.594  16.645 -0.0720 -0.6636  0.2454
 3596TIP3    H132279   1.195   0.638  16.562 -1.3621 -0.8932  0.4436
 3596TIP3    H232280   1.214   0.664  16.710 -0.8176 -0.7932  0.3590
 3597TIP3   OH232281   3.251   6.179  15.952 -0.4621  0.5802 -0.0850
 3597TIP3    H132282   3.296   6.236  16.015 -0.3620  1.4988 -0.9570
 3597TIP3    H232283   3.161   6.173  15.984 -0.9057  2.5863 -0.8331
 3598TIP3   OH232284   6.243   6.751  14.825  0.1332  0.0781 -0.4915
 3598TIP3    H132285   6.285   6.698  14.757 -0.3729 -0.7364 -0.1702
 3598TIP3    H232286   6.165   6.703  14.849 -0.7902  1.3941 -0.7894
 3599TIP3   OH232287   3.866   0.776   3.278  0.3153  0.4801 -0.3281
 3599TIP3    H132288   3.911   0.847   3.231 -0.4814  2.1034  1.2917
 3599TIP3    H232289   3.804   0.821   3.336 -0.2763 -1.5556  0.6679
 3600TIP3   OH232290   2.365   3.737  16.615 -0.0124  0.1127  1.0179
 3600TIP3    H132291   2.430   3.745  16.546 -1.3188 -0.7101 -0.3375
 3600TIP3    H232292   2.377   3.648  16.649 -0.4035 -0.0230  0.7969
 3601TIP3   OH232293   1.908   5.607  12.143  0.2481 -0.7774 -0.2378
 3601TIP3    H132294   1.826   5.600  12.095 -0.7570 -1.2967  1.5313
 3601TIP3    H232295   1.909   5.696  12.178  0.2823 -0.8824  0.0290
 3602TIP3   OH232296   4.247   1.572   2.712 -0.1244  0.1654 -0.3380
 3602TIP3    H132297   4.281   1.506   2.651  0.8468 -0.4517  0.8640
 3602TIP3    H232298   4.199   1.522   2.778  0.4203  0.6752  0.4495
 3603TIP3   OH232299   1.258   5.167  11.711  0.1987 -0.4802  0.2486
 3603TIP3    H132300   1.280   5.136  11.799 -0.6781 -0.0179  0.6413
 3603TIP3    H232301   1.342   5.190  11.672  0.6227 -0.9706  0.8558
 3604TIP3   OH232302   5.122   5.416  10.746  0.1439 -0.7652 -0.0613
 3604TIP3    H132303   5.108   5.341  10.688  0.8010  0.9280 -2.4445
 3604TIP3    H232304   5.067   5.485  10.710  0.0987  0.1403  1.6988
 3605TIP3   OH232305   1.249   3.225  10.792  0.2034  0.0892 -0.2350
 3605TIP3    H132306   1.256   3.309  10.746  0.3176 -0.4909 -1.2860
 3605TIP3    H232307   1.172   3.235  10.848  0.7861  1.2402  0.3990
 3606TIP3   OH232308   1.808   5.249  13.307  0.2963  0.3112  0.0505
 3606TIP3    H132309   1.751   5.187  13.261  2.2790  0.3968 -2.6599
 3606TIP3    H232310   1.792   5.232  13.400 -3.2364 -0.4526 -0.6069
 3607TIP3   OH232311   6.728   2.467   0.957  0.1182  0.1198 -0.1468
 3607TIP3    H132312   6.637   2.486   0.937  0.0419 -0.3861 -0.3013
 3607TIP3    H232313   6.778   2.537   0.916 -0.3471  1.6086  1.7874
 3608TIP3   OH232314   4.221   3.619  14.598  0.1051  0.1758  0.3700
 3608TIP3    H132315   4.263   3.538  14.626  0.5723 -0.6979 -2.6798
 3608TIP3    H232316   4.271   3.648  14.522 -1.0671  2.4569  0.3902
 3609TIP3   OH232317   6.598   6.019   0.982  0.1091  0.5410 -0.5812
 3609TIP3    H132318   6.605   6.066   1.065 -0.1318 -2.1775  1.0494
 3609TIP3    H232319   6.516   6.050   0.943 -0.5528  0.7191  0.9305
 3610TIP3   OH232320   4.207   3.472  17.282 -0.2969  0.4695 -1.0855
 3610TIP3    H132321   4.262   3.428  17.217 -2.0723 -1.0845 -1.5702
 3610TIP3    H232322   4.207   3.413  17.358  1.6391  2.1978  0.3217
 3611TIP3   OH232323   1.730   0.202  11.814 -0.1054  0.2194 -0.3098
 3611TIP3    H132324   1.649   0.246  11.839  0.0748  1.9863 -2.7176
 3611TIP3    H232325   1.704   0.137  11.749  0.1326 -0.6535  0.4630
 3612TIP3   OH232326   6.054   0.331   0.330 -0.3847  0.3469  0.2077
 3612TIP3    H132327   6.006   0.396   0.279  0.1504  0.6684  0.0998
 3612TIP3    H232328   5.998   0.313   0.405 -1.7779 -1.1024 -1.1429
 3613TIP3   OH232329   5.568   6.675  13.173 -0.4155 -0.0806  0.2670
 3613TIP3    H132330   5.556   6.769  13.185 -0.2485  0.1087 -0.9736
 3613TIP3    H232331   5.577   6.664  13.078 -0.8616 -1.3924  0.3664
 3614TIP3   OH232332   6.141   3.570   0.692  0.1676 -0.6378 -0.2946
 3614TIP3    H132333   6.150   3.646   0.749 -3.0582 -2.1197  2.3289
 3614TIP3    H232334   6.211   3.580   0.628  0.1664  4.2676  0.2758
 3615TIP3   OH232335   6.791   1.225  15.586 -0.0945  0.2649 -0.1623
 3615TIP3    H132336   6.810   1.140  15.625 -0.8685 -0.1712 -0.7051
 3615TIP3    H232337   6.828   1.289  15.646  0.3666 -0.4574  0.3207
 3616TIP3   OH232338   0.675   3.291  13.073 -0.2419 -0.0740  0.1689
 3616TIP3    H132339   0.703   3.371  13.118 -1.5779  0.9566 -0.8096
 3616TIP3    H232340   0.625   3.243  13.140  0.0786  0.1784  0.5920
 3617TIP3   OH232341   5.464   3.200   2.978  0.3363  0.0905  0.0799
 3617TIP3    H132342   5.527   3.235   3.041 -1.1148  3.2614 -0.1699
 3617TIP3    H232343   5.411   3.139   3.030  1.1031  0.3810  1.2165
 3618TIP3   OH232344   1.927   5.255   6.367 -0.0492 -0.0471 -0.2987
 3618TIP3    H132345   1.988   5.326   6.386  1.3775 -0.5491 -2.7093
 3618TIP3    H232346   1.891   5.276   6.281 -1.4784 -0.9946  0.0413
 3619TIP3   OH232347   2.261   5.464  13.548  0.1448  0.0760  0.1327
 3619TIP3    H132348   2.270   5.503  13.461 -0.0787  0.1920  0.1643
 3619TIP3    H232349   2.174   5.491  13.578  0.6411  0.9334  0.8321
 3620TIP3   OH232350   6.473   6.652  15.181  0.5119  0.4977 -0.8367
 3620TIP3    H132351   6.388   6.685  15.153  0.1139 -0.3497 -0.6229
 3620TIP3    H232352   6.457   6.562  15.208  1.1981  0.7704  0.5342
 3621TIP3   OH232353   3.013   3.680  11.933 -0.0900 -0.6274 -0.1711
 3621TIP3    H132354   3.016   3.622  11.857  1.2449 -1.4179  0.4669
 3621TIP3    H232355   2.921   3.679  11.960 -0.2928 -1.5077 -0.8754
 3622TIP3   OH232356   6.675   3.817   4.796 -0.1520 -0.2115 -0.2417
 3622TIP3    H132357   6.660   3.872   4.873  0.1278  0.3596 -0.5970
 3622TIP3    H232358   6.702   3.878   4.727  1.3088 -0.9424 -0.3190
 3623TIP3   OH232359   2.217   5.933  14.212  0.4490  0.3489  0.4012
 3623TIP3    H132360   2.272   5.861  14.178  0.8532  0.0321  1.7155
 3623TIP3    H232361   2.137   5.890  14.242  0.4226  0.5378  0.5981
 3624TIP3   OH232362   0.651   6.598  15.437  0.0446 -0.0950 -0.7324
 3624TIP3    H132363   0.597   6.598  15.358 -0.7917  0.3336 -0.1619
 3624TIP3    H232364   0.635   6.513  15.477 -2.2158  0.9900  0.7842
 3625TIP3   OH232365   1.477   5.259  10.595 -0.2084  0.2414 -0.4427
 3625TIP3    H132366   1.415   5.313  10.546  1.2051  0.0644 -2.4861
 3625TIP3    H232367   1.558   5.311  10.596  0.0217 -0.1272  0.9920
 3626TIP3   OH232368   2.916   5.400  16.276  0.0889  0.1713  0.1057
 3626TIP3    H132369   2.948   5.440  16.357 -0.1310  0.8100 -0.1218
 3626TIP3    H232370   2.886   5.313  16.302  1.5173 -0.2372  0.4261
 3627TIP3   OH232371   0.759   1.635   0.412  0.5434  0.0731 -0.5772
 3627TIP3    H132372   0.794   1.719   0.384  2.4575 -1.2808 -2.3847
 3627TIP3    H232373   0.831   1.573   0.401 -0.4587 -1.6168  1.8684
 3628TIP3   OH232374   6.570   5.710  16.125 -0.4362  0.7256  0.2400
 3628TIP3    H132375   6.568   5.685  16.033 -0.7714  0.9626  0.1793
 3628TIP3    H232376   6.533   5.798  16.127  0.7757  1.2348  0.4444
 3629TIP3   OH232377   0.142   3.605   4.211  0.8261 -0.7283  0.0801
 3629TIP3    H132378   0.050   3.584   4.193  0.6352 -0.2041  0.4280
 3629TIP3    H232379   0.164   3.549   4.286  0.1530  0.7009  1.3632
 3630TIP3   OH232380   2.688   4.212   1.098  0.1614  0.5928  0.3524
 3630TIP3    H132381   2.631   4.155   1.047 -1.3162  1.7983  0.6265
 3630TIP3    H232382   2.693   4.170   1.184 -1.3213  1.1143  0.7073
 3631TIP3   OH232383   4.913   0.235   2.654 -0.1380  0.0779 -0.4357
 3631TIP3    H132384   5.000   0.274   2.653  0.0870 -0.3463  0.8278
 3631TIP3    H232385   4.900   0.201   2.566  1.3726 -0.6880 -0.3818
 3632TIP3   OH232386   5.467   3.031   2.587  0.3467 -0.3270  0.0733
 3632TIP3    H132387   5.532   3.026   2.657  0.2405 -1.0160  0.1289
 3632TIP3    H232388   5.517   3.057   2.510  0.4432  0.5403  0.4287
 3633TIP3   OH232389   1.413   2.316  14.881  0.6680  0.3398 -0.0172
 3633TIP3    H132390   1.355   2.288  14.951 -1.7836  0.8422 -1.7706
 3633TIP3    H232391   1.462   2.238  14.857  0.7957 -0.0740  1.5389
 3634TIP3   OH232392   5.705   2.287  13.250 -0.7126 -0.2093  0.3089
 3634TIP3    H132393   5.679   2.324  13.334  1.4807 -0.1726  1.0081
 3634TIP3    H232394   5.798   2.310  13.241 -0.6995 -0.9373 -1.7263
 3635TIP3   OH232395   4.961   4.755   4.472  0.2115 -0.3561  0.4211
 3635TIP3    H132396   5.028   4.762   4.541  1.8540 -0.3583 -1.1517
 3635TIP3    H232397   4.883   4.795   4.510  2.4850  4.2406  0.4905
 3636TIP3   OH232398   1.910   1.880  13.560 -0.4677 -0.2509 -0.7432
 3636TIP3    H132399   1.882   1.949  13.500  0.2221  0.9188  0.2356
 3636TIP3    H232400   1.861   1.898  13.641 -0.2350 -0.8688 -0.4635
 3637TIP3   OH232401   3.975   5.579  13.680 -0.4508 -0.4480 -0.3571
 3637TIP3    H132402   3.980   5.555  13.772 -0.5754  0.8363 -0.0023
 3637TIP3    H232403   3.976   5.675  13.680  0.9205 -0.4340 -1.7597
 3638TIP3   OH232404   4.140   2.577   1.700  0.2258  0.1869  0.7552
 3638TIP3    H132405   4.138   2.652   1.640 -0.6788  1.1314  1.9410
 3638TIP3    H232406   4.171   2.505   1.647 -1.6220  0.7531 -1.1700
 3639TIP3   OH232407   1.689   0.648  13.908 -0.3944 -0.2610  0.0684
 3639TIP3    H132408   1.663   0.731  13.950  0.0168 -1.5559  2.9991
 3639TIP3    H232409   1.784   0.654  13.901 -0.4443 -0.1330 -0.4897
 3640TIP3   OH232410   1.377   0.242   1.214 -0.3622  0.4733 -0.0002
 3640TIP3    H132411   1.411   0.193   1.139  0.8487  0.7706  0.3484
 3640TIP3    H232412   1.364   0.330   1.181  0.4951  0.6874  0.2238
 3641TIP3   OH232413   3.527   1.145   6.067  0.2376  0.3590 -0.1411
 3641TIP3    H132414   3.468   1.217   6.088 -1.3331 -0.2500 -2.2588
 3641TIP3    H232415   3.513   1.081   6.137 -0.6025  0.8193  0.1217
 3642TIP3   OH232416   4.883   5.322  13.510  0.0431 -0.1595 -0.0940
 3642TIP3    H132417   4.836   5.321  13.594 -0.9736  0.0571 -0.6598
 3642TIP3    H232418   4.868   5.235  13.474 -0.5958  0.1792 -0.6452
 3643TIP3   OH232419   1.579   4.612   3.068  0.3779  1.2544 -0.0749
 3643TIP3    H132420   1.655   4.612   3.009  0.0734  2.1806 -0.4902
 3643TIP3    H232421   1.504   4.629   3.010 -0.1511  0.3078  0.3227
 3644TIP3   OH232422   6.529   1.778   5.780 -0.1790 -0.2092  0.2241
 3644TIP3    H132423   6.534   1.777   5.875  1.3575 -0.4869  0.1527
 3644TIP3    H232424   6.616   1.804   5.751 -0.2215 -1.4546 -1.1227
 3645TIP3   OH232425   0.996   3.297   6.174  0.1510 -0.0403  0.2589
 3645TIP3    H132426   1.066   3.361   6.186 -0.2268  0.6577 -1.2296
 3645TIP3    H232427   1.033   3.233   6.113  0.2491 -0.8192  1.1324
 3646TIP3   OH232428   0.743   3.674  12.817 -0.2486  0.3726 -0.7646
 3646TIP3    H132429   0.832   3.688  12.851 -0.6665 -0.5540  0.7615
 3646TIP3    H232430   0.719   3.758  12.778 -0.1802  1.8973  2.3029
 3647TIP3   OH232431   0.168   5.683   0.314 -0.1452  0.4555 -0.0036
 3647TIP3    H132432   0.098   5.623   0.290  0.0413  0.1528  0.1973
 3647TIP3    H232433   0.132   5.735   0.385  0.0019 -0.0463  0.4456
 3648TIP3   OH232434   6.743   2.158  11.147  0.6897  0.1698 -0.5541
 3648TIP3    H132435   6.726   2.116  11.063 -0.4610  1.6568 -1.0804
 3648TIP3    H232436   6.657   2.186  11.178  1.0942 -0.4245  1.1590
 3649TIP3   OH232437   2.612   4.175   4.901  0.7601 -0.1803 -0.7445
 3649TIP3    H132438   2.703   4.205   4.907  0.9644 -0.7701 -0.8340
 3649TIP3    H232439   2.566   4.221   4.971  1.0527  0.3889 -0.9236
 3650TIP3   OH232440   2.173   0.591   4.596  0.0034  0.1830  0.2856
 3650TIP3    H132441   2.251   0.561   4.549 -0.5783 -0.9136  0.0036
 3650TIP3    H232442   2.177   0.545   4.680 -0.2487  0.2602  0.3398
 3651TIP3   OH232443   3.994   1.093  12.200  0.1129  0.9584  0.3459
 3651TIP3    H132444   3.966   1.152  12.131  1.1160  0.8742 -0.1381
 3651TIP3    H232445   3.998   1.007  12.159 -1.7979  0.4502  1.1647
 3652TIP3   OH232446   2.924   2.492  14.908 -0.2831  0.4757  0.0597
 3652TIP3    H132447   2.879   2.421  14.862 -0.3346 -0.1412  1.0332
 3652TIP3    H232448   2.885   2.572  14.873 -0.8341 -0.0002 -0.4340
 3653TIP3   OH232449   1.066   4.839   0.436 -0.3906 -0.4304 -0.2701
 3653TIP3    H132450   1.057   4.756   0.482 -0.4034  0.5109  1.4699
 3653TIP3    H232451   0.978   4.877   0.436 -0.4711 -0.5762 -1.4113
 3654TIP3   OH232452   3.522   5.507  12.692  0.5803 -0.1570 -0.2198
 3654TIP3    H132453   3.617   5.502  12.695  0.5985 -1.3986 -2.4104
 3654TIP3    H232454   3.496   5.517  12.784  2.8259  0.7135  0.3502
 3655TIP3   OH232455   3.399   3.028  12.624 -0.3958  0.0683 -0.2532
 3655TIP3    H132456   3.410   2.951  12.567 -2.6379 -0.2536 -0.2984
 3655TIP3    H232457   3.419   2.995  12.711 -1.0416 -0.4929 -0.3128
 3656TIP3   OH232458   6.515   6.081  10.422  0.5546  0.1183  0.2411
 3656TIP3    H132459   6.448   6.041  10.367  2.1757 -1.4106 -0.6596
 3656TIP3    H232460   6.512   6.032  10.504 -1.1895  1.7626  1.2045
 3657TIP3   OH232461   3.328   1.195  11.296  0.5448 -0.5812  0.0355
 3657TIP3    H132462   3.303   1.136  11.224 -1.0837  0.4639 -0.2870
 3657TIP3    H232463   3.244   1.227  11.330  1.4260  2.5964 -0.6712
 3658TIP3   OH232464   3.633   0.143  11.939  0.1863 -0.6638  0.2998
 3658TIP3    H132465   3.698   0.196  11.984  1.7387 -1.0230 -1.4763
 3658TIP3    H232466   3.672   0.123  11.854 -2.1218 -1.1446 -0.6821
 3659TIP3   OH232467   5.827   2.568  11.465 -0.1422  0.0912  0.5900
 3659TIP3    H132468   5.798   2.658  11.478 -0.0523  0.3300 -0.7452
 3659TIP3    H232469   5.855   2.565  11.373 -0.5797 -1.4073  0.4899
 3660TIP3   OH232470   5.047   5.235  13.872 -0.6687  0.0675  0.9391
 3660TIP3    H132471   5.115   5.207  13.932 -0.3669  1.0088  1.0542
 3660TIP3    H232472   5.033   5.161  13.814 -0.0415 -0.3790  1.3597
 3661TIP3   OH232473   5.352   3.727  16.175 -0.1918 -0.0032  0.3189
 3661TIP3    H132474   5.306   3.810  16.190 -0.3500 -0.2500  1.2806
 3661TIP3    H232475   5.343   3.711  16.081 -3.3698 -0.7953  0.6771
 3662TIP3   OH232476   4.616   1.305   0.203  0.0111  0.0277  0.9401
 3662TIP3    H132477   4.601   1.304   0.297  2.8498 -0.8080  1.4335
 3662TIP3    H232478   4.611   1.214   0.176  1.3962  0.0094  0.6892
 3663TIP3   OH232479   6.534   5.642   3.875  0.5470 -0.0828 -0.3459
 3663TIP3    H132480   6.533   5.553   3.910 -1.4874 -0.5450 -1.4831
 3663TIP3    H232481   6.514   5.698   3.950  0.1507 -0.7169  0.0241
 3664TIP3   OH232482   6.733   3.542   1.277 -0.4496  0.1061  0.1368
 3664TIP3    H132483   6.756   3.525   1.186 -2.1211 -0.5120 -0.1903
 3664TIP3    H232484   6.813   3.522   1.326  0.4802  0.4778 -1.1842
 3665TIP3   OH232485   3.535   4.454  12.729  0.1005 -0.2575  0.1658
 3665TIP3    H132486   3.591   4.388  12.770 -1.8254 -0.8717  1.9332
 3665TIP3    H232487   3.486   4.406  12.662  0.1505 -0.1960  0.0841
 3666TIP3   OH232488   5.550   1.014   4.647  0.6136 -0.6038 -0.5366
 3666TIP3    H132489   5.523   1.105   4.634  1.0787 -0.4793 -0.6383
 3666TIP3    H232490   5.565   1.007   4.741 -1.9957 -1.2956 -0.1344
 3667TIP3   OH232491   0.994   3.471  15.888 -0.1287  0.4762  0.3667
 3667TIP3    H132492   1.076   3.462  15.937 -0.3305 -1.4923  0.3749
 3667TIP3    H232493   1.004   3.553  15.840  2.4167 -0.3553 -0.6400
 3668TIP3   OH232494   0.243   2.917   0.373  0.1378 -0.5505  0.3712
 3668TIP3    H132495   0.156   2.920   0.411 -0.0345 -0.6938 -0.0076
 3668TIP3    H232496   0.240   2.981   0.302 -0.0877 -1.5467 -0.5322
 3669TIP3   OH232497   5.565   6.199  13.975  0.5237  0.4529  0.0955
 3669TIP3    H132498   5.573   6.191  14.070  0.2991  0.3247  0.1051
 3669TIP3    H232499   5.471   6.190  13.958  0.3548  2.2102  0.0174
 3670TIP3   OH232500   4.033   2.243   1.468  0.4709 -0.0938 -0.4824
 3670TIP3    H132501   3.969   2.261   1.399  1.8571  2.2366 -1.1991
 3670TIP3    H232502   4.068   2.157   1.446 -0.1047  0.0247 -1.8964
 3671TIP3   OH232503   1.451   5.388   4.287  0.2181  0.2952 -0.1822
 3671TIP3    H132504   1.441   5.338   4.367 -0.7587 -0.9903 -1.0891
 3671TIP3    H232505   1.364   5.422   4.268  0.7834  2.0183  0.1946
 3672TIP3   OH232506   3.060   5.565   2.323  0.4205 -0.1556  0.4434
 3672TIP3    H132507   3.057   5.640   2.384  0.6986 -1.1676  1.7232
 3672TIP3    H232508   3.118   5.502   2.366 -0.2755 -1.3496 -0.3501
 3673TIP3   OH232509   2.418   0.690   6.528  0.0104  0.3535  0.2421
 3673TIP3    H132510   2.330   0.688   6.566 -0.5483  0.6883 -1.0103
 3673TIP3    H232511   2.412   0.752   6.456  1.0294 -0.3347 -0.4503
 3674TIP3   OH232512   2.644   1.447  11.614  0.1489  0.0941 -0.0292
 3674TIP3    H132513   2.583   1.375  11.597 -0.9774  0.5561  1.9641
 3674TIP3    H232514   2.708   1.411  11.675  0.6567  0.2502 -0.4614
 3675TIP3   OH232515   2.664   0.910  13.626  0.2126  0.3230  0.3774
 3675TIP3    H132516   2.675   0.894  13.720  0.6722  1.1682  0.4659
 3675TIP3    H232517   2.753   0.920  13.592  0.0489  0.0252 -0.1539
 3676TIP3   OH232518   4.845   2.184  14.819  0.2305  0.0973 -0.4836
 3676TIP3    H132519   4.927   2.154  14.858  0.9657  0.3813 -1.8114
 3676TIP3    H232520   4.848   2.279  14.828 -1.2198 -0.0291  1.9497
 3677TIP3   OH232521   3.061   4.775  12.052  0.6289 -0.6605 -0.4317
 3677TIP3    H132522   3.067   4.681  12.071  3.1137 -0.7831 -1.6387
 3677TIP3    H232523   3.040   4.815  12.136 -0.9051 -2.3250  0.0069
 3678TIP3   OH232524   3.423   2.868   1.155 -0.4450  0.0242 -0.3537
 3678TIP3    H132525   3.370   2.792   1.182  2.7120 -2.4370 -0.8559
 3678TIP3    H232526   3.440   2.915   1.237  0.5649 -1.8060  0.5069
 3679TIP3   OH232527   2.003   1.912   5.679  0.4074 -0.2789  0.7485
 3679TIP3    H132528   2.000   1.985   5.617 -1.7644  0.6470  1.8964
 3679TIP3    H232529   1.960   1.839   5.633  1.2385 -0.4028  0.1610
 3680TIP3   OH232530   1.886   6.201   3.288  0.3010 -0.5204 -0.3455
 3680TIP3    H132531   1.912   6.151   3.365  3.2520  0.4439 -0.6251
 3680TIP3    H232532   1.834   6.273   3.322  1.8063  0.0564  0.8100
 3681TIP3   OH232533   6.202   1.605  12.938 -0.5923 -0.0879 -0.2980
 3681TIP3    H132534   6.228   1.539  12.874 -1.6978 -0.9245  0.0972
 3681TIP3    H232535   6.176   1.680  12.885 -1.5239 -0.7815 -0.8430
 3682TIP3   OH232536   6.423   6.369  13.062  0.3752 -0.2245  0.0589
 3682TIP3    H132537   6.411   6.325  13.146 -0.8989 -2.9143 -1.4685
 3682TIP3    H232538   6.334   6.388  13.033  0.7578 -0.3207 -1.1940
 3683TIP3   OH232539   1.416   1.120   5.621 -0.0131 -0.2444  0.2971
 3683TIP3    H132540   1.414   1.185   5.691  0.4041 -0.2589  0.3224
 3683TIP3    H232541   1.405   1.036   5.666 -4.4218  0.0214 -0.0533
 3684TIP3   OH232542   2.529   1.373  15.663 -0.0343 -0.4022  0.3140
 3684TIP3    H132543   2.484   1.301  15.618 -1.6109  1.6816 -1.5425
 3684TIP3    H232544   2.459   1.424  15.703  1.0138  0.5778  0.9110
 3685TIP3   OH232545   6.132   4.389   0.012 -0.8389 -0.3142  0.2024
 3685TIP3    H132546   6.041   4.367  -0.010 -0.2473 -0.5984 -2.1858
 3685TIP3    H232547   6.181   4.309  -0.009  0.4237  0.9905 -2.0200
 3686TIP3   OH232548   3.873   2.435   1.576 -0.1090  0.0179 -0.2801
 3686TIP3    H132549   3.911   2.351   1.553 -0.1807  0.2804 -1.3595
 3686TIP3    H232550   3.863   2.431   1.671  2.4992 -0.1060  0.0184
 3687TIP3   OH232551   4.182   6.051   4.227 -0.0589 -0.2455  0.3575
 3687TIP3    H132552   4.111   6.112   4.205  0.0559 -0.0620  0.4931
 3687TIP3    H232553   4.146   5.965   4.206 -1.3105 -0.3925  2.9050
 3688TIP3   OH232554   5.365   3.964   2.043  0.3161 -0.2312 -0.0908
 3688TIP3    H132555   5.312   4.034   2.007  0.1107  0.0560  0.7599
 3688TIP3    H232556   5.301   3.898   2.072  0.4920 -0.6076 -0.5524
 3689TIP3   OH232557   6.426   1.916   0.045  0.7933  0.2238  0.2905
 3689TIP3    H132558   6.388   1.946  -0.038  0.7788  0.3424  0.3411
 3689TIP3    H232559   6.518   1.940   0.039  1.1969 -1.4468 -0.4801
 3690TIP3   OH232560   2.607   4.372  14.169  0.0491 -0.3418  0.1617
 3690TIP3    H132561   2.625   4.283  14.139 -0.4147 -0.3039 -0.2471
 3690TIP3    H232562   2.690   4.403  14.204  0.6836 -0.2858 -1.3615
 3691TIP3   OH232563   5.273   5.392   5.662  0.4659 -0.0611 -0.1312
 3691TIP3    H132564   5.331   5.325   5.627 -0.1850  0.2588 -1.8362
 3691TIP3    H232565   5.225   5.347   5.732  1.6360 -0.7372  0.2678
 3692TIP3   OH232566   6.601   4.705  11.356  0.1149 -0.1900  0.3257
 3692TIP3    H132567   6.611   4.750  11.440 -0.2258  1.2040 -0.3714
 3692TIP3    H232568   6.655   4.755  11.295  0.3244 -1.1659 -0.2967
 3693TIP3   OH232569   2.397   5.307  11.262  0.3142  0.5116 -0.4266
 3693TIP3    H132570   2.382   5.229  11.209  2.0804 -0.6678  0.7920
 3693TIP3    H232571   2.315   5.318  11.311  0.3063 -0.9627 -0.0855
 3694TIP3   OH232572   0.366   4.299  13.123  0.3816 -0.1579  0.2201
 3694TIP3    H132573   0.325   4.230  13.176  1.0871 -1.2713 -0.6487
 3694TIP3    H232574   0.449   4.317  13.167  0.0294  0.3987  0.6528
 3695TIP3   OH232575   5.419   3.446   6.707  0.6020  0.0110 -0.4059
 3695TIP3    H132576   5.441   3.384   6.638  1.6211 -1.1620  0.9310
 3695TIP3    H232577   5.503   3.469   6.747 -0.0473 -0.1688  1.1203
 3696TIP3   OH232578   4.977   3.697   0.011  0.6155 -0.2305 -0.3103
 3696TIP3    H132579   5.050   3.660  -0.038  0.6268  1.4175 -1.5688
 3696TIP3    H232580   5.015   3.722   0.096  0.7889 -2.2607  0.2320
 3697TIP3   OH232581   4.954   4.026  13.389  0.0309 -0.6218 -0.1187
 3697TIP3    H132582   5.008   3.949  13.373  1.2278  0.2100 -0.1401
 3697TIP3    H232583   4.900   4.035  13.311  0.5374 -0.9039 -0.5023
 3698TIP3   OH232584   3.854   5.697  16.368  0.1946 -0.2746 -0.4897
 3698TIP3    H132585   3.889   5.733  16.287  0.2966  2.6691  0.7904
 3698TIP3    H232586   3.771   5.657  16.343  1.0742 -1.0221 -2.3194
 3699TIP3   OH232587   3.570   5.749  15.183 -0.2517 -0.1209  0.7897
 3699TIP3    H132588   3.479   5.720  15.190 -1.0503  2.3999  1.6115
 3699TIP3    H232589   3.574   5.797  15.100  1.4429 -3.7615 -1.3288
 3700TIP3   OH232590   2.607   5.103  14.642  0.4541  0.7605 -0.5604
 3700TIP3    H132591   2.558   5.060  14.572 -0.5004 -0.5867  0.8800
 3700TIP3    H232592   2.592   5.196  14.629 -1.5011  0.4202 -0.8644
 3701TIP3   OH232593   3.563   2.917   3.235 -0.7458  0.2034 -0.1361
 3701TIP3    H132594   3.547   2.829   3.201 -0.9019  0.8690 -1.8412
 3701TIP3    H232595   3.649   2.940   3.200  0.3549 -0.1748  2.2469
 3702TIP3   OH232596   6.224   2.250   4.566 -0.0767 -0.2964 -0.1729
 3702TIP3    H132597   6.293   2.308   4.598 -1.3501  0.8232  0.5621
 3702TIP3    H232598   6.147   2.306   4.557 -0.5331 -1.1963 -2.4255
 3703TIP3   OH232599   0.441   1.397   2.434  0.0453  0.1304 -0.2017
 3703TIP3    H132600   0.422   1.460   2.503  0.2199 -0.0572  0.0201
 3703TIP3    H232601   0.393   1.429   2.358 -2.5522 -1.2510  0.7889
 3704TIP3   OH232602   1.788   3.664   4.701 -0.2841  0.1988  0.2014
 3704TIP3    H132603   1.756   3.586   4.746  0.8432 -0.5161 -0.1902
 3704TIP3    H232604   1.790   3.732   4.768  0.1066 -0.4987  0.9100
 3705TIP3   OH232605   5.853   6.602  12.987 -0.3621 -0.1385  0.1690
 3705TIP3    H132606   5.915   6.658  12.939 -0.5269 -1.3067 -1.4269
 3705TIP3    H232607   5.767   6.640  12.969 -0.5010 -1.0604 -1.1507
 3706TIP3   OH232608   0.903   0.515   0.672 -0.4736  0.0754  0.3399
 3706TIP3    H132609   0.912   0.609   0.656 -1.1457  0.2402  0.8958
 3706TIP3    H232610   0.814   0.495   0.645  0.0410 -0.6375 -0.8585
 3707TIP3   OH232611   1.478   5.053  16.444  0.9548 -0.3028 -0.4897
 3707TIP3    H132612   1.495   4.973  16.494  3.3851 -0.8611 -2.1625
 3707TIP3    H232613   1.504   5.124  16.502 -0.0516 -0.7596  0.5402
 3708TIP3   OH232614   1.322   0.927  11.597 -0.8986 -0.2260 -0.2220
 3708TIP3    H132615   1.283   0.982  11.529 -0.9243 -0.7438 -0.6342
 3708TIP3    H232616   1.407   0.901  11.560 -0.6328  0.0222  0.2151
 3709TIP3   OH232617   2.727   6.144   0.068  0.2968 -0.0061  0.0988
 3709TIP3    H132618   2.814   6.164   0.102 -0.5496  0.4675  2.0532
 3709TIP3    H232619   2.707   6.058   0.103 -0.5634  0.4627  0.7786
 3710TIP3   OH232620   5.146   4.762   0.400 -0.0441 -0.2448  0.6320
 3710TIP3    H132621   5.088   4.692   0.430 -0.5005 -1.1465 -2.1896
 3710TIP3    H232622   5.088   4.824   0.356  0.8629 -0.1465 -0.4373
 3711TIP3   OH232623   1.568   3.070  15.531 -0.2691 -0.0130 -0.2340
 3711TIP3    H132624   1.602   3.013  15.462 -0.8404  0.0062 -0.5385
 3711TIP3    H232625   1.587   3.023  15.613 -1.0300 -0.8035 -0.5031
 3712TIP3   OH232626   0.504   0.506   4.155 -0.0921  0.3254 -0.2784
 3712TIP3    H132627   0.459   0.565   4.215 -1.0527  1.1415 -1.7718
 3712TIP3    H232628   0.581   0.476   4.204 -1.4868  0.0169  1.7915
 3713TIP3   OH232629   6.814   4.193  10.615 -0.6905 -0.1202 -0.5402
 3713TIP3    H132630   6.787   4.168  10.527 -0.1029 -1.0843 -0.4602
 3713TIP3    H232631   6.893   4.245  10.602 -1.5448  1.1690 -0.6685
 3714TIP3   OH232632   4.875   1.863  13.663 -0.2731 -0.9651 -0.6813
 3714TIP3    H132633   4.926   1.818  13.596  1.2890 -0.5965  0.2067
 3714TIP3    H232634   4.862   1.951  13.628  0.0130 -0.9578 -0.7748
 3715TIP3   OH232635   1.698   3.007  12.671  0.6325 -0.9095  0.9360
 3715TIP3    H132636   1.735   2.977  12.588 -0.0085 -1.5439  0.8690
 3715TIP3    H232637   1.694   3.102  12.663 -0.6191 -1.0384 -0.2846
 3716TIP3   OH232638   3.715   6.598  15.656 -0.6251 -0.0313 -0.2563
 3716TIP3    H132639   3.721   6.516  15.705 -1.6603 -0.5334 -0.9695
 3716TIP3    H232640   3.628   6.597  15.617  0.5028 -0.0248 -2.8208
 3717TIP3   OH232641   1.708   6.290   1.273 -0.3246  0.2389  0.0255
 3717TIP3    H132642   1.678   6.364   1.326  2.2654  0.2140  1.6370
 3717TIP3    H232643   1.683   6.213   1.325 -0.9746  0.0595 -0.5454
 3718TIP3   OH232644   3.739   4.582  13.442 -0.6648 -0.2130 -0.1541
 3718TIP3    H132645   3.685   4.642  13.493 -1.9027 -2.0647  0.8160
 3718TIP3    H232646   3.827   4.591  13.479 -0.7006  1.4193 -0.4382
 3719TIP3   OH232647   4.561   0.203   5.379 -0.3174  0.0362 -0.7566
 3719TIP3    H132648   4.506   0.230   5.453  0.4529  2.1450 -0.9059
 3719TIP3    H232649   4.563   0.107   5.384  0.5993  0.1702  2.6239
 3720TIP3   OH232650   0.620   1.072  15.233  0.0434 -0.5996  0.3380
 3720TIP3    H132651   0.623   1.157  15.277 -0.5333 -1.0002  1.1718
 3720TIP3    H232652   0.603   1.009  15.303 -0.1590 -1.3320 -0.3578
 3721TIP3   OH232653   4.685   1.090  14.427  0.2791  0.2819  0.0506
 3721TIP3    H132654   4.776   1.069  14.405 -0.2201 -0.8170 -0.9514
 3721TIP3    H232655   4.691   1.176  14.470  1.6625  0.7393 -1.0116
 3722TIP3   OH232656   2.638   4.045   3.539  0.3981  0.2519 -0.1866
 3722TIP3    H132657   2.583   4.048   3.617 -1.5433  0.2245 -1.5281
 3722TIP3    H232658   2.655   3.952   3.523 -0.3146  0.1841 -0.5558
 3723TIP3   OH232659   6.632   0.045  15.262 -0.1021 -0.4625 -0.3173
 3723TIP3    H132660   6.687   0.011  15.333 -1.0024 -2.7390 -0.6512
 3723TIP3    H232661   6.568  -0.025  15.246 -1.0459  0.7806 -2.1220
 3724TIP3   OH232662   3.751   6.669  17.245  0.1814  0.4754  0.0200
 3724TIP3    H132663   3.828   6.709  17.287 -0.8360  2.0069  0.4821
 3724TIP3    H232664   3.684   6.736  17.251 -0.5204  0.0376 -2.4955
 3725TIP3   OH232665   2.668   1.801  13.298 -0.0029 -0.2215  0.5837
 3725TIP3    H132666   2.640   1.710  13.309  1.6582 -0.9088 -0.8214
 3725TIP3    H232667   2.710   1.803  13.212 -0.8553  2.0947  0.1881
 3726TIP3   OH232668   2.262   4.891   1.844 -1.0916  0.5164 -0.6329
 3726TIP3    H132669   2.336   4.842   1.805 -1.9994 -0.1291 -1.5722
 3726TIP3    H232670   2.303   4.950   1.907  0.2994  0.6445 -1.6343
 3727TIP3   OH232671   3.893   6.136  10.992 -0.3557 -0.3200 -0.3260
 3727TIP3    H132672   3.813   6.110  11.037  0.9563 -1.4704  1.4496
 3727TIP3    H232673   3.941   6.054  10.980  1.2502  0.5364  0.0692
 3728TIP3   OH232674   2.475   2.640  16.411 -0.0062 -0.8126  0.1661
 3728TIP3    H132675   2.559   2.685  16.397 -0.3600  0.5672  2.2496
 3728TIP3    H232676   2.494   2.576  16.480  0.1395 -2.9190 -1.7787
 3729TIP3   OH232677   1.371   4.788  10.890  0.4160 -0.3291  0.0190
 3729TIP3    H132678   1.279   4.763  10.900  0.1070  0.8801  0.3232
 3729TIP3    H232679   1.383   4.797  10.796  0.4523 -1.3066 -0.0717
 3730TIP3   OH232680   6.366   5.192   5.615 -0.1049 -0.7037 -0.4455
 3730TIP3    H132681   6.442   5.141   5.643  1.4030  1.1266 -1.1205
 3730TIP3    H232682   6.309   5.194   5.691  0.0365 -2.9700 -0.2557
 3731TIP3   OH232683   3.828   0.259   3.369 -0.5358 -0.1350 -0.4098
 3731TIP3    H132684   3.734   0.268   3.380 -1.1620 -1.9164 -3.6082
 3731TIP3    H232685   3.853   0.333   3.312  0.4061  1.5572  2.1252
 3732TIP3   OH232686   6.483   0.725  16.285 -0.0813 -0.6164 -0.5248
 3732TIP3    H132687   6.518   0.678  16.361  1.5661 -2.9355 -2.6266
 3732TIP3    H232688   6.390   0.736  16.304  0.4320 -0.4885  2.1332
 3733TIP3   OH232689   1.405   4.630   3.284  0.1564 -0.7379  0.0422
 3733TIP3    H132690   1.323   4.582   3.290 -0.5736  0.4789  0.0520
 3733TIP3    H232691   1.440   4.607   3.198 -0.3446 -1.0342 -0.0857
 3734TIP3   OH232692   1.656   2.599   5.636  0.0628 -0.1515  0.4748
 3734TIP3    H132693   1.715   2.675   5.641 -0.0020 -0.1328  1.0065
 3734TIP3    H232694   1.629   2.596   5.544  1.0307 -0.2650  0.1838
 3735TIP3   OH232695   2.179   5.157  14.799 -0.1353  0.1655  0.0777
 3735TIP3    H132696   2.177   5.243  14.756  0.0509 -0.8707 -2.0577
 3735TIP3    H232697   2.264   5.153  14.842 -0.9621  1.8686  1.9882
 3736TIP3   OH232698   3.254   4.109  14.248  0.0206  0.0430 -0.4209
 3736TIP3    H132699   3.161   4.106  14.270 -0.0993 -0.7330 -1.0099
 3736TIP3    H232700   3.295   4.153  14.322 -0.9991  1.6674 -0.7796
 3737TIP3   OH232701   5.712   0.731   3.252  0.3691  0.3185 -0.2047
 3737TIP3    H132702   5.661   0.755   3.329 -0.6173 -1.5281 -0.2729
 3737TIP3    H232703   5.780   0.673   3.285 -1.3626 -2.2276 -1.0030
 3738TIP3   OH232704   3.613   0.666   3.929 -1.0958 -0.0978 -0.2799
 3738TIP3    H132705   3.517   0.666   3.933 -1.1447 -0.5150 -1.2679
 3738TIP3    H232706   3.633   0.626   3.844 -0.0477  0.0885 -0.1223
 3739TIP3   OH232707   1.174   3.081  11.962 -0.2982 -0.0079 -0.2720
 3739TIP3    H132708   1.164   3.142  12.035  0.6704 -1.6198  1.2654
 3739TIP3    H232709   1.107   3.014  11.977 -2.8862  1.7544 -3.1861
 3740TIP3   OH232710   3.559   2.465  15.047  0.1315  0.2459  0.2427
 3740TIP3    H132711   3.585   2.543  15.097 -2.4062  1.6002 -0.4656
 3740TIP3    H232712   3.553   2.396  15.113 -1.7375  1.6636  1.6302
 3741TIP3   OH232713   0.021   2.040  17.073  0.1849 -0.0765  0.2882
 3741TIP3    H132714   0.048   1.952  17.096  1.2672  0.6050  1.6859
 3741TIP3    H232715  -0.060   2.055  17.121 -0.6184 -0.7009 -0.8392
 3742TIP3   OH232716   3.803   0.247  17.022  0.6028 -0.6780 -0.1733
 3742TIP3    H132717   3.883   0.230  17.072  0.0372 -1.7560  0.3570
 3742TIP3    H232718   3.792   0.169  16.967  0.7358  0.1162 -1.3455
 3743TIP3   OH232719   1.353   3.144   3.504  0.6839  0.1811 -0.4353
 3743TIP3    H132720   1.436   3.143   3.551  0.8600 -0.6391 -0.7438
 3743TIP3    H232721   1.369   3.199   3.427  1.2170 -0.7032 -0.9681
 3744TIP3   OH232722   5.762   2.733   6.376 -0.4710 -0.6391  0.2616
 3744TIP3    H132723   5.770   2.650   6.331 -0.2082 -1.8322  2.4484
 3744TIP3    H232724   5.684   2.724   6.431 -1.0619  0.9410 -0.3009
 3745TIP3   OH232725   3.980   0.614   1.816 -0.6089  0.3143  0.3598
 3745TIP3    H132726   4.067   0.632   1.781 -0.5417  1.1059  0.9180
 3745TIP3    H232727   3.920   0.655   1.755 -0.6813 -1.6789 -0.9436
 3746TIP3   OH232728   5.778   4.229   3.656 -0.3925 -0.0890 -0.1813
 3746TIP3    H132729   5.699   4.221   3.709  0.9580  0.7782  2.0347
 3746TIP3    H232730   5.847   4.188   3.708  0.9949  0.8565 -1.2116
 3747TIP3   OH232731   1.373   2.889   0.439  0.6094  0.3041  0.0067
 3747TIP3    H132732   1.321   2.968   0.425 -0.7923  0.1004  3.5218
 3747TIP3    H232733   1.320   2.819   0.401  0.2082  0.6164 -0.0156
 3748TIP3   OH232734   6.651   1.544  16.315  0.1930 -0.2178  0.2288
 3748TIP3    H132735   6.721   1.484  16.288 -0.0405  0.0096 -0.9196
 3748TIP3    H232736   6.591   1.545  16.241 -0.0487  1.0762  0.4311
 3749TIP3   OH232737   1.350   0.163  16.275  0.0168  0.2726 -0.0713
 3749TIP3    H132738   1.428   0.208  16.308 -0.2543  0.3957  0.4158
 3749TIP3    H232739   1.283   0.231  16.270 -0.3593 -0.0459  0.5401
 3750TIP3   OH232740   3.080   6.287  11.746  0.3885  0.4092 -0.2333
 3750TIP3    H132741   3.048   6.239  11.669  0.2283 -0.4090  0.3451
 3750TIP3    H232742   3.175   6.287  11.736  0.4061 -0.3277 -0.0507
 3751TIP3   OH232743   6.504   3.560  14.568 -0.2616 -0.5193 -0.2548
 3751TIP3    H132744   6.482   3.643  14.611 -0.6962  0.5790 -2.5220
 3751TIP3    H232745   6.421   3.512  14.565  0.0838 -1.2867  1.4869
 3752TIP3   OH232746   6.208   5.418  11.479  0.0041  0.1945 -1.1908
 3752TIP3    H132747   6.239   5.460  11.559 -1.2514  1.1687 -1.2158
 3752TIP3    H232748   6.203   5.325  11.501 -1.2281  0.5684  0.1544
 3753TIP3   OH232749   2.412   4.027   5.891  0.5302 -0.2343  0.7597
 3753TIP3    H132750   2.396   3.933   5.900 -0.4722 -0.5052 -2.9552
 3753TIP3    H232751   2.506   4.037   5.901  0.8383 -1.8870 -0.2632
 3754TIP3   OH232752   6.594   3.332   1.594 -0.5295 -0.2098 -0.3251
 3754TIP3    H132753   6.568   3.353   1.505  0.4552  1.7970 -0.1770
 3754TIP3    H232754   6.634   3.245   1.587 -0.3663 -0.0310 -1.8515
 3755TIP3   OH232755   6.429   0.454   5.444  0.2604 -0.4997  0.7798
 3755TIP3    H132756   6.399   0.443   5.353 -1.2227  0.8727  1.0696
 3755TIP3    H232757   6.350   0.483   5.491  1.2057 -0.4457  2.3451
 3756TIP3   OH232758   4.915   4.786  11.919  0.3074  0.4357  0.0635
 3756TIP3    H132759   4.957   4.843  11.983 -2.4831  0.1070  2.3113
 3756TIP3    H232760   4.871   4.846  11.859 -0.6605  0.7166  1.0364
 3757TIP3   OH232761   5.298   5.675   0.957  0.4791 -0.0808  0.7093
 3757TIP3    H132762   5.284   5.619   1.034 -1.7129  0.1952  0.5319
 3757TIP3    H232763   5.307   5.614   0.885 -0.6748 -0.2649  0.7091
 3758TIP3   OH232764   0.890   4.883   4.427  0.1553  0.3150 -0.3362
 3758TIP3    H132765   0.859   4.858   4.340 -1.3051 -0.6547  0.4366
 3758TIP3    H232766   0.976   4.843   4.435  0.2151  0.2467 -1.2454
 3759TIP3   OH232767   5.914   2.284   0.434 -0.2554  0.2100 -0.3643
 3759TIP3    H132768   5.841   2.230   0.465 -1.4906  2.8720  1.4487
 3759TIP3    H232769   5.991   2.248   0.478 -0.7313 -1.3853 -0.7966
 3760TIP3   OH232770   4.843   3.816  15.392 -0.1726  1.0412 -0.4905
 3760TIP3    H132771   4.860   3.842  15.483  0.9553 -2.1117  0.2611
 3760TIP3    H232772   4.748   3.819  15.384 -0.5255 -1.5819  1.7950
 3761TIP3   OH232773   0.701   1.138   5.100 -0.2963  0.2139 -0.4773
 3761TIP3    H132774   0.714   1.155   5.193  0.2675 -0.3735 -0.4443
 3761TIP3    H232775   0.622   1.084   5.095  0.3426 -0.7626 -0.2367
 3762TIP3   OH232776   5.081   5.993   5.069 -0.1223  0.6653 -0.1573
 3762TIP3    H132777   5.097   6.049   4.994 -0.7979  1.7901  0.5191
 3762TIP3    H232778   5.002   6.029   5.110 -1.0182 -1.2374 -0.1360
 3763TIP3   OH232779   5.524   0.921  11.817 -0.3931  0.4970 -0.2288
 3763TIP3    H132780   5.543   0.984  11.747  0.6782  1.4890  0.9337
 3763TIP3    H232781   5.532   0.971  11.898  1.1979 -1.2709  0.7594
 3764TIP3   OH232782   1.774   3.201   5.000 -0.4008 -0.7404 -0.9802
 3764TIP3    H132783   1.706   3.199   5.067  0.8606 -0.4283  0.3334
 3764TIP3    H232784   1.741   3.144   4.931 -0.9800 -2.3970  0.6365
 3765TIP3   OH232785   6.662   0.788  14.917 -0.0458 -0.0687  0.3201
 3765TIP3    H132786   6.692   0.877  14.895 -0.5950 -0.2096 -1.0743
 3765TIP3    H232787   6.741   0.734  14.906 -0.0404  0.0402 -0.1999
 3766TIP3   OH232788   0.808   2.361  16.607  0.2498  0.0658  0.1521
 3766TIP3    H132789   0.838   2.399  16.524 -1.1038  2.8861  0.8808
 3766TIP3    H232790   0.888   2.341  16.654  1.0258  0.3184 -1.0278
 3767TIP3   OH232791   2.768   0.129   2.429 -1.1437  0.3860  0.2898
 3767TIP3    H132792   2.748   0.204   2.373  1.1406 -0.4145 -1.6761
 3767TIP3    H232793   2.701   0.064   2.408 -1.4727  0.8322 -0.0420
 3768TIP3   OH232794   2.610   2.434  14.904 -0.1511 -0.4566 -0.2223
 3768TIP3    H132795   2.641   2.522  14.884 -2.0637  0.2858 -0.0957
 3768TIP3    H232796   2.678   2.376  14.871  0.2526  1.0150 -2.0555
 3769TIP3   OH232797   5.599   2.536  12.546  0.2239 -0.1610  0.1912
 3769TIP3    H132798   5.530   2.500  12.601  0.6878  0.7324  1.3939
 3769TIP3    H232799   5.579   2.505  12.458 -1.5564 -0.1191  0.5623
 3770TIP3   OH232800   2.855   6.654   5.212 -0.2688 -0.4883  0.1683
 3770TIP3    H132801   2.949   6.646   5.199 -0.2544 -1.8728  1.0313
 3770TIP3    H232802   2.841   6.627   5.303 -1.4162  0.3518  0.2528
 3771TIP3   OH232803   1.399   6.428  16.061 -0.2131  0.9981 -0.1011
 3771TIP3    H132804   1.474   6.422  16.002 -0.2974  1.1894 -0.2255
 3771TIP3    H232805   1.420   6.500  16.120 -1.3110  2.5660 -1.5848
 3772TIP3   OH232806   4.729   3.702  12.055  0.4169  0.4802 -0.1456
 3772TIP3    H132807   4.732   3.614  12.016 -1.4579  0.2602  0.1482
 3772TIP3    H232808   4.644   3.705  12.099  0.5865  2.3645  0.0675
 3773TIP3   OH232809   3.725   4.651   1.737  0.3588  0.6414  0.1365
 3773TIP3    H132810   3.771   4.580   1.692  1.1218  0.0842  1.7776
 3773TIP3    H232811   3.795   4.710   1.766 -0.1989  1.5130 -0.2389
 3774TIP3   OH232812   5.434   2.279   6.601 -0.2899  0.1606 -0.5427
 3774TIP3    H132813   5.392   2.364   6.584 -0.6975  0.0980  0.1473
 3774TIP3    H232814   5.514   2.282   6.549 -0.3114  0.9652 -0.5485
 3775TIP3   OH232815   4.746   5.216   5.413 -0.1173 -0.1875 -0.0059
 3775TIP3    H132816   4.796   5.157   5.357 -0.2065 -0.5201  0.2624
 3775TIP3    H232817   4.792   5.213   5.497  0.3285  0.7167 -0.2105
 3776TIP3   OH232818   2.301   5.204  14.299 -0.0804  0.1712 -0.0337
 3776TIP3    H132819   2.393   5.178  14.300 -0.2549 -0.5202 -1.0253
 3776TIP3    H232820   2.254   5.125  14.272 -0.8845  0.7358 -0.3134
 3777TIP3   OH232821   4.189   2.304  13.103  0.4002  0.1279  0.5094
 3777TIP3    H132822   4.184   2.311  13.008 -0.8571  1.2171  0.6515
 3777TIP3    H232823   4.098   2.299  13.132  0.7034  1.4356  1.7605
 3778TIP3   OH232824   4.376   0.174  15.177  0.2727 -0.3432 -0.7082
 3778TIP3    H132825   4.394   0.148  15.086  0.5451 -0.2144 -0.6927
 3778TIP3    H232826   4.401   0.266  15.181 -0.0638 -0.2550 -0.5889
 3779TIP3   OH232827   1.499   5.021  13.864  0.0998 -0.3220  0.6922
 3779TIP3    H132828   1.442   4.977  13.800  0.5386 -0.6220  0.5071
 3779TIP3    H232829   1.516   4.953  13.930  0.4692 -0.3098  0.6054
 3780TIP3   OH232830   4.591   4.940   0.271 -0.3707  0.2833 -0.6092
 3780TIP3    H132831   4.517   4.929   0.331 -0.7343  1.7014 -0.7853
 3780TIP3    H232832   4.631   4.853   0.266 -0.5422  0.0658  1.4363
 3781TIP3   OH232833   0.352   4.921   1.854 -0.0583  0.3467  0.3247
 3781TIP3    H132834   0.338   4.930   1.948  2.2055  3.7433  0.4197
 3781TIP3    H232835   0.275   4.961   1.814  0.5850  2.0790  0.7797
 3782TIP3   OH232836   3.078   5.979   3.196  0.4107  0.3157 -0.0698
 3782TIP3    H132837   3.106   6.024   3.117  0.5824  1.3258  0.5575
 3782TIP3    H232838   3.146   5.914   3.213  1.3842  1.4237  0.3427
 3783TIP3   OH232839   6.669   1.806  12.218 -0.2476 -0.3491 -0.9143
 3783TIP3    H132840   6.729   1.879  12.204  1.0109 -1.2288 -0.1645
 3783TIP3    H232841   6.684   1.779  12.308 -0.5512 -1.6830 -1.2558
 3784TIP3   OH232842   2.417   6.282   5.168  1.1124  0.3969  0.2254
 3784TIP3    H132843   2.433   6.331   5.087  3.0226 -1.2623 -0.4735
 3784TIP3    H232844   2.322   6.272   5.172  0.7432  3.3308 -0.0630
 3785TIP3   OH232845   6.119   3.078  11.273  0.3693  0.1799  0.0200
 3785TIP3    H132846   6.145   2.993  11.237 -0.0073  0.9480 -2.1252
 3785TIP3    H232847   6.201   3.126  11.283  0.3548  0.4366 -1.0712
 3786TIP3   OH232848   6.450   4.261  12.198  0.0373 -0.1658 -0.4012
 3786TIP3    H132849   6.539   4.231  12.219 -0.2400  0.2633  1.5067
 3786TIP3    H232850   6.398   4.181  12.198  0.5163 -0.4884 -2.0789
 3787TIP3   OH232851   0.927   1.978   4.744 -0.4113 -0.2979 -0.2978
 3787TIP3    H132852   1.015   1.979   4.782 -1.4085  3.5254  2.1489
 3787TIP3    H232853   0.941   2.003   4.653  1.0947 -0.2202 -0.0655
 3788TIP3   OH232854   6.302   2.387  15.958 -0.4295  0.3873 -0.1734
 3788TIP3    H132855   6.226   2.394  15.900 -0.9495 -0.3785  0.3999
 3788TIP3    H232856   6.319   2.293  15.963  0.3080  0.5297  0.0228
 3789TIP3   OH232857   0.956   3.851  16.346 -0.0788 -0.1487  0.3376
 3789TIP3    H132858   0.944   3.942  16.318 -1.5044 -0.6597 -0.8332
 3789TIP3    H232859   1.020   3.815  16.285 -1.0407 -0.4700 -0.5053
 3790TIP3   OH232860   1.483   5.333  12.383  0.2289 -0.1945 -0.1547
 3790TIP3    H132861   1.457   5.359  12.295  0.0325 -1.0408 -0.3508
 3790TIP3    H232862   1.423   5.380  12.441 -2.1565 -2.5884 -0.6188
 3791TIP3   OH232863   4.100   3.860  14.407 -0.4516 -0.0967 -0.4558
 3791TIP3    H132864   4.039   3.792  14.437 -0.8627  0.0851 -0.8649
 3791TIP3    H232865   4.177   3.850  14.464 -1.7111  1.0938  1.4987
 3792TIP3   OH232866   5.199   6.786  13.991  0.1727  0.3165  0.0438
 3792TIP3    H132867   5.171   6.875  13.970  1.4913  0.7625  0.0815
 3792TIP3    H232868   5.173   6.774  14.082 -2.8722 -0.5223 -0.8896
 3793TIP3   OH232869   6.407   5.881  15.749 -0.3573 -0.1026 -0.4387
 3793TIP3    H132870   6.319   5.905  15.722 -0.5179  0.9470  0.9477
 3793TIP3    H232871   6.458   5.961  15.738 -0.4124  0.3453  2.1713
 3794TIP3   OH232872   2.532   0.623   5.761  0.0128 -0.2067  0.4636
 3794TIP3    H132873   2.503   0.713   5.752  3.2691  0.9193  0.5271
 3794TIP3    H232874   2.515   0.602   5.853 -0.1562  0.5711  0.6168
 3795TIP3   OH232875   3.034   5.833   4.211  0.1588  0.5064 -0.1508
 3795TIP3    H132876   2.989   5.750   4.197  0.3784  0.4443 -0.4826
 3795TIP3    H232877   3.101   5.813   4.277  0.9427  0.1604 -1.0445
 3796TIP3   OH232878   4.030   2.511  17.033  0.1554 -0.1088 -0.1416
 3796TIP3    H132879   4.053   2.442  17.095 -0.4455  0.7363  1.0472
 3796TIP3    H232880   3.935   2.521  17.043  0.1379  0.4337 -0.7916
 3797TIP3   OH232881   3.843   1.224  16.717 -0.2516 -0.4498 -0.2236
 3797TIP3    H132882   3.869   1.132  16.716  0.2449 -0.3397  1.4118
 3797TIP3    H232883   3.747   1.222  16.719 -0.2438 -0.9294 -0.2216
 3798TIP3   OH232884   1.014   5.109   1.344 -0.4109 -0.4716  0.1033
 3798TIP3    H132885   0.970   5.190   1.369 -3.3839 -2.3051  1.1189
 3798TIP3    H232886   1.105   5.123   1.368 -0.4023  3.3858 -1.8767
 3799TIP3   OH232887   4.511   6.240  11.320 -0.1243 -0.3735  0.2969
 3799TIP3    H132888   4.582   6.298  11.347  1.0386 -1.7224  0.2550
 3799TIP3    H232889   4.534   6.216  11.230 -1.2691  0.1244 -0.1244
 3800TIP3   OH232890   4.422   3.436   2.442 -0.1158  0.1777 -0.3954
 3800TIP3    H132891   4.482   3.487   2.388  0.8270 -1.2787 -0.7491
 3800TIP3    H232892   4.365   3.501   2.483 -0.8218  1.3156 -3.0704
 3801TIP3   OH232893   0.955   3.122  16.691 -0.5708  0.2472 -0.6163
 3801TIP3    H132894   0.950   3.209  16.652  0.7237  0.6025  0.0008
 3801TIP3    H232895   1.045   3.094  16.677 -0.5190 -0.2899  0.7018
 3802TIP3   OH232896   3.203   6.798  10.479 -0.3285 -0.1435 -0.5887
 3802TIP3    H132897   3.297   6.804  10.466 -0.2228 -0.4448  0.0598
 3802TIP3    H232898   3.182   6.706  10.459 -0.4837 -0.0770 -0.7297
 3803TIP3   OH232899   2.511   5.913   3.499  0.5275  0.1495  0.2803
 3803TIP3    H132900   2.454   5.866   3.559 -1.3645 -0.2292 -1.7666
 3803TIP3    H232901   2.521   5.855   3.423  3.0312  0.5197  0.2612
 3804TIP3   OH232902   3.914   1.786  15.557  0.2264 -0.3109 -0.6239
 3804TIP3    H132903   3.924   1.839  15.636 -1.7342 -0.7341 -0.0685
 3804TIP3    H232904   3.880   1.702  15.588 -1.1048 -0.2929 -1.9500
 3805TIP3   OH232905   3.375   3.141   1.939 -0.1185  0.0110 -0.2720
 3805TIP3    H132906   3.435   3.081   1.895 -0.8950 -0.5480 -0.5723
 3805TIP3    H232907   3.312   3.166   1.872 -0.2543  0.5665  0.0546
 3806TIP3   OH232908   3.572   6.758   1.382 -0.2511  0.4847  0.6590
 3806TIP3    H132909   3.585   6.726   1.472 -0.5119 -0.3313  0.4070
 3806TIP3    H232910   3.572   6.679   1.328  3.1844  1.1956 -0.4679
 3807TIP3   OH232911   3.300   3.946   3.968 -0.3007  0.0734  0.0705
 3807TIP3    H132912   3.232   3.977   3.908 -2.3686 -0.5667  2.0336
 3807TIP3    H232913   3.360   4.021   3.976 -1.0363  0.8277 -1.2588
 3808TIP3   OH232914   6.677   5.367  12.147 -0.1454  0.1269  0.5318
 3808TIP3    H132915   6.645   5.405  12.228 -0.8300  1.5281 -0.3682
 3808TIP3    H232916   6.765   5.403  12.137 -0.0679 -0.0313  0.6347
 3809TIP3   OH232917   3.707   2.495   5.610 -0.5250  0.2338  0.3901
 3809TIP3    H132918   3.626   2.534   5.643 -0.1636  0.8781  0.5188
 3809TIP3    H232919   3.717   2.531   5.522 -0.3960  0.1214  0.3593
 3810TIP3   OH232920   6.203   3.369   5.501 -0.0464 -0.7418 -0.1133
 3810TIP3    H132921   6.165   3.346   5.585 -0.4090  0.2847  0.0073
 3810TIP3    H232922   6.296   3.349   5.510 -0.1970 -1.2363  0.3129
 3811TIP3   OH232923   4.901   0.589   4.142 -0.3668 -0.1134 -0.0262
 3811TIP3    H132924   4.990   0.619   4.161 -0.4495  0.5181 -0.6277
 3811TIP3    H232925   4.900   0.574   4.048 -1.5447  2.1108 -0.3927
 3812TIP3   OH232926   3.524   6.384  13.350 -0.0304  0.1795 -0.0931
 3812TIP3    H132927   3.518   6.388  13.445  0.0915  0.2200 -0.0870
 3812TIP3    H232928   3.618   6.390  13.331 -0.1438  1.6780 -0.2850
 3813TIP3   OH232929   3.733   5.937   0.734 -0.0234  0.1819  0.2172
 3813TIP3    H132930   3.743   5.859   0.789 -2.4733  0.6591  1.3757
 3813TIP3    H232931   3.734   6.011   0.795 -0.5239  0.8705 -0.6003
 3814TIP3   OH232932   5.982   1.919  17.176  0.4570  0.3989  0.1626
 3814TIP3    H132933   5.956   1.977  17.105  0.2075  1.2740  0.9672
 3814TIP3    H232934   5.949   1.961  17.256  0.4544 -0.7289  0.7744
 3815TIP3   OH232935   2.605   2.207   1.914 -0.5043  0.0902  0.1470
 3815TIP3    H132936   2.512   2.195   1.936 -0.7087  0.5306 -0.4668
 3815TIP3    H232937   2.628   2.292   1.950  0.1189 -0.7229  1.7575
 3816TIP3   OH232938   6.789   4.649  14.547  0.1915 -0.1558 -0.4199
 3816TIP3    H132939   6.878   4.665  14.578 -0.1655 -1.0426  1.1106
 3816TIP3    H232940   6.796   4.568  14.496  0.2441 -0.2962 -0.1913
 3817TIP3   OH232941   0.286   3.772   1.050  0.3117  0.1295  0.1717
 3817TIP3    H132942   0.258   3.794   1.139  3.7132 -0.6171  1.5130
 3817TIP3    H232943   0.209   3.787   0.996 -1.8941  0.4200  3.2782
 3818TIP3   OH232944   2.972   3.625  12.269  0.2049  0.7051 -0.3031
 3818TIP3    H132945   2.943   3.645  12.358 -2.3809  1.0834 -1.1907
 3818TIP3    H232946   3.053   3.675  12.259  0.3906  0.8672  1.7353
 3819TIP3   OH232947   1.677   1.518   4.732 -0.3394 -0.3150  0.6277
 3819TIP3    H132948   1.627   1.522   4.813 -0.0989  1.9283  0.6902
 3819TIP3    H232949   1.761   1.480   4.757 -0.4103  0.0063  1.3500
 3820TIP3   OH232950   3.294   1.787  16.119  0.2295  0.1851  0.3194
 3820TIP3    H132951   3.250   1.704  16.098  1.9599 -0.4804 -0.7413
 3820TIP3    H232952   3.346   1.806  16.041 -1.0134  2.8726  0.0780
 3821TIP3   OH232953   5.742   4.419   3.481  0.4552 -0.3964  0.1653
 3821TIP3    H132954   5.744   4.342   3.538 -0.0216 -1.5457 -1.3472
 3821TIP3    H232955   5.834   4.448   3.477  0.5672 -0.5992  1.0874
 3822TIP3   OH232956   0.818   6.574   3.451  0.0391 -0.1828  0.2943
 3822TIP3    H132957   0.825   6.629   3.374  1.8207  0.6686  1.0330
 3822TIP3    H232958   0.804   6.485   3.417 -0.6411  0.3908 -0.9387
 3823TIP3   OH232959   4.298   0.106   0.516  0.1800 -0.0318 -0.2026
 3823TIP3    H132960   4.275   0.157   0.438 -2.9158 -0.6253  0.2983
 3823TIP3    H232961   4.275   0.016   0.493 -0.1990 -0.2932  1.2109
 3824TIP3   OH232962   1.750   6.358  16.715 -0.0202 -0.4706  0.2586
 3824TIP3    H132963   1.775   6.301  16.642  1.7608 -0.7193  1.0337
 3824TIP3    H232964   1.679   6.412  16.680  2.8555  1.6348 -2.6734
 3825TIP3   OH232965   2.425   1.579   3.575 -0.1254 -0.5086 -0.0281
 3825TIP3    H132966   2.500   1.561   3.518 -0.4573 -2.1434  0.0274
 3825TIP3    H232967   2.348   1.558   3.523 -0.5674  0.9986 -0.0213
 3826TIP3   OH232968   6.390   4.649  16.339  0.1889 -0.3791  0.3450
 3826TIP3    H132969   6.302   4.684  16.355  1.4123  2.9672  0.0539
 3826TIP3    H232970   6.388   4.621  16.248 -0.3298  0.4936  0.0818
 3827TIP3   OH232971   4.880   2.105  16.955  0.4624  0.4404 -0.1712
 3827TIP3    H132972   4.920   2.030  16.998  3.1221  0.7393 -1.9603
 3827TIP3    H232973   4.864   2.075  16.865 -1.7475  0.9135  0.0399
 3828TIP3   OH232974   5.086   5.404  12.178 -0.4299 -0.0423  0.5363
 3828TIP3    H132975   5.116   5.321  12.141 -2.7579 -0.4646 -0.5376
 3828TIP3    H232976   4.996   5.386  12.207 -2.0725  2.8143 -2.4045
 3829TIP3   OH232977   3.934   3.984  16.387 -0.5701  0.2316  0.0612
 3829TIP3    H132978   3.883   3.903  16.377  0.7368 -0.5471 -0.5713
 3829TIP3    H232979   3.944   4.016  16.297 -0.2199  0.5477  0.2134
 3830TIP3   OH232980   6.784   3.347   3.036 -0.5748  0.2394 -0.2682
 3830TIP3    H132981   6.817   3.426   2.992  0.3729  0.2150  0.3876
 3830TIP3    H232982   6.775   3.372   3.128 -0.3535 -0.3911 -0.0710
 3831TIP3   OH232983   5.037   0.886  16.511  0.6066 -0.0447 -0.1782
 3831TIP3    H132984   5.129   0.864  16.498  0.4923 -1.1830  0.7727
 3831TIP3    H232985   4.990   0.811  16.473  0.0450  0.9709 -1.5068
 3832TIP3   OH232986   2.850   0.782   0.536  0.5103  0.2806  0.1162
 3832TIP3    H132987   2.931   0.748   0.574 -0.0135  0.1952  1.1768
 3832TIP3    H232988   2.824   0.852   0.595 -1.1097 -0.8341  0.7573
 3833TIP3   OH232989   4.881   1.719   2.334  0.1466 -0.3893  0.2103
 3833TIP3    H132990   4.896   1.779   2.407  1.5849  0.1753 -0.5259
 3833TIP3    H232991   4.926   1.760   2.260 -2.3153 -0.3236 -1.3229
 3834TIP3   OH232992   5.538   2.295  15.349  0.1205 -0.2351  0.3106
 3834TIP3    H132993   5.624   2.259  15.370 -0.1328 -0.6786  0.5926
 3834TIP3    H232994   5.498   2.313  15.434 -0.1559 -0.2372  0.1827
 3835TIP3   OH232995   6.571   2.797   6.034  0.2589  0.5380 -0.0022
 3835TIP3    H132996   6.648   2.818   6.085 -0.1750 -0.1549  0.9497
 3835TIP3    H232997   6.503   2.779   6.099 -0.7664  1.3523 -0.8236
 3836TIP3   OH232998   4.278   2.437  11.579  0.3872 -0.6195 -0.3162
 3836TIP3    H132999   4.350   2.461  11.637  0.1464  0.3173 -0.3892
 3836TIP3    H233000   4.280   2.342  11.576  1.4122 -0.6141 -0.0460
 3837TIP3   OH233001   0.757   3.895   4.239  0.1452 -0.4639 -0.1492
 3837TIP3    H133002   0.850   3.880   4.225  0.3681  1.0186 -0.3908
 3837TIP3    H233003   0.722   3.914   4.152 -0.2855 -0.5202  0.0074
 3838TIP3   OH233004   6.073   3.239   2.621  0.0242  0.0699  0.4166
 3838TIP3    H133005   5.987   3.238   2.580 -0.4966  0.1962  1.4924
 3838TIP3    H233006   6.064   3.181   2.697  0.6654  0.7036  0.9797
 3839TIP3   OH233007   1.615   6.245  14.055 -0.4549  0.4596  0.2621
 3839TIP3    H133008   1.637   6.322  14.107 -0.1064  0.1809  0.5269
 3839TIP3    H233009   1.526   6.223  14.083 -0.5114  0.6970  0.2700
 3840TIP3   OH233010   4.982   0.511  16.959  0.0004 -0.1936  0.1196
 3840TIP3    H133011   5.019   0.553  17.037 -0.1634  1.5052 -0.7050
 3840TIP3    H233012   5.058   0.489  16.906  0.1689 -2.1002  1.0966
 3841TIP3   OH233013   5.749   1.527   2.165  0.3381 -0.1763  0.2032
 3841TIP3    H133014   5.809   1.561   2.231  1.2121 -0.7413 -0.2956
 3841TIP3    H233015   5.663   1.556   2.194  0.9575  1.6618  0.2930
 3842TIP3   OH233016   2.999   1.168  11.834  0.6310  0.1799 -0.6496
 3842TIP3    H133017   2.975   1.104  11.901  0.5556  0.8919  0.0066
 3842TIP3    H233018   3.094   1.171  11.837  0.5676  1.1617  0.3135
 3843TIP3   OH233019   5.701   1.300   1.183 -0.4826  0.7018  0.2712
 3843TIP3    H133020   5.791   1.330   1.173 -0.0175 -0.3216  1.3294
 3843TIP3    H233021   5.708   1.206   1.201 -1.6899  0.8704  1.7725
 3844TIP3   OH233022   6.734   5.206   5.061  0.1329  0.2835 -0.0370
 3844TIP3    H133023   6.829   5.203   5.055  0.1207 -0.3080  0.0383
 3844TIP3    H233024   6.708   5.273   4.997  0.4774 -0.8740 -1.4051
 3845TIP3   OH233025   2.325   4.604  14.343 -0.5137 -0.9902  0.2234
 3845TIP3    H133026   2.253   4.546  14.316 -1.5533 -0.7620  2.4065
 3845TIP3    H233027   2.387   4.547  14.387  0.2559 -1.0395 -0.9010
 3846TIP3   OH233028   3.817   3.713  14.378  0.1144 -0.0796 -0.1505
 3846TIP3    H133029   3.735   3.757  14.401  0.1802 -0.5479  0.9809
 3846TIP3    H233030   3.860   3.695  14.462  1.5084  0.4025 -0.7381
 3847TIP3   OH233031   1.129   5.190   4.824 -0.1578  0.2200 -0.2801
 3847TIP3    H133032   1.224   5.184   4.820 -0.2297 -4.6974  1.1756
 3847TIP3    H233033   1.110   5.209   4.916 -0.5961  0.6226 -0.4510
 3848TIP3   OH233034   5.564   1.311  16.665 -0.1706  0.1356  0.2818
 3848TIP3    H133035   5.502   1.249  16.703  1.1558 -0.7691  1.0309
 3848TIP3    H233036   5.542   1.395  16.705 -2.5912  0.3823 -1.4326
 3849TIP3   OH233037   4.354   2.721  11.347  0.2394 -0.1901 -0.3070
 3849TIP3    H133038   4.298   2.683  11.416 -0.2074 -0.2008 -0.6703
 3849TIP3    H233039   4.432   2.666  11.346  1.2169  1.0879  1.6816
 3850TIP3   OH233040   3.377   4.312  10.554 -0.0199  0.2413  0.2987
 3850TIP3    H133041   3.420   4.364  10.622 -0.8022  0.0354  0.9652
 3850TIP3    H233042   3.285   4.311  10.580 -0.2696 -0.1358 -0.5795
 3851TIP3   OH233043   1.298   4.367  13.682  0.2798  0.1947 -0.2798
 3851TIP3    H133044   1.387   4.354  13.650  0.0740 -0.8420 -0.4487
 3851TIP3    H233045   1.245   4.380  13.603  0.0220 -0.8192 -0.2799
 3852TIP3   OH233046   2.369   6.483   3.545  0.0076 -0.2785 -0.0604
 3852TIP3    H133047   2.297   6.452   3.491 -0.2335  0.3488 -0.1050
 3852TIP3    H233048   2.341   6.570   3.574  0.2378 -0.5098  0.8752
 3853TIP3   OH233049   4.945   4.070  15.883  0.6292 -0.2726  0.3171
 3853TIP3    H133050   4.869   4.117  15.918  0.8817 -0.8370  1.6492
 3853TIP3    H233051   5.013   4.137  15.878  0.0530  0.2608 -0.9727
 3854TIP3   OH233052   0.326   2.421  11.364 -0.1235 -0.1442  0.5153
 3854TIP3    H133053   0.239   2.388  11.342 -0.4023 -0.6382  2.2900
 3854TIP3    H233054   0.343   2.388  11.453  2.3180 -0.9669 -0.2122
 3855TIP3   OH233055   5.380   3.371  15.051  0.0693  0.2953  0.1734
 3855TIP3    H133056   5.362   3.433  15.121  4.8933  1.5204  0.4462
 3855TIP3    H233057   5.367   3.285  15.091 -1.0532  1.0175  1.3992
 3856TIP3   OH233058   0.558   5.960  16.396 -0.0567 -0.0893 -0.2623
 3856TIP3    H133059   0.533   5.925  16.310 -1.3612  1.0513 -0.3681
 3856TIP3    H233060   0.512   6.044  16.402  1.5950  0.7646  0.7331
 3857TIP3   OH233061   5.018   0.316  10.866 -0.1006 -0.1075 -0.4129
 3857TIP3    H133062   5.104   0.353  10.886  0.4333  0.4757 -3.5136
 3857TIP3    H233063   5.031   0.221  10.866  0.6053 -0.0155 -1.0166
 3858TIP3   OH233064   0.068   0.666  14.893 -0.3029  0.5796 -0.0973
 3858TIP3    H133065   0.093   0.610  14.966  0.8952  0.7922 -0.3294
 3858TIP3    H233066   0.142   0.726  14.883 -0.6288  0.8033 -1.2264
 3859TIP3   OH233067   4.876   2.356   4.519 -1.2036 -0.4060  0.0884
 3859TIP3    H133068   4.904   2.287   4.579 -0.5417  0.0693  0.3227
 3859TIP3    H233069   4.828   2.310   4.451  1.4463 -1.4028 -1.1514
 3860TIP3   OH233070   4.891   0.321   3.009  0.0643  0.6009 -0.2691
 3860TIP3    H133071   4.916   0.411   3.030  0.4351  0.5175 -0.3563
 3860TIP3    H233072   4.894   0.275   3.093 -1.0348  0.8828 -0.0627
 3861TIP3   OH233073   6.609   6.101  11.587 -0.7987 -0.0433 -0.5209
 3861TIP3    H133074   6.622   6.021  11.639  1.7794  0.9536  0.4378
 3861TIP3    H233075   6.695   6.118  11.548 -0.8484  3.1315  0.5915
 3862TIP3   OH233076   5.045   1.453  15.268  0.1417 -0.6065  0.1894
 3862TIP3    H133077   5.010   1.380  15.216  0.5089 -1.8961  1.6886
 3862TIP3    H233078   4.970   1.481  15.321 -0.2673  0.7862 -1.1095
 3863TIP3   OH233079   5.729   0.756  11.515 -0.2425  0.2538 -0.0396
 3863TIP3    H133080   5.690   0.822  11.572 -0.9031 -0.1508 -0.0159
 3863TIP3    H233081   5.790   0.804  11.460  0.1342  0.7085  0.7614
 3864TIP3   OH233082   2.984   3.424   2.156  0.0063 -0.1250  0.3877
 3864TIP3    H133083   3.017   3.338   2.131  2.6112  0.0570  2.9691
 3864TIP3    H233084   2.935   3.408   2.237  0.1764  0.7618  0.6740
 3865TIP3   OH233085   6.055   3.820   4.436 -0.0809 -0.3835 -0.1357
 3865TIP3    H133086   6.058   3.916   4.439  1.7634 -0.4574  1.0876
 3865TIP3    H233087   6.132   3.792   4.486 -1.0166 -2.5097  0.1604
 3866TIP3   OH233088   5.398   5.175  17.091  0.2296 -0.3970  0.6269
 3866TIP3    H133089   5.360   5.240  17.150  1.6281  0.0050  1.0911
 3866TIP3    H233090   5.339   5.100  17.097  0.2491 -0.2825  2.3626
 3867TIP3   OH233091   2.147   1.969   3.956  0.2967  0.9757  0.0691
 3867TIP3    H133092   2.102   2.005   4.032 -1.6115  2.7425 -1.8528
 3867TIP3    H233093   2.099   1.888   3.935  0.0217  1.1669 -0.0386
 3868TIP3   OH233094   3.145   1.188  13.562 -0.0263 -0.4847  0.4208
 3868TIP3    H133095   3.201   1.144  13.626 -0.1841 -2.4963 -0.7528
 3868TIP3    H233096   3.099   1.255  13.611  2.9957  0.8566  1.5342
 3869TIP3   OH233097   1.725   1.327   5.551 -0.3583  0.1442  0.5425
 3869TIP3    H133098   1.683   1.388   5.611  0.3830  1.5046 -0.3025
 3869TIP3    H233099   1.652   1.276   5.515 -1.2075  1.7883 -0.1355
 3870TIP3   OH233100   3.424   0.158   5.291 -0.1304  0.3758  0.2932
 3870TIP3    H133101   3.365   0.128   5.222  0.4613 -0.0012 -0.0429
 3870TIP3    H233102   3.510   0.123   5.267  0.9591  3.7903 -1.0990
 3871TIP3   OH233103   0.054   0.254   2.820  0.4713  0.4329 -0.1542
 3871TIP3    H133104   0.026   0.302   2.742  1.9918  0.0289 -0.9768
 3871TIP3    H233105   0.016   0.167   2.809 -0.0308  0.6329 -0.0135
 3872TIP3   OH233106   1.746   6.655   6.504 -0.3542 -0.1898  0.3379
 3872TIP3    H133107   1.678   6.625   6.445  1.5810 -2.0182 -1.0520
 3872TIP3    H233108   1.789   6.726   6.457  0.1666 -0.5839  0.2133
 3873TIP3   OH233109   6.698   5.103   2.579  0.4408  0.3323  0.2497
 3873TIP3    H133110   6.793   5.114   2.579  0.3277  1.5450  2.2886
 3873TIP3    H233111   6.663   5.192   2.577 -0.6342 -0.0537  1.0204
 3874TIP3   OH233112   5.045   6.652  15.359  0.2183  0.5633 -0.1453
 3874TIP3    H133113   4.996   6.617  15.433  0.4826 -1.8599 -1.0920
 3874TIP3    H233114   4.980   6.701  15.309 -0.9066 -1.2397 -0.5050
 3875TIP3   OH233115   6.161   1.086   6.370  0.3773 -0.2081 -0.1041
 3875TIP3    H133116   6.181   1.053   6.458 -0.3219  0.9227  0.4991
 3875TIP3    H233117   6.065   1.095   6.370  0.4832  0.9957 -0.5338
 3876TIP3   OH233118   0.548   2.261  15.661  0.5554  0.3977  0.4423
 3876TIP3    H133119   0.612   2.192  15.648 -0.6234 -0.7060  0.3267
 3876TIP3    H233120   0.497   2.262  15.580 -1.5052 -0.8270  1.6637
 3877TIP3   OH233121   1.950   3.814   5.894 -0.2507 -0.2150 -0.2856
 3877TIP3    H133122   1.957   3.907   5.917  1.1735 -0.7671  1.6431
 3877TIP3    H233123   1.859   3.792   5.912 -0.1876  0.4008  0.8473
 3878TIP3   OH233124   2.135   3.911   1.684 -0.2784  0.2381  0.5354
 3878TIP3    H133125   2.069   3.855   1.642  1.6117 -1.0224 -0.8174
 3878TIP3    H233126   2.136   3.882   1.775  0.2876 -1.6066 -0.0320
 3879TIP3   OH233127   2.601   5.501   4.993 -0.5073  0.4061 -0.7915
 3879TIP3    H133128   2.671   5.475   4.934 -0.8940 -1.5827 -0.4307
 3879TIP3    H233129   2.588   5.424   5.049 -2.9167  0.7713 -0.8062
 3880TIP3   OH233130   0.058   0.650  15.283 -0.2273  0.0678 -0.2688
 3880TIP3    H133131   0.117   0.724  15.273  0.7891 -1.0460 -2.9473
 3880TIP3    H233132  -0.030   0.688  15.274  0.3227  0.8007 -2.8173
 3881TIP3   OH233133   0.094   0.411   0.952  0.0054  1.0345 -0.1903
 3881TIP3    H133134   0.035   0.388   0.880  0.4379  1.2887 -0.6294
 3881TIP3    H233135   0.166   0.457   0.910  0.0535  1.5624  0.4619
 3882TIP3   OH233136   4.879   2.034  15.406  0.1514  0.0250 -0.6166
 3882TIP3    H133137   4.859   2.089  15.482  2.6366 -1.4802  1.1948
 3882TIP3    H233138   4.937   2.088  15.353 -1.1742  0.8848 -1.2235
 3883TIP3   OH233139   5.358   5.466  16.638  0.6279 -0.4216 -0.5357
 3883TIP3    H133140   5.392   5.377  16.622  2.3215 -0.2805  1.9448
 3883TIP3    H233141   5.320   5.462  16.726 -1.5256  0.7085 -1.3772
 3884TIP3   OH233142   6.778   1.358  13.185  0.2662 -0.4551 -0.3584
 3884TIP3    H133143   6.838   1.350  13.260 -0.5207 -0.9229  0.2249
 3884TIP3    H233144   6.826   1.413  13.123  0.7037  0.4307  0.7262
 3885TIP3   OH233145   1.917   6.574  16.059 -0.5647  0.0700  0.1767
 3885TIP3    H133146   1.851   6.516  16.022 -1.7979  0.4011  1.8035
 3885TIP3    H233147   1.925   6.645  15.996 -1.0758 -0.4494 -0.4813
 3886TIP3   OH233148   1.969   1.571  14.514 -0.0268 -0.4017 -0.2899
 3886TIP3    H133149   2.026   1.526  14.452  1.0728 -0.8360  1.0056
 3886TIP3    H233150   1.976   1.663  14.492 -0.7417 -0.6676 -1.6977
 3887TIP3   OH233151   2.840   4.766   3.058 -0.0526 -0.1219 -0.4680
 3887TIP3    H133152   2.782   4.839   3.037  0.6047  0.7243  0.5882
 3887TIP3    H233153   2.928   4.805   3.060  0.3122 -0.9634 -0.0076
 3888TIP3   OH233154   6.537   1.576  11.209 -0.2147  0.3139 -0.0630
 3888TIP3    H133155   6.562   1.559  11.117  0.2856  1.2556 -0.1078
 3888TIP3    H233156   6.546   1.671  11.219 -1.0907  0.3167  0.7319
 3889TIP3   OH233157   6.567   5.002  12.870  0.4036 -0.6530 -0.3916
 3889TIP3    H133158   6.493   5.045  12.828  0.5738 -1.0428 -1.1065
 3889TIP3    H233159   6.641   5.021  12.813  0.9188 -0.0054  0.4887
 3890TIP3   OH233160   1.223   1.557  17.236 -0.3195 -0.6724  0.0844
 3890TIP3    H133161   1.181   1.610  17.304 -0.5429  1.5299 -1.7206
 3890TIP3    H233162   1.277   1.495  17.285  0.4577  1.6393  2.3026
 3891TIP3   OH233163   1.914   6.231   5.907 -0.0023  0.2968 -0.2854
 3891TIP3    H133164   1.884   6.232   5.998 -0.8963  0.8121 -0.5871
 3891TIP3    H233165   1.842   6.192   5.858  0.4397  0.1145 -0.7936
 3892TIP3   OH233166   0.612   6.539  14.774 -0.2704  0.7121  0.0066
 3892TIP3    H133167   0.641   6.449  14.756 -2.0748  0.0986 -0.0047
 3892TIP3    H233168   0.651   6.561  14.858 -0.0438 -0.2021  0.1440
 3893TIP3   OH233169   6.087   0.171  13.797 -0.5766 -0.2932  0.0852
 3893TIP3    H133170   6.051   0.086  13.820 -1.0778 -0.1743 -0.2566
 3893TIP3    H233171   6.171   0.151  13.755 -0.9482 -0.6461 -0.4991
 3894TIP3   OH233172   3.032   5.705  12.531  0.0334 -0.0095 -0.0591
 3894TIP3    H133173   2.998   5.622  12.564 -0.8910  0.2905 -0.2411
 3894TIP3    H233174   3.118   5.714  12.573  0.3617 -1.2867 -0.4110
 3895TIP3   OH233175   6.750   1.717   1.091 -0.6832  0.6137  0.5124
 3895TIP3    H133176   6.679   1.724   1.154  0.3476 -2.2920  2.0371
 3895TIP3    H233177   6.723   1.647   1.031  0.3474  0.3183  0.3798
 3896TIP3   OH233178   0.429   0.145  16.657 -0.0522 -0.2076 -0.4844
 3896TIP3    H133179   0.428   0.117  16.749 -0.4225  0.1575 -0.3752
 3896TIP3    H233180   0.395   0.235  16.659 -0.8617 -0.4972 -1.0838
 3897TIP3   OH233181   2.092   1.366   3.979 -0.0037 -0.0340 -0.4061
 3897TIP3    H133182   2.001   1.344   3.961 -0.3893 -0.2739  1.6390
 3897TIP3    H233183   2.127   1.288   4.023  1.4296 -0.2711 -1.9312
 3898TIP3   OH233184   5.545   5.711   0.751  0.2377  0.0216 -0.3646
 3898TIP3    H133185   5.641   5.713   0.746  0.3123 -0.5315  0.6550
 3898TIP3    H233186   5.525   5.744   0.839 -0.4390 -1.2977 -0.0226
 3899TIP3   OH233187   0.595   6.357   1.941 -0.0396  0.1503 -0.7521
 3899TIP3    H133188   0.560   6.303   2.011  1.1809  0.3855  0.0526
 3899TIP3    H233189   0.521   6.412   1.913 -0.9311 -1.0143 -0.7059
 3900TIP3   OH233190   0.372   6.748   4.531  0.2978  0.1622  0.6434
 3900TIP3    H133191   0.325   6.680   4.580 -1.0264  0.8302  0.3405
 3900TIP3    H233192   0.442   6.776   4.590  0.3856 -0.9235  1.0706
 3901TIP3   OH233193   6.378   2.203   5.445 -0.2151 -0.4951 -0.3783
 3901TIP3    H133194   6.361   2.110   5.463 -1.9062 -0.2709 -0.7685
 3901TIP3    H233195   6.326   2.250   5.509  0.7533  0.2054 -0.0944
 3902TIP3   OH233196   1.509   0.663  10.966  0.8287  0.0155  0.1886
 3902TIP3    H133197   1.450   0.592  10.992  1.8959  0.2494  3.4908
 3902TIP3    H233198   1.452   0.739  10.956  0.4043  0.0057  2.3478
 3903TIP3   OH233199   1.899   0.473   3.465 -0.8748 -0.3160  0.1886
 3903TIP3    H133200   1.902   0.513   3.551 -0.2690  0.8403 -0.3672
 3903TIP3    H233201   1.809   0.488   3.435 -0.7978  0.1626  0.1984
 3904TIP3   OH233202   1.270   6.332  13.940  0.1304  0.3298  0.9155
 3904TIP3    H133203   1.294   6.330  14.033  1.8962  0.1708  0.4714
 3904TIP3    H233204   1.233   6.246  13.923  0.9599 -0.0799  1.1769
 3905TIP3   OH233205   5.512   2.901  16.171 -0.1960  0.7395  0.0608
 3905TIP3    H133206   5.425   2.902  16.130 -0.5037  0.4368  0.7021
 3905TIP3    H233207   5.501   2.846  16.248  0.9415 -0.5609 -0.6869
 3906TIP3   OH233208   6.043   5.589   4.066 -0.3853  0.6720  0.0906
 3906TIP3    H133209   6.110   5.656   4.064  0.4276 -0.1559 -0.6547
 3906TIP3    H233210   6.065   5.534   4.142  0.2799 -0.0996 -0.6523
 3907TIP3   OH233211   2.654   2.864  16.081 -0.1359 -0.0086 -0.3002
 3907TIP3    H133212   2.696   2.822  16.156 -0.0524 -1.7401 -1.3005
 3907TIP3    H233213   2.640   2.794  16.018 -0.1440  1.4318 -1.9535
 3908TIP3   OH233214   5.117   4.759  14.403 -1.1021  0.1633  0.8074
 3908TIP3    H133215   5.142   4.845  14.437  0.4419  1.1131 -2.4652
 3908TIP3    H233216   5.163   4.697  14.459 -1.0714  1.5115  2.3129
 3909TIP3   OH233217   5.123   2.916  13.500  0.0905 -0.0289  0.6503
 3909TIP3    H133218   5.176   2.927  13.421 -0.6107 -0.3408  0.1339
 3909TIP3    H233219   5.149   2.989  13.556 -0.9726  1.4754 -0.7553
 3910TIP3   OH233220   2.594   0.065  17.066 -0.1526 -0.6057  0.4141
 3910TIP3    H133221   2.574   0.015  17.145 -1.8353  0.2466  0.5557
 3910TIP3    H233222   2.670   0.021  17.028 -0.9896 -2.6637  1.0490
 3911TIP3   OH233223   1.397   4.448   2.907  0.0062  0.0113  0.5392
 3911TIP3    H133224   1.353   4.475   2.827  1.2009  2.5117  0.6608
 3911TIP3    H233225   1.433   4.362   2.888 -0.6934  0.1008 -1.2168
 3912TIP3   OH233226   1.172   3.236   0.253 -0.1541  0.3742  0.0479
 3912TIP3    H133227   1.088   3.207   0.218  1.3593 -2.1345 -1.6893
 3912TIP3    H233228   1.182   3.187   0.335 -0.2427  0.4393  0.0975
 3913TIP3   OH233229   2.909   5.817   2.917  0.5470  0.3859  0.4741
 3913TIP3    H133230   3.003   5.805   2.931  0.2096  0.2703  2.7801
 3913TIP3    H233231   2.868   5.742   2.960 -0.5544 -0.2058 -1.5605
 3914TIP3   OH233232   6.380   2.788   3.738 -0.4633  0.0325  0.3861
 3914TIP3    H133233   6.384   2.720   3.805  0.3195  0.9297  1.2716
 3914TIP3    H233234   6.345   2.744   3.660  1.8073 -1.8455  0.3777
 3915TIP3   OH233235   4.302   3.350  14.693 -0.1748 -0.2656 -0.1628
 3915TIP3    H133236   4.216   3.333  14.733 -1.3124  2.8653 -1.1170
 3915TIP3    H233237   4.313   3.280  14.629 -0.2318 -2.9190  2.5932
 3916TIP3   OH233238   2.714   1.323   5.266  0.2467 -0.0588 -0.1545
 3916TIP3    H133239   2.694   1.307   5.174  1.5464  0.3757 -0.5343
 3916TIP3    H233240   2.630   1.316   5.311 -0.8990  2.4938 -1.7647
 3917TIP3   OH233241   5.339   5.139  12.754  0.2056  0.6218 -0.0261
 3917TIP3    H133242   5.328   5.066  12.693  1.1100  0.5307 -0.0905
 3917TIP3    H233243   5.400   5.106  12.820  0.9238  1.4382 -0.2684
 3918TIP3   OH233244   5.845   1.480  17.291 -1.2166  0.5523 -0.1004
 3918TIP3    H133245   5.785   1.530  17.347 -0.9533 -1.7071  2.2507
 3918TIP3    H233246   5.814   1.390  17.298  1.8329 -0.4912  0.3161
 3919TIP3   OH233247   2.933   4.905  11.216  0.2406 -0.4894  0.3939
 3919TIP3    H133248   2.904   4.995  11.232 -0.4802 -0.7302  0.4781
 3919TIP3    H233249   2.860   4.851  11.247  0.2212 -1.0646 -0.6286
 3920TIP3   OH233250   1.394   4.752  16.881  0.3784  0.1682  0.0523
 3920TIP3    H133251   1.386   4.763  16.786  1.0681  0.4732  0.0229
 3920TIP3    H233252   1.422   4.661  16.892 -0.1348  0.0030 -0.0147
 3921TIP3   OH233253   6.774   3.135   0.908  0.2536 -0.6698 -0.1821
 3921TIP3    H133254   6.719   3.075   0.857 -0.6331  1.0384 -1.2753
 3921TIP3    H233255   6.727   3.219   0.905  0.8661 -0.2137  2.3453
 3922TIP3   OH233256   1.646   4.857  14.801  0.4390  0.2579  0.5498
 3922TIP3    H133257   1.671   4.919  14.732 -1.2423  0.5381  0.1700
 3922TIP3    H233258   1.605   4.912  14.868  0.2962 -0.2579  0.8827
 3923TIP3   OH233259   2.896   2.013  14.828 -0.1845  0.0152  0.2824
 3923TIP3    H133260   2.883   1.919  14.821  1.0009 -0.2305  1.2016
 3923TIP3    H233261   2.968   2.023  14.890 -2.0510  1.5990  2.2898
 3924TIP3   OH233262   3.348   0.863   3.297  0.2202  0.0533 -0.0124
 3924TIP3    H133263   3.352   0.920   3.373  0.5298  0.8928 -0.6433
 3924TIP3    H233264   3.418   0.799   3.311 -0.7116 -0.7360  1.1292
 3925TIP3   OH233265   3.828   4.598  10.846  0.9020  0.4228  0.2467
 3925TIP3    H133266   3.772   4.583  10.922  1.5946 -0.3490  0.6159
 3925TIP3    H233267   3.774   4.647  10.785 -0.7476 -1.7106 -0.0669
 3926TIP3   OH233268   3.196   2.762   1.683  0.6016  0.1874  0.0332
 3926TIP3    H133269   3.150   2.688   1.722  2.7796 -1.8733 -1.1737
 3926TIP3    H233270   3.284   2.758   1.719  1.0987  1.4540 -0.9891
 3927TIP3   OH233271   4.793   3.739   2.051 -0.1363  0.0986 -0.1393
 3927TIP3    H133272   4.841   3.793   2.114  0.5809  0.8712 -1.3280
 3927TIP3    H233273   4.831   3.652   2.059 -0.4981  0.0392  0.9645
 3928TIP3   OH233274   5.266   5.017   3.462 -0.1515 -0.5010  0.0012
 3928TIP3    H133275   5.231   4.977   3.542  0.7754  0.9505  1.1507
 3928TIP3    H233276   5.350   4.974   3.448 -0.4563 -0.9854 -0.4095
 3929TIP3   OH233277   0.897   5.972   3.728 -0.0126  0.2753 -0.8573
 3929TIP3    H133278   0.832   6.021   3.678 -1.0703  0.7401  0.9124
 3929TIP3    H233279   0.895   6.011   3.815  1.2755 -0.9769 -0.2363
 3930TIP3   OH233280   2.222   4.422  13.036  0.0447 -0.0094  0.6016
 3930TIP3    H133281   2.169   4.351  12.998  0.0086  0.6452 -0.6014
 3930TIP3    H233282   2.312   4.400  13.011 -0.2080  1.6500 -1.9377
 3931TIP3   OH233283   3.997   4.490   0.052  0.3421  0.0327  0.2830
 3931TIP3    H133284   4.069   4.463   0.109 -0.0230  0.4108  0.9282
 3931TIP3    H233285   3.992   4.585   0.064  1.1780  0.3117 -1.4461
 3932TIP3   OH233286   2.738   5.158   4.112  0.1415 -0.0766 -0.1721
 3932TIP3    H133287   2.647   5.143   4.136 -0.0665  0.0330 -0.8812
 3932TIP3    H233288   2.774   5.208   4.186 -0.6973  0.9402 -0.4410
 3933TIP3   OH233289   3.958   2.213  15.480 -0.4407 -0.1842  0.0549
 3933TIP3    H133290   4.017   2.144  15.508  1.0150  0.9078 -0.2885
 3933TIP3    H233291   3.890   2.215  15.547 -1.4317 -3.0457 -0.7889
 3934TIP3   OH233292   2.317   4.877  14.286 -0.4922 -0.1829 -0.7675
 3934TIP3    H133293   2.244   4.903  14.229  0.3380 -0.5559 -2.0301
 3934TIP3    H233294   2.293   4.789  14.317  0.6870 -1.5232 -3.4616
 3935TIP3   OH233295   3.599   1.818   6.259 -0.8646  0.2312 -0.1159
 3935TIP3    H133296   3.632   1.899   6.297 -0.7822  0.3273 -0.3879
 3935TIP3    H233297   3.625   1.749   6.320 -0.8634  0.4017  0.0742
 3936TIP3   OH233298   6.562   6.185  12.502 -0.3021 -0.0394  0.1840
 3936TIP3    H133299   6.601   6.235  12.430 -1.3984 -0.4656 -0.7183
 3936TIP3    H233300   6.578   6.093  12.479 -0.5364 -0.1692  0.5400
 3937TIP3   OH233301   2.061   6.209   1.563 -0.2759  0.7533  0.2225
 3937TIP3    H133302   2.047   6.157   1.484  0.3433  1.0921 -0.1095
 3937TIP3    H233303   2.005   6.286   1.550 -1.3739  0.0737  0.8194
 3938TIP3   OH233304   5.457   5.723  16.928  0.3081  0.4742  0.2637
 3938TIP3    H133305   5.380   5.669  16.948  0.4546  0.1722  0.0118
 3938TIP3    H233306   5.464   5.720  16.833  0.7424  0.3542  0.3002
 3939TIP3   OH233307   0.550   0.087  15.463  0.0573  0.3061  0.1570
 3939TIP3    H133308   0.621   0.144  15.432  1.6444 -1.4556  0.4169
 3939TIP3    H233309   0.583  -0.002  15.448 -1.2222 -0.5563  2.2556
 3940TIP3   OH233310   3.119   2.120   3.879 -0.4171 -0.1203 -0.0743
 3940TIP3    H133311   3.168   2.042   3.904 -0.3755 -0.9073 -2.4556
 3940TIP3    H233312   3.089   2.158   3.961  0.9967 -1.7133  1.1978
 3941TIP3   OH233313   2.381   4.239  12.168  0.1645 -0.7656  0.2301
 3941TIP3    H133314   2.347   4.221  12.080 -0.7413 -1.0634  0.6265
 3941TIP3    H233315   2.472   4.210  12.165 -0.6137 -3.4297  0.1767
 3942TIP3   OH233316   0.296   3.888  15.403 -1.0152  0.1869 -0.4729
 3942TIP3    H133317   0.336   3.833  15.471 -3.0493  1.3152  1.7083
 3942TIP3    H233318   0.225   3.934  15.448 -0.2357  3.5718 -2.5437
 3943TIP3   OH233319   2.382   6.391  11.433  0.3147 -0.5295 -0.1644
 3943TIP3    H133320   2.451   6.364  11.371  1.2581  1.2222  0.0982
 3943TIP3    H233321   2.430   6.419  11.511 -0.8051 -1.2703  0.7986
 3944TIP3   OH233322   3.447   4.341   4.289  0.3716 -0.3659  0.5962
 3944TIP3    H133323   3.473   4.362   4.200 -2.3127 -1.0670 -0.3919
 3944TIP3    H233324   3.388   4.412   4.315  2.4575  0.7555  2.4921
 3945TIP3   OH233325   2.504   5.154  12.192 -0.4209 -0.5169  0.2032
 3945TIP3    H133326   2.572   5.176  12.256  0.2303 -0.7624 -0.3933
 3945TIP3    H233327   2.552   5.143  12.110 -1.1383 -1.0866 -0.1399
 3946TIP3   OH233328   0.320   4.184  16.193 -0.3949 -0.6941  0.5144
 3946TIP3    H133329   0.299   4.252  16.256 -0.8133 -0.6233  0.2994
 3946TIP3    H233330   0.235   4.152  16.162 -0.2144 -1.5304  0.8470
 3947TIP3   OH233331   1.147   3.635   0.351  0.6870 -0.4744 -0.4496
 3947TIP3    H133332   1.113   3.609   0.265  0.3626  0.3618 -0.5728
 3947TIP3    H233333   1.069   3.653   0.403  0.8502 -1.9312  0.3307
 3948TIP3   OH233334   5.576   0.659   5.920  0.2607 -0.5373 -0.0676
 3948TIP3    H133335   5.635   0.656   5.844  1.0788 -0.0494  0.5439
 3948TIP3    H233336   5.550   0.751   5.925 -1.1804 -0.8846 -0.7991
 3949TIP3   OH233337   5.690   5.763   5.667  0.5829 -0.1076 -0.1904
 3949TIP3    H133338   5.741   5.796   5.592 -0.1934  0.3438 -0.5321
 3949TIP3    H233339   5.616   5.823   5.673 -0.6889 -1.6037 -0.6170
 3950TIP3   OH233340   5.212   4.950  16.911  0.3661  0.0878 -0.3418
 3950TIP3    H133341   5.219   5.039  16.878 -1.6266  0.3223 -0.1993
 3950TIP3    H233342   5.177   4.960  17.000 -0.0424 -0.8184 -0.3924
 3951TIP3   OH233343   2.411   1.543   3.906  0.3594 -0.0171 -0.2403
 3951TIP3    H133344   2.414   1.639   3.903 -1.5804  0.0298 -2.1245
 3951TIP3    H233345   2.342   1.523   3.969  1.6579 -0.2274  1.1501
 3952TIP3   OH233346   0.929   5.135   4.588  0.3488 -0.1955 -0.0177
 3952TIP3    H133347   1.010   5.164   4.631 -0.4774 -0.1991  1.5978
 3952TIP3    H233348   0.918   5.044   4.618 -1.3880  0.5034  1.5483
 3953TIP3   OH233349   5.506   2.267   3.301  0.1712 -0.0450  0.0264
 3953TIP3    H133350   5.492   2.339   3.362  2.9496  1.9349 -1.5591
 3953TIP3    H233351   5.447   2.285   3.227 -0.7102 -0.6095  0.5785
 3954TIP3   OH233352   3.866   0.456   0.975 -0.2255 -0.2187  0.1816
 3954TIP3    H133353   3.805   0.466   1.048 -1.8249  1.5696 -1.3063
 3954TIP3    H233354   3.907   0.542   0.966 -0.2993 -0.3136 -1.2108
 3955TIP3   OH233355   2.112   2.861  16.950 -0.3033  0.3808 -0.5069
 3955TIP3    H133356   2.136   2.775  16.916  0.9057  1.0881 -1.4807
 3955TIP3    H233357   2.190   2.891  16.996 -0.6531  1.0431 -0.3464
 3956TIP3   OH233358   0.186   5.306   1.088  0.2577  0.1608 -0.0459
 3956TIP3    H133359   0.199   5.297   0.994  0.8529 -0.0750  0.0584
 3956TIP3    H233360   0.239   5.236   1.127  0.1565  0.3656  0.4708
 3957TIP3   OH233361   6.358   1.427   1.036  0.2882  0.1908  0.2364
 3957TIP3    H133362   6.349   1.442   0.942 -1.4636 -0.7709  0.2268
 3957TIP3    H233363   6.270   1.443   1.071  0.2999 -2.0130  1.3441
 3958TIP3   OH233364   1.714   0.656   2.561  0.5707 -0.1626 -0.0707
 3958TIP3    H133365   1.625   0.686   2.544  0.1977 -0.8089  0.6742
 3958TIP3    H233366   1.705   0.563   2.581  1.3078 -0.0661  0.7990
 3959TIP3   OH233367   0.445   0.399  11.531 -0.4701 -0.5028  0.1105
 3959TIP3    H133368   0.504   0.373  11.602  0.3392 -2.2754 -1.1906
 3959TIP3    H233369   0.501   0.404  11.454 -1.8437 -1.2331 -0.9499
 3960TIP3   OH233370   2.056   0.945   4.427 -0.7952 -0.8674  0.2930
 3960TIP3    H133371   2.061   1.010   4.498 -0.1038 -0.9638  0.3364
 3960TIP3    H233372   1.979   0.892   4.448 -2.1224  0.7340 -0.4285
 3961TIP3   OH233373   6.151   1.374   5.840  0.3074 -0.3998 -0.0244
 3961TIP3    H133374   6.225   1.421   5.879  0.9961 -1.8323  0.4192
 3961TIP3    H233375   6.081   1.381   5.906  0.2827  0.3045 -0.1189
 3962TIP3   OH233376   1.917   5.584   0.891 -0.5359 -0.5668 -0.3767
 3962TIP3    H133377   1.948   5.622   0.809  1.9262 -1.0771  0.2767
 3962TIP3    H233378   1.822   5.592   0.887 -0.3370  1.2732 -2.3752
 3963TIP3   OH233379   5.782   6.705   3.583  0.1377  0.3617 -0.1315
 3963TIP3    H133380   5.736   6.678   3.662 -0.5018 -0.3674 -0.7474
 3963TIP3    H233381   5.712   6.728   3.521  0.6390  2.1464 -0.0794
 3964TIP3   OH233382   4.593   6.664  16.013  0.3640 -0.0904 -0.1876
 3964TIP3    H133383   4.646   6.697  15.940  1.9878  0.2235  1.0930
 3964TIP3    H233384   4.622   6.715  16.088 -1.7158  0.0006  0.5802
 3965TIP3   OH233385   0.245   5.135   3.582  0.4482  0.1774  0.5794
 3965TIP3    H133386   0.167   5.189   3.566  2.1080  2.1168 -1.4660
 3965TIP3    H233387   0.288   5.176   3.657 -1.1525 -1.7283  2.6070
 3966TIP3   OH233388   0.242   1.805   0.619 -0.0350  0.1280  0.2165
 3966TIP3    H133389   0.268   1.714   0.601  1.7826  0.3868  1.3385
 3966TIP3    H233390   0.272   1.854   0.543  2.2394  0.3099  1.1848
 3967TIP3   OH233391   2.611   1.023  12.832 -0.2042  0.0221  0.2358
 3967TIP3    H133392   2.605   1.111  12.796 -2.6472 -0.3144 -0.2910
 3967TIP3    H233393   2.699   1.017  12.868  1.2388  1.4223 -2.9139
 3968TIP3   OH233394   4.325   2.317   1.099  0.1726  0.1889  0.3210
 3968TIP3    H133395   4.336   2.229   1.063 -1.0901  0.1948 -0.1049
 3968TIP3    H233396   4.388   2.321   1.171 -0.1223 -1.2664  0.6900
 3969TIP3   OH233397   2.776   1.467   0.247  0.2430 -0.3515 -0.5458
 3969TIP3    H133398   2.824   1.391   0.215 -0.4197 -0.2453 -1.7974
 3969TIP3    H233399   2.843   1.525   0.283  0.7957 -1.2925 -0.0536
 3970TIP3   OH233400   6.079   0.514  12.476  0.3011 -0.4940 -0.0089
 3970TIP3    H133401   6.070   0.605  12.448  0.1347 -0.1483  1.1751
 3970TIP3    H233402   5.991   0.488  12.503  0.3275 -1.0414 -0.4345
 3971TIP3   OH233403   2.486   1.762  14.050 -0.1820 -0.1927  0.5706
 3971TIP3    H133404   2.525   1.683  14.013 -0.2590  0.6260 -1.3458
 3971TIP3    H233405   2.395   1.759  14.022  0.3147  1.6228 -1.3716
 3972TIP3   OH233406   4.891   2.124   5.517  0.1659 -0.8822 -0.1248
 3972TIP3    H133407   4.796   2.127   5.531  0.1526 -0.8589 -0.2166
 3972TIP3    H233408   4.901   2.099   5.425  0.2516 -1.2281 -0.0240
 3973TIP3   OH233409   4.777   3.044  12.207  0.1467  0.1660  0.0375
 3973TIP3    H133410   4.870   3.027  12.222  0.5249  0.1704 -2.1377
 3973TIP3    H233411   4.758   3.120  12.261  0.6007 -1.7212  2.9790
 3974TIP3   OH233412   4.756   0.283   0.406  0.5230  0.0609 -0.0794
 3974TIP3    H133413   4.762   0.187   0.415  0.9234  0.1049  0.1423
 3974TIP3    H233414   4.670   0.305   0.442  0.8742 -0.1012  0.8703
 3975TIP3   OH233415   0.492   4.199   5.815 -0.3720  0.5142 -0.8755
 3975TIP3    H133416   0.586   4.180   5.811 -0.2711  1.2910 -2.7640
 3975TIP3    H233417   0.450   4.113   5.816  0.3621  0.1265  1.5070
 3976TIP3   OH233418   0.995   5.680   3.468 -0.2331 -0.3168  0.3752
 3976TIP3    H133419   0.951   5.599   3.494 -3.4534  1.2329  0.0257
 3976TIP3    H233420   1.033   5.714   3.549 -2.5682 -0.0148  1.3725
 3977TIP3   OH233421   3.812   1.239   1.768  0.1681  0.0957 -1.0427
 3977TIP3    H133422   3.855   1.184   1.701 -0.3379  0.1193 -1.3845
 3977TIP3    H233423   3.739   1.280   1.722  0.1798  0.5836 -0.6251
 3978TIP3   OH233424   4.822   0.695  14.307  0.0998  0.3270 -0.2207
 3978TIP3    H133425   4.735   0.729  14.285  0.4273  2.3244  1.4106
 3978TIP3    H233426   4.857   0.759  14.369  2.3399 -0.9896 -0.1000
 3979TIP3   OH233427   5.561   6.271   0.594 -0.1277 -0.1193  0.4911
 3979TIP3    H133428   5.516   6.234   0.517  1.0438 -0.9057  0.1753
 3979TIP3    H233429   5.592   6.356   0.564  1.2337 -0.8627 -0.2438
 3980TIP3   OH233430   3.765   4.036  15.752  0.2703  0.0981  0.0103
 3980TIP3    H133431   3.831   4.055  15.685  1.0011  0.1332  0.7329
 3980TIP3    H233432   3.760   3.941  15.754 -0.5225  0.1191 -0.8373
 3981TIP3   OH233433   6.663   5.020   0.827 -0.1708 -0.3509  0.5542
 3981TIP3    H133434   6.671   4.947   0.766  0.0618  0.7907 -0.8053
 3981TIP3    H233435   6.593   5.075   0.791 -0.2389  0.1747  1.4723
 3982TIP3   OH233436   6.580   1.780   0.790 -0.0941  0.1203 -0.4840
 3982TIP3    H133437   6.664   1.748   0.824 -0.4772  0.6297  0.9661
 3982TIP3    H233438   6.591   1.874   0.782  0.1324 -0.0384 -2.2148
 3983TIP3   OH233439   5.222   3.060  16.864  0.3182  0.4022  0.2910
 3983TIP3    H133440   5.129   3.047  16.882  0.3937  0.8040  0.9788
 3983TIP3    H233441   5.228   3.060  16.769  0.1255 -3.3220  0.1945
 3984TIP3   OH233442   1.608   5.168  12.107 -0.1958 -0.5248  0.2239
 3984TIP3    H133443   1.540   5.235  12.104  0.1583 -0.1506  0.4548
 3984TIP3    H233444   1.690   5.215  12.090 -0.0664 -1.0767 -0.7131
 3985TIP3   OH233445   0.982   2.113   2.077  0.1134  0.3282 -0.0265
 3985TIP3    H133446   0.920   2.066   2.133  0.1444  0.9491  0.5401
 3985TIP3    H233447   0.930   2.144   2.003 -0.0943  0.1905  0.0622
 3986TIP3   OH233448   0.214   0.929   5.529 -0.1325  0.0484  0.0437
 3986TIP3    H133449   0.200   0.957   5.620  1.9512 -0.0972  0.4258
 3986TIP3    H233450   0.133   0.953   5.484 -0.5155  1.7077  1.5574
 3987TIP3   OH233451   2.079   4.490  14.945  0.0324 -0.3852 -0.7311
 3987TIP3    H133452   2.061   4.583  14.933  0.0502 -0.4598 -1.3365
 3987TIP3    H233453   2.149   4.471  14.883  1.7262 -0.2562  1.1113
 3988TIP3   OH233454   6.409   3.880   5.773 -0.2665  0.3184  0.4422
 3988TIP3    H133455   6.350   3.857   5.844  0.1711 -2.4922 -0.0318
 3988TIP3    H233456   6.360   3.857   5.693 -0.0664  1.7694 -0.1219
 3989TIP3   OH233457   3.141   4.748  13.957  0.1337  0.3073  0.0600
 3989TIP3    H133458   3.053   4.783  13.969 -0.2396 -0.0062 -1.6268
 3989TIP3    H233459   3.198   4.810  14.002 -0.9161  0.6907  0.8720
 3990TIP3   OH233460   1.747   1.094  12.996  0.1961  0.1513  0.0806
 3990TIP3    H133461   1.752   1.188  13.013  1.3500  0.5673 -2.3091
 3990TIP3    H233462   1.833   1.060  13.022  0.8644  0.2848 -1.9046
 3991TIP3   OH233463   0.001   2.890   5.514 -0.2632  0.2325  0.1086
 3991TIP3    H133464  -0.020   2.809   5.560 -0.7977 -0.1934 -0.8890
 3991TIP3    H233465  -0.084   2.934   5.502 -0.0393  0.6914  0.1751
 3992TIP3   OH233466   4.115   1.672  10.195 -0.1272  0.2531 -0.7402
 3992TIP3    H133467   4.094   1.603  10.258 -2.7231  0.2930 -1.4960
 3992TIP3    H233468   4.115   1.753  10.246 -0.2962  0.0653 -0.4435
 3993TIP3   OH233469   4.575   2.680   0.556 -0.2062 -0.0838 -0.3009
 3993TIP3    H133470   4.547   2.595   0.590  0.7655 -0.5596 -0.6620
 3993TIP3    H233471   4.494   2.725   0.533 -0.6751 -1.4107 -1.2880
 3994TIP3   OH233472   4.879   4.420   4.615 -0.0345  0.4260  0.1472
 3994TIP3    H133473   4.949   4.383   4.668  1.5644  3.1411  0.0184
 3994TIP3    H233474   4.890   4.379   4.529  0.2430 -0.5351  0.6395
 3995TIP3   OH233475   5.194   2.913   5.421  0.4074  0.2010  0.0322
 3995TIP3    H133476   5.219   2.999   5.454  2.0864 -0.9735  1.9326
 3995TIP3    H233477   5.254   2.852   5.464 -0.0427 -1.8178 -2.1016
 3996TIP3   OH233478   3.607   0.388  11.276  0.0169  0.3880  0.2625
 3996TIP3    H133479   3.565   0.474  11.272  0.2454  0.5778  1.8538
 3996TIP3    H233480   3.541   0.332  11.317 -0.4647 -0.4265 -1.5404
 3997TIP3   OH233481   4.377   6.681   5.279  0.0598 -0.1589 -0.4954
 3997TIP3    H133482   4.343   6.751   5.334  0.9837  0.7602 -1.0718
 3997TIP3    H233483   4.326   6.604   5.304  0.0559  0.3736  1.1920
 3998TIP3   OH233484   2.144   4.807   2.225  0.0415  0.1927  0.5418
 3998TIP3    H133485   2.091   4.874   2.268 -0.2930  0.9056 -0.9537
 3998TIP3    H233486   2.138   4.828   2.132 -0.4108 -2.1587  0.0143
 3999TIP3   OH233487   3.498   1.341  13.055 -0.0545 -0.0859 -0.1167
 3999TIP3    H133488   3.547   1.263  13.027  0.1583 -0.0514  0.1506
 3999TIP3    H233489   3.562   1.412  13.050 -0.4176  0.1808 -0.9471
 4000TIP3   OH233490   2.999   6.775  17.271 -0.1035  0.3666 -0.2649
 4000TIP3    H133491   2.958   6.828  17.203  0.4836 -0.2509 -1.1094
 4000TIP3    H233492   2.927   6.750  17.329 -1.0290 -1.0837 -1.9788
 4001TIP3   OH233493   2.426   5.204  16.106  0.3711 -0.1379  0.2840
 4001TIP3    H133494   2.433   5.206  16.010 -0.4611 -1.2180  0.1861
 4001TIP3    H233495   2.333   5.216  16.123  0.5696  0.4173  0.9768
 4002TIP3   OH233496   2.440   5.725  14.151 -0.4437  0.3074 -0.4323
 4002TIP3    H133497   2.424   5.668  14.076 -0.0749 -0.4949  0.0948
 4002TIP3    H233498   2.507   5.787  14.120 -1.6793  1.1873 -1.3701
 4003TIP3   OH233499   0.866   6.254  17.165 -0.1296  0.7184 -0.3696
 4003TIP3    H133500   0.909   6.211  17.091  2.0818  1.8332  0.2208
 4003TIP3    H233501   0.850   6.183  17.228  0.1993  0.1542 -0.9126
 4004TIP3   OH233502   4.792   5.438  10.968  0.3654  0.1116  0.2746
 4004TIP3    H133503   4.747   5.354  10.981 -1.8805  1.4164  1.1211
 4004TIP3    H233504   4.813   5.468  11.056  1.3388  0.3717 -0.0376
 4005TIP3   OH233505   2.274   3.187   1.290 -0.7525 -0.1526 -0.3471
 4005TIP3    H133506   2.207   3.255   1.284  0.0986  0.7602  0.1477
 4005TIP3    H233507   2.312   3.199   1.377 -1.4660 -2.1176  0.2449
 4006TIP3   OH233508   2.535   4.501   1.906  0.3602  0.1060 -0.0389
 4006TIP3    H133509   2.618   4.537   1.937 -0.4117  2.6322 -0.7761
 4006TIP3    H233510   2.561   4.432   1.844  1.9511  1.7049 -1.2143
 4007TIP3   OH233511   5.641   0.240  15.868  0.5453  0.2121 -0.3478
 4007TIP3    H133512   5.709   0.188  15.911  0.9390  0.8504 -0.2046
 4007TIP3    H233513   5.675   0.255  15.779 -0.3249 -1.2183 -0.9400
 4008TIP3   OH233514   3.897   6.532  13.513  0.1574  0.5744  0.3403
 4008TIP3    H133515   3.816   6.573  13.543  0.0637  0.4051  0.3184
 4008TIP3    H233516   3.966   6.591  13.544  0.1706 -0.5728  2.5196
 4009TIP3   OH233517   6.104   5.905   2.887 -0.1210  0.1112 -0.0071
 4009TIP3    H133518   6.196   5.879   2.886 -0.5093 -1.3068 -0.3129
 4009TIP3    H233519   6.081   5.907   2.980  0.1433  0.1763  0.0572
 4010TIP3   OH233520   4.877   6.303   0.558 -0.5941  0.6952 -0.5508
 4010TIP3    H133521   4.828   6.253   0.623  2.4342 -0.1430  1.1694
 4010TIP3    H233522   4.850   6.394   0.571 -0.6054  0.4238  1.3234
 4011TIP3   OH233523   1.232   3.616  14.142 -0.7723  0.1206 -0.0657
 4011TIP3    H133524   1.269   3.692  14.186  0.7452 -0.5234 -0.2277
 4011TIP3    H233525   1.305   3.556  14.130 -2.2222 -2.0385  1.4513
 4012TIP3   OH233526   5.159   2.358  15.928  0.7227  1.0521 -0.2574
 4012TIP3    H133527   5.223   2.340  15.858  1.9220 -1.0586  1.2980
 4012TIP3    H233528   5.213   2.381  16.004 -0.4938  1.7459  0.4056
 4013TIP3   OH233529   5.141   6.549  11.898 -0.2788 -0.1900 -0.0266
 4013TIP3    H133530   5.168   6.458  11.912  0.5954  0.1764  0.6989
 4013TIP3    H233531   5.222   6.596  11.881 -0.5732  0.7320  1.0747
 4014TIP3   OH233532   5.965   6.114   0.324 -0.4112 -0.1543 -0.0064
 4014TIP3    H133533   5.943   6.135   0.415  0.7470 -1.5608  0.6233
 4014TIP3    H233534   6.042   6.058   0.330 -0.1865 -0.0829 -1.8807
 4015TIP3   OH233535   0.435   0.467  12.592 -0.2316  0.2253  0.3387
 4015TIP3    H133536   0.377   0.455  12.517 -0.4852  0.6242  0.4647
 4015TIP3    H233537   0.445   0.380  12.629 -0.6483  0.1294  0.2323
 4016TIP3   OH233538   4.756   2.642  13.414 -0.5179  0.5691  0.1736
 4016TIP3    H133539   4.670   2.615  13.380  0.4290 -0.9872 -1.0840
 4016TIP3    H233540   4.817   2.579  13.376  0.7716 -0.5705  3.9302
 4017TIP3   OH233541   3.231   0.378   3.448 -0.2407  0.5552  0.5219
 4017TIP3    H133542   3.275   0.436   3.386 -1.2127  2.1364  1.2889
 4017TIP3    H233543   3.202   0.303   3.395  1.9358  0.2284 -0.2830
 4018TIP3   OH233544   6.172   2.485  16.233 -0.6183  0.2868 -0.1617
 4018TIP3    H133545   6.256   2.499  16.276 -1.2114 -1.0941  1.4865
 4018TIP3    H233546   6.194   2.443  16.150  0.2873 -0.5883  0.5190
 4019TIP3   OH233547   3.325   3.937   0.555 -0.1134 -0.2214  0.5838
 4019TIP3    H133548   3.349   3.844   0.549 -2.2684 -0.9293  2.3979
 4019TIP3    H233549   3.263   3.950   0.483 -0.9955 -0.5896  1.2686
 4020TIP3   OH233550   6.156   5.514  16.323 -0.6799  0.1830  0.2418
 4020TIP3    H133551   6.095   5.569  16.274 -0.0852  0.8729  0.2638
 4020TIP3    H233552   6.124   5.517  16.413 -1.8674 -1.2200 -0.1162
 4021TIP3   OH233553   1.258   1.099  15.595  0.0802  0.4122 -0.1612
 4021TIP3    H133554   1.170   1.097  15.558 -1.3742 -0.5218  3.1336
 4021TIP3    H233555   1.299   1.019  15.563 -1.1091 -0.3323  0.1322
 4022TIP3   OH233556   4.285   0.699  16.331  0.3426  0.1216  0.0355
 4022TIP3    H133557   4.299   0.608  16.355 -0.7695 -0.3754 -1.1576
 4022TIP3    H233558   4.371   0.739  16.338  0.9486 -1.1517 -0.0258
 4023TIP3   OH233559   2.098   0.372  13.564 -0.1259  0.0047  0.6046
 4023TIP3    H133560   2.079   0.452  13.514 -0.1996 -0.1979  0.3055
 4023TIP3    H233561   2.054   0.385  13.647 -0.9055 -0.1175  0.2149
 4024TIP3   OH233562   3.240   4.714   2.547  0.1068  0.2560  0.3290
 4024TIP3    H133563   3.211   4.672   2.466  0.6893  0.6560 -0.0998
 4024TIP3    H233564   3.245   4.644   2.611 -0.0332 -0.1261 -0.0775
 4025TIP3   OH233565   6.375   4.117  15.172  0.0640 -0.1527 -0.2202
 4025TIP3    H133566   6.385   4.074  15.257  0.0906  1.2184  0.4730
 4025TIP3    H233567   6.409   4.205  15.185 -0.9406  0.4201 -1.3534
 4026TIP3   OH233568   0.648   2.181  16.871  0.2322 -0.2447  0.2614
 4026TIP3    H133569   0.619   2.116  16.935 -0.0917  1.1181  1.5519
 4026TIP3    H233570   0.695   2.131  16.805 -0.6238 -1.8647  0.8445
 4027TIP3   OH233571   0.650   3.677  10.759 -0.6415 -0.2664 -0.3734
 4027TIP3    H133572   0.729   3.656  10.708  0.7856 -0.2323  1.7229
 4027TIP3    H233573   0.617   3.592  10.788 -0.6125 -0.2045 -0.1576
 4028TIP3   OH233574   6.818   6.399  13.376  0.5837  0.3850  0.1197
 4028TIP3    H133575   6.857   6.369  13.294 -0.2213  1.3321 -0.6309
 4028TIP3    H233576   6.741   6.342  13.387 -0.5110  1.6373 -0.9069
 4029TIP3   OH233577   2.507   5.247  12.645 -0.6102 -0.0676  0.8054
 4029TIP3    H133578   2.455   5.318  12.607 -1.9976 -2.8819 -2.9152
 4029TIP3    H233579   2.597   5.266  12.619 -0.7961  1.0444  0.9758
 4030TIP3   OH233580   1.478   0.880   0.385  0.1078 -0.0779 -0.0593
 4030TIP3    H133581   1.456   0.955   0.439 -0.0770  0.2817 -0.6252
 4030TIP3    H233582   1.569   0.894   0.359  0.4204 -0.6152  0.7476
 4031TIP3   OH233583   5.004   1.609  17.095  0.2129  0.1301 -0.1529
 4031TIP3    H133584   5.005   1.643  17.005  1.9360 -1.3424 -0.7196
 4031TIP3    H233585   4.967   1.521  17.086 -0.6190  0.3863  0.7404
 4032TIP3   OH233586   1.157   4.159  14.126 -0.3221  0.4618 -0.1571
 4032TIP3    H133587   1.212   4.127  14.197 -2.1379 -2.1242  0.1771
 4032TIP3    H233588   1.194   4.119  14.047 -0.0546  0.9729 -0.2920
 4033TIP3   OH233589   4.412   1.694  16.500  0.4877 -0.6656 -0.0941
 4033TIP3    H133590   4.344   1.760  16.488  2.6594  1.2325 -2.6001
 4033TIP3    H233591   4.419   1.650  16.415  3.1369 -0.0475 -0.2414
 4034TIP3   OH233592   5.711   1.878   0.637 -0.0715  0.0482 -0.3962
 4034TIP3    H133593   5.717   1.966   0.599  0.9805 -0.1953 -0.8129
 4034TIP3    H233594   5.693   1.894   0.730  0.9939  0.7394 -0.2910
 4035TIP3   OH233595   4.524   1.708   0.620  0.2638  0.5056 -0.4960
 4035TIP3    H133596   4.487   1.706   0.708  1.3709  0.5246 -0.0157
 4035TIP3    H233597   4.612   1.746   0.632 -0.5136  2.9153 -1.9611
 4036TIP3   OH233598   2.555   6.577   2.883  0.5934 -0.0227 -0.5926
 4036TIP3    H133599   2.627   6.586   2.945 -0.0871  1.3964  0.0055
 4036TIP3    H233600   2.541   6.482   2.877  2.4887 -0.3201 -0.7155
 4037TIP3   OH233601   6.183   5.714   5.893  0.0019  0.0878  0.6745
 4037TIP3    H133602   6.172   5.668   5.976  0.6135 -0.9209  0.2051
 4037TIP3    H233603   6.222   5.649   5.834 -0.3517  0.8099 -0.3806
 4038TIP3   OH233604   6.482   3.250   4.919 -0.4844  0.5771 -0.0043
 4038TIP3    H133605   6.566   3.292   4.902 -0.8630  1.1513 -0.4932
 4038TIP3    H233606   6.495   3.158   4.895  0.1861  0.5319  0.5285
 4039TIP3   OH233607   3.374   4.152  12.857  0.1536 -0.7851 -0.7283
 4039TIP3    H133608   3.310   4.204  12.809  1.0729 -0.1976 -1.3457
 4039TIP3    H233609   3.390   4.202  12.938  1.0336 -0.0911 -1.3193
 4040TIP3   OH233610   3.106   6.435  12.713 -0.3923  0.0593 -0.1513
 4040TIP3    H133611   3.023   6.396  12.739  0.4951 -0.2232  2.3688
 4040TIP3    H233612   3.155   6.362  12.675 -0.3189 -0.3605  0.7411
 4041TIP3   OH233613   5.983   5.008   1.665  0.2810  0.0603 -0.1687
 4041TIP3    H133614   5.975   5.048   1.752 -1.1709  0.0741 -0.2992
 4041TIP3    H233615   5.978   4.914   1.682 -1.3412  0.0968 -0.3515
 4042TIP3   OH233616   2.854   5.781  13.741  0.1655  0.1545 -0.0065
 4042TIP3    H133617   2.770   5.788  13.694  1.1598  0.9135 -1.7111
 4042TIP3    H233618   2.901   5.711  13.697  0.6096  0.0030  0.6977
 4043TIP3   OH233619   0.067   5.495  12.338 -0.0773  0.8880 -0.2771
 4043TIP3    H133620   0.089   5.577  12.381  1.5408  0.0595  0.5195
 4043TIP3    H233621   0.098   5.427  12.398 -2.3769 -0.3402 -0.4089
 4044TIP3   OH233622   6.362   4.643  12.645 -0.2838 -1.3626 -0.2368
 4044TIP3    H133623   6.413   4.585  12.588  0.0519 -0.3752 -0.9759
 4044TIP3    H233624   6.422   4.664  12.716 -0.3179 -1.7274 -0.1015
 4045TIP3   OH233625   4.268   6.426   5.695  0.2558  0.3998  0.1069
 4045TIP3    H133626   4.207   6.352   5.689  1.2388 -0.5076  1.1323
 4045TIP3    H233627   4.261   6.455   5.786 -0.5037  1.9137 -0.4153
 4046TIP3   OH233628   2.552   5.879   5.681 -0.1746 -0.3213 -0.0358
 4046TIP3    H133629   2.487   5.860   5.749 -1.4121  0.5550 -0.9392
 4046TIP3    H233630   2.629   5.909   5.730 -0.6334 -0.8532  1.0352
 4047TIP3   OH233631   4.779   3.563   5.106 -0.0076 -0.0492 -0.2999
 4047TIP3    H133632   4.780   3.470   5.083 -1.6230 -0.2471  0.3620
 4047TIP3    H233633   4.784   3.608   5.021 -1.8290 -0.7621 -0.8210
 4048TIP3   OH233634   4.160   4.811   0.892  0.4555 -0.4269 -0.2898
 4048TIP3    H133635   4.245   4.768   0.896  0.6492 -0.0364 -0.2316
 4048TIP3    H233636   4.098   4.744   0.921  0.9454 -0.1328  1.4708
 4049TIP3   OH233637   3.947   2.763   2.085  0.0753  0.2006 -0.3922
 4049TIP3    H133638   3.882   2.785   2.019  0.7897  0.6415 -0.9450
 4049TIP3    H233639   4.030   2.756   2.038  0.0350 -2.8442 -0.1111
 4050TIP3   OH233640   5.990   5.479  14.855  0.3564  0.2408 -0.7376
 4050TIP3    H133641   6.080   5.510  14.859  1.0383 -1.7920  0.7863
 4050TIP3    H233642   5.940   5.546  14.901  0.8203  2.1368 -2.8945
 4051TIP3   OH233643   1.658   3.059   0.575  0.2193  0.6348 -0.4010
 4051TIP3    H133644   1.569   3.040   0.606  0.5391 -2.1604 -1.0392
 4051TIP3    H233645   1.709   3.070   0.655  0.0321 -1.5879  0.0720
 4052TIP3   OH233646   3.277   3.657  16.848  0.2544 -0.5659  0.2646
 4052TIP3    H133647   3.281   3.752  16.847 -1.8738 -0.4480  0.2024
 4052TIP3    H233648   3.359   3.629  16.888  0.9939  1.2749  0.0721
 4053TIP3   OH233649   5.530   1.405   1.661  0.2504 -0.2665  0.0344
 4053TIP3    H133650   5.510   1.335   1.723  0.5206 -0.5342 -0.1810
 4053TIP3    H233651   5.483   1.381   1.581  1.1434 -0.7323 -0.3705
 4054TIP3   OH233652   0.144   3.682  13.888 -0.5933 -0.1734  0.3185
 4054TIP3    H133653   0.137   3.691  13.983 -3.1772  0.5231  0.1015
 4054TIP3    H233654   0.069   3.627  13.864 -0.7244  0.7638 -1.4428
 4055TIP3   OH233655   3.904   3.428  14.306  0.0043 -0.4954  0.2983
 4055TIP3    H133656   3.972   3.433  14.239 -0.2370 -0.2319  0.0709
 4055TIP3    H233657   3.870   3.517  14.313  0.5272 -0.3631  1.2978
 4056TIP3   OH233658   1.664   1.259  16.229 -0.2647 -0.0311  0.0106
 4056TIP3    H133659   1.570   1.246  16.242  0.1580 -1.9360  1.3066
 4056TIP3    H233660   1.702   1.172  16.240  1.9118  1.0908  1.6907
 4057TIP3   OH233661   0.027   0.025   2.438  0.0186 -0.3377  0.0577
 4057TIP3    H133662   0.031   0.077   2.357  1.3341 -0.8657 -0.2356
 4057TIP3    H233663  -0.057   0.047   2.476 -0.3289  0.4476 -1.1170
 4058TIP3   OH233664   4.689   5.695   5.643 -0.3361  0.4642 -0.4895
 4058TIP3    H133665   4.763   5.711   5.701 -0.2402 -0.2872 -0.4066
 4058TIP3    H233666   4.712   5.615   5.596 -1.8952 -0.7572  0.8119
 4059TIP3   OH233667   3.617   1.538   5.676 -0.1540  0.0349 -0.2284
 4059TIP3    H133668   3.525   1.559   5.660  0.3033  0.5954 -2.3197
 4059TIP3    H233669   3.664   1.619   5.654  0.9314 -0.6450 -0.4392
 4060TIP3   OH233670   2.220   2.665  10.869  0.0121 -0.4970  0.0131
 4060TIP3    H133671   2.272   2.725  10.815  0.8195 -1.2742 -0.0893
 4060TIP3    H233672   2.218   2.583  10.819 -2.3821 -0.1091 -0.5720
 4061TIP3   OH233673   4.349   5.947  10.273  0.0979 -0.1967 -0.3843
 4061TIP3    H133674   4.347   6.042  10.265 -0.2129 -0.2477 -0.9567
 4061TIP3    H233675   4.308   5.915  10.192  0.5274 -0.8238 -0.3585
 4062TIP3   OH233676   1.640   6.683  15.257  0.3733  0.3113  0.0068
 4062TIP3    H133677   1.603   6.667  15.344  1.2426  0.4216  0.3986
 4062TIP3    H233678   1.631   6.600  15.211 -0.0173  0.2319  0.2224
 4063TIP3   OH233679   6.610   0.194   3.853  0.1422  0.5531 -0.3000
 4063TIP3    H133680   6.518   0.171   3.843 -0.3980  1.8873  1.5121
 4063TIP3    H233681   6.613   0.250   3.930  2.2228  1.9660 -1.3705
 4064TIP3   OH233682   0.048   0.552   4.477  0.7846 -0.2224 -0.3954
 4064TIP3    H133683  -0.021   0.602   4.433  0.6810 -0.6887 -0.7762
 4064TIP3    H233684   0.065   0.478   4.418  0.4468 -1.0153  0.4836
 4065TIP3   OH233685   5.162   6.002  15.939 -0.0751  0.0539 -0.2867
 4065TIP3    H133686   5.232   5.943  15.965 -1.6699 -2.0927 -0.7474
 4065TIP3    H233687   5.172   6.011  15.844 -0.7718 -0.7126 -0.4313
 4066TIP3   OH233688   4.038   5.616  16.539  0.2919 -0.7299 -0.0900
 4066TIP3    H133689   4.062   5.701  16.576 -0.6771 -0.4161 -0.1604
 4066TIP3    H233690   3.959   5.633  16.488 -0.2925 -1.7895  0.4378
 4067TIP3   OH233691   1.640   2.014  11.089  0.0848 -0.5467 -0.2869
 4067TIP3    H133692   1.730   2.045  11.086  0.2727 -1.1952 -2.2439
 4067TIP3    H233693   1.646   1.925  11.123 -0.0548  0.1233  1.5609
 4068TIP3   OH233694   3.558   6.571   4.283  0.2632 -0.3594  0.0685
 4068TIP3    H133695   3.564   6.475   4.283 -2.1088 -0.5353  1.4807
 4068TIP3    H233696   3.645   6.600   4.310  0.4613 -2.1697  1.4343
 4069TIP3   OH233697   4.636   0.394   6.274  0.1612 -0.0285 -0.2957
 4069TIP3    H133698   4.666   0.324   6.333 -0.2674  1.8868  2.2788
 4069TIP3    H233699   4.546   0.369   6.252  0.1524 -0.4869  0.2462
 4070TIP3   OH233700   1.340   0.924  14.876 -0.3070 -0.8419 -0.0548
 4070TIP3    H133701   1.293   1.005  14.856 -1.2100 -1.4087 -0.2693
 4070TIP3    H233702   1.370   0.936  14.966 -3.1706 -1.5195  1.0537
 4071TIP3   OH233703   2.093   2.703  15.594 -0.0615  0.2301  0.5815
 4071TIP3    H133704   2.134   2.717  15.679 -0.2202 -1.0136  0.8741
 4071TIP3    H233705   2.031   2.775  15.585  1.4238  1.5334  0.6004
 4072TIP3   OH233706   6.601   4.826  11.629  0.0134  0.2931  0.2776
 4072TIP3    H133707   6.693   4.801  11.636  0.2286  0.0679 -2.8359
 4072TIP3    H233708   6.592   4.901  11.688  2.2330  0.4453  0.4409
 4073TIP3   OH233709   4.453   6.642   5.643 -0.1286  0.4488 -0.5384
 4073TIP3    H133710   4.390   6.571   5.656 -0.4847  1.3163  2.9786
 4073TIP3    H233711   4.416   6.716   5.691  2.1821  1.8122 -0.7961
 4074TIP3   OH233712   6.061   3.731  11.853 -0.0868  0.3860  0.0564
 4074TIP3    H133713   6.131   3.784  11.891  0.6143 -0.0167 -0.6658
 4074TIP3    H233714   6.005   3.710  11.927 -0.0098  1.5711  0.4681
 4075TIP3   OH233715   0.790   2.633  12.724 -0.2007 -0.1994 -0.0295
 4075TIP3    H133716   0.732   2.695  12.767 -0.8477 -0.8060 -0.0239
 4075TIP3    H233717   0.829   2.684  12.652 -2.5947 -0.4407 -1.5545
 4076TIP3   OH233718   3.467   2.225   1.200  0.2378  0.2465  0.3020
 4076TIP3    H133719   3.386   2.240   1.151  1.3685 -1.8283 -2.3521
 4076TIP3    H233720   3.531   2.284   1.160  0.6688  0.0161  0.6378
 4077TIP3   OH233721   6.714   6.764   6.205  0.9640 -0.0784  0.0404
 4077TIP3    H133722   6.790   6.730   6.157  1.4092  0.4956  0.3283
 4077TIP3    H233723   6.730   6.858   6.211 -0.7711  0.3591 -1.6626
 4078TIP3   OH233724   2.622   2.534  13.144  0.4146 -0.2285  0.3826
 4078TIP3    H133725   2.698   2.574  13.102  0.1624 -0.0833  0.0624
 4078TIP3    H233726   2.656   2.496  13.225  1.2635 -2.0451 -0.7943
 4079TIP3   OH233727   2.281   0.573  13.147  0.0404 -0.7331 -0.6645
 4079TIP3    H133728   2.202   0.533  13.184 -1.4851  1.0785 -1.8976
 4079TIP3    H233729   2.250   0.626  13.074  2.2679  0.9868 -0.4289
 4080TIP3   OH233730   5.164   2.838  13.170  0.1396  0.2071  0.8547
 4080TIP3    H133731   5.073   2.834  13.140  0.0704 -2.1425  1.3607
 4080TIP3    H233732   5.203   2.906  13.115 -0.9606 -1.4059 -2.0211
 4081TIP3   OH233733   6.143   2.344  11.981  0.1671 -0.2176 -0.2125
 4081TIP3    H133734   6.228   2.309  12.008 -0.3416 -0.2399  1.4446
 4081TIP3    H233735   6.099   2.364  12.063 -1.4982 -0.3742 -1.0467
 4082TIP3   OH233736   5.021   3.383   3.733 -0.5428 -0.0019 -0.5409
 4082TIP3    H133737   5.041   3.331   3.811 -2.2664 -0.3752 -0.3308
 4082TIP3    H233738   5.100   3.436   3.719  0.2711 -0.8467  0.7059
 4083TIP3   OH233739   4.648   0.256  15.883  0.3165  0.2626  0.3435
 4083TIP3    H133740   4.662   0.297  15.968 -0.2873  1.2575 -0.0334
 4083TIP3    H233741   4.707   0.303  15.824  0.7029 -0.3942  0.1970
 4084TIP3   OH233742   3.913   1.275   6.341 -0.5409  0.1255 -0.0411
 4084TIP3    H133743   3.892   1.243   6.429 -0.2668  1.4012  0.5017
 4084TIP3    H233744   4.008   1.266   6.334 -0.2586  2.2729  0.7219
 4085TIP3   OH233745   3.542   5.543   3.264 -0.3557 -0.2340 -0.1313
 4085TIP3    H133746   3.594   5.590   3.330  0.5553 -1.1580 -0.1758
 4085TIP3    H233747   3.589   5.556   3.182  0.3160 -1.8223 -0.0168
 4086TIP3   OH233748   2.854   4.409  11.717 -0.0226 -0.3211 -0.4028
 4086TIP3    H133749   2.785   4.413  11.783  0.3818 -0.0273  0.0079
 4086TIP3    H233750   2.936   4.408  11.767  0.2927  0.1092 -0.8945
 4087TIP3   OH233751   3.368   5.968  12.391 -0.0919  0.4228  0.0072
 4087TIP3    H133752   3.380   6.056  12.428  1.2065  1.4099 -2.6756
 4087TIP3    H233753   3.420   5.911  12.449  0.1005  1.5937  1.0107
 4088TIP3   OH233754   0.504   0.619   2.751  0.4447  0.3329 -0.1661
 4088TIP3    H133755   0.518   0.706   2.715  1.5533  0.2404  0.0321
 4088TIP3    H233756   0.581   0.569   2.725 -1.3433 -1.3174 -2.4435
 4089TIP3   OH233757   0.289   5.256   0.852  0.3614 -0.8561  0.1769
 4089TIP3    H133758   0.370   5.207   0.871  0.3512  0.5461  4.2539
 4089TIP3    H233759   0.320   5.344   0.830  0.1202 -1.4566 -2.7822
 4090TIP3   OH233760   4.003   5.928   3.054 -0.2453  0.3858 -0.2503
 4090TIP3    H133761   3.930   5.963   3.004 -0.3783  0.5829  0.0791
 4090TIP3    H233762   4.028   6.000   3.113 -0.8323 -0.2330  0.7756
 4091TIP3   OH233763   2.094   1.878  14.808  0.2280 -0.1831  0.1677
 4091TIP3    H133764   2.110   1.784  14.808  0.3381 -0.1760  1.7034
 4091TIP3    H233765   2.062   1.897  14.896  0.3741  1.2479 -0.0752
 4092TIP3   OH233766   4.472   3.594  11.494 -0.2392 -0.7005 -0.5142
 4092TIP3    H133767   4.524   3.664  11.454 -1.8946  1.1474  0.4766
 4092TIP3    H233768   4.531   3.553  11.557  0.6232  0.0922 -0.7969
 4093TIP3   OH233769   6.665   1.548  10.955 -0.9559 -0.4185  0.0038
 4093TIP3    H133770   6.636   1.631  10.918  2.0481 -0.2570 -2.2162
 4093TIP3    H233771   6.640   1.483  10.890  0.4331 -0.6835 -0.2959
 4094TIP3   OH233772   5.455   0.545  14.439 -0.3866  0.4664  0.1083
 4094TIP3    H133773   5.492   0.521  14.524 -0.4921  0.9148  0.2813
 4094TIP3    H233774   5.378   0.489  14.430  0.5878 -0.8181 -0.4620
 4095TIP3   OH233775   3.658   3.125  13.901 -0.0524 -0.2531 -0.3411
 4095TIP3    H133776   3.748   3.124  13.935 -0.4844  0.8719  0.8785
 4095TIP3    H233777   3.646   3.215  13.868 -0.9417 -0.2072  0.0966
 4096TIP3   OH233778   5.907   0.908   1.331 -0.0127 -0.1712 -0.0302
 4096TIP3    H133779   5.828   0.857   1.314  0.3475 -0.2446 -1.5510
 4096TIP3    H233780   5.967   0.884   1.261  2.0037 -1.3918  2.0606
 4097TIP3   OH233781   5.494   5.673   4.360 -0.1044  0.1268  0.1226
 4097TIP3    H133782   5.510   5.723   4.440 -0.5213  2.2492 -1.0848
 4097TIP3    H233783   5.404   5.642   4.368  0.5077 -1.4114  1.3667
 4098TIP3   OH233784   1.376   5.698   0.168 -0.2747  0.7144 -0.1363
 4098TIP3    H133785   1.298   5.648   0.192  0.5767 -0.5027  0.1594
 4098TIP3    H233786   1.439   5.632   0.142  0.5096  1.7237 -0.8273
 4099TIP3   OH233787   2.792   0.929  13.888  0.2196 -0.6520 -0.3205
 4099TIP3    H133788   2.793   0.981  13.968 -0.1687  0.3707 -0.9736
 4099TIP3    H233789   2.800   0.839  13.918 -2.1726 -0.4546  1.0239
 4100TIP3   OH233790   2.186   5.641   0.294 -0.1762  0.1139 -0.8570
 4100TIP3    H133791   2.107   5.587   0.299 -0.4166  0.4574 -0.9032
 4100TIP3    H233792   2.153   5.731   0.295  0.3007  0.2837  0.7930
 4101TIP3   OH233793   1.920   3.145   5.453  0.0515 -0.1540  0.0572
 4101TIP3    H133794   1.939   3.106   5.538 -2.2616 -1.9612 -0.2169
 4101TIP3    H233795   1.856   3.086   5.413 -1.0044  2.1624 -1.7725
 4102TIP3   OH233796   1.281   0.047  13.899 -0.7064 -0.1391  0.2291
 4102TIP3    H133797   1.212   0.066  13.835  0.1598 -0.8727 -0.9351
 4102TIP3    H233798   1.357   0.024  13.846  0.4065  0.5437  1.5112
 4103TIP3   OH233799   1.605   3.608  13.964  0.0119 -0.0506  0.4004
 4103TIP3    H133800   1.574   3.677  14.022  0.0189  1.2990 -1.1710
 4103TIP3    H233801   1.548   3.533  13.983 -0.6623  0.7064  1.4006
 4104TIP3   OH233802   1.625   4.172   6.772  0.3175 -0.1201 -0.5037
 4104TIP3    H133803   1.534   4.146   6.757 -0.0322  0.9730 -0.3052
 4104TIP3    H233804   1.670   4.090   6.793 -0.8529 -0.5259  0.5159
 4105TIP3   OH233805   2.516   1.373   2.997  0.0962 -0.1379 -0.1310
 4105TIP3    H133806   2.448   1.328   3.046  2.4126 -1.3235  2.1325
 4105TIP3    H233807   2.563   1.424   3.064  1.9902 -0.0906 -1.4542
 4106TIP3   OH233808   1.932   1.955   1.409 -0.8665 -0.4272 -0.6343
 4106TIP3    H133809   1.848   1.958   1.364 -1.4535 -1.0286  0.4050
 4106TIP3    H233810   1.974   2.038   1.388 -2.0496  0.1992 -0.5172
 4107TIP3   OH233811   0.474   3.638   2.922 -0.0620 -0.4828  0.3922
 4107TIP3    H133812   0.383   3.666   2.917 -0.3652 -1.0562  2.5507
 4107TIP3    H233813   0.483   3.573   2.852 -0.8616  0.7293 -0.8694
 4108TIP3   OH233814   4.663   2.471   5.306 -0.7165 -0.0977  0.1438
 4108TIP3    H133815   4.601   2.453   5.236  0.3285 -0.1824 -0.7794
 4108TIP3    H233816   4.747   2.438   5.272  0.3594  2.3895  0.2755
 4109TIP3   OH233817   3.240   0.741   2.932  0.6143 -0.0076  0.0079
 4109TIP3    H133818   3.243   0.802   3.006 -1.6998 -0.6660  0.6954
 4109TIP3    H233819   3.320   0.758   2.883  0.7303  2.5147  1.0273
 4110TIP3   OH233820   5.070   3.125   1.611 -0.1463  0.3808 -0.2309
 4110TIP3    H133821   5.057   3.030   1.610  1.5728  0.1337 -0.1265
 4110TIP3    H233822   5.057   3.150   1.702  1.7863 -0.1129  0.1955
 4111TIP3   OH233823   4.867   0.165   1.904 -0.1545  0.2147 -0.1372
 4111TIP3    H133824   4.917   0.217   1.967  1.2585 -0.5440 -0.6022
 4111TIP3    H233825   4.803   0.117   1.956  2.0896 -1.6968  0.9524
 4112TIP3   OH233826   6.704   5.980   1.947  0.2145 -0.5871  0.2114
 4112TIP3    H133827   6.631   6.042   1.945  0.4225 -0.3493 -0.4260
 4112TIP3    H233828   6.665   5.896   1.970 -0.3872 -0.6272 -0.9297
 4113TIP3   OH233829   2.271   2.499   4.668 -0.6553  0.2105  0.3530
 4113TIP3    H133830   2.361   2.477   4.692 -0.2489 -0.3288 -1.6163
 4113TIP3    H233831   2.258   2.587   4.705  0.3779 -0.0360  1.3555
 4114TIP3   OH233832   6.496   3.759   6.315  0.4225 -0.1112  0.6114
 4114TIP3    H133833   6.532   3.696   6.251 -2.0214 -0.3742 -0.5722
 4114TIP3    H233834   6.522   3.845   6.281  1.2709 -0.3407  0.6492
 4115TIP3   OH233835   1.365   1.861  15.244  0.2605 -0.2631 -0.3209
 4115TIP3    H133836   1.385   1.822  15.329 -0.4640  2.6525  1.2836
 4115TIP3    H233837   1.286   1.913  15.260  1.2946  1.9899 -2.2162
 4116TIP3   OH233838   1.461   6.006  16.236 -0.4016  0.0201 -0.0003
 4116TIP3    H133839   1.550   6.012  16.202 -0.0706  1.2657  1.0522
 4116TIP3    H233840   1.444   5.912  16.242 -0.2374 -0.2453 -2.9348
 4117TIP3   OH233841   3.795   1.041  11.560 -0.0742 -0.4223 -0.3200
 4117TIP3    H133842   3.765   0.952  11.538 -0.8531 -0.3952  0.6011
 4117TIP3    H233843   3.880   1.049  11.517 -0.8293 -0.9598 -1.9388
 4118TIP3   OH233844   5.959   4.090  13.493  0.3906  0.1811 -0.0655
 4118TIP3    H133845   5.887   4.152  13.491  0.0250 -0.2629 -1.1248
 4118TIP3    H233846   6.011   4.110  13.415  0.1173 -1.0062 -0.5690
 4119TIP3   OH233847   2.613   4.997   0.182 -0.1912  0.1467  0.0370
 4119TIP3    H133848   2.550   4.943   0.133  1.4219 -1.1350 -0.7041
 4119TIP3    H233849   2.651   5.054   0.115  1.2012 -0.8231 -0.0324
 4120TIP3   OH233850   2.121   4.005  13.232  0.3767 -0.0597  0.1349
 4120TIP3    H133851   2.028   4.009  13.256  0.0703  1.9105 -1.2737
 4120TIP3    H233852   2.167   4.031  13.312 -0.4034  1.3485  0.1519
 4121TIP3   OH233853   3.246   0.444   5.626  0.5749  0.3359 -0.5934
 4121TIP3    H133854   3.324   0.477   5.671  0.6819 -1.4099  0.5259
 4121TIP3    H233855   3.183   0.426   5.696 -1.2973  2.7939 -1.5509
 4122TIP3   OH233856   3.388   4.093   5.967  0.4688  0.6561 -0.1543
 4122TIP3    H133857   3.342   4.177   5.974  1.1842  1.1659 -1.4122
 4122TIP3    H233858   3.356   4.042   6.042 -0.2694  1.9002  0.3956
 4123TIP3   OH233859   5.453   3.689  11.787  0.2222  0.6793 -0.6820
 4123TIP3    H133860   5.452   3.765  11.727  1.9454  1.2819  0.0292
 4123TIP3    H233861   5.369   3.646  11.772 -1.6805  3.8836  0.3501
 4124TIP3   OH233862   2.429   0.932   6.402 -0.1790 -0.2085 -0.3057
 4124TIP3    H133863   2.519   0.964   6.407  0.0051 -1.0429  2.0447
 4124TIP3    H233864   2.375   1.009   6.421  0.1419 -0.3168  1.1053
 4125TIP3   OH233865   1.108   5.975   0.115  0.4130  0.2574 -0.3430
 4125TIP3    H133866   1.088   5.932   0.031 -0.8676 -0.7993  0.4808
 4125TIP3    H233867   1.120   6.067   0.092 -2.3155  0.4069 -1.3828
 4126TIP3   OH233868   4.079   2.353  15.256 -0.8115  0.2503 -0.0213
 4126TIP3    H133869   4.032   2.436  15.250 -1.4800  0.0625  2.1291
 4126TIP3    H233870   4.040   2.309  15.331  0.8331 -1.1797  0.0326
 4127TIP3   OH233871   0.211   5.141   5.983 -0.1333 -0.3764  0.0531
 4127TIP3    H133872   0.208   5.220   6.037  0.7011 -0.3908  0.1232
 4127TIP3    H233873   0.258   5.077   6.036  2.3028  0.1685 -1.3873
 4128TIP3   OH233874   1.162   5.037  16.339  0.2702 -0.1285  0.3269
 4128TIP3    H133875   1.191   5.124  16.366  0.0015 -0.6830  2.4485
 4128TIP3    H233876   1.128   5.050  16.250  0.9952  1.7574  0.2950
 4129TIP3   OH233877   4.426   2.096  10.466 -0.0184  0.6186 -0.2297
 4129TIP3    H133878   4.481   2.018  10.469 -0.5657  0.2506  0.3023
 4129TIP3    H233879   4.423   2.119  10.373 -0.2171 -0.2565 -0.4427
 4130TIP3   OH233880   4.867   0.173  15.054  0.4257 -0.1004 -0.3088
 4130TIP3    H133881   4.867   0.095  14.999  2.1081 -2.5422  2.9116
 4130TIP3    H233882   4.960   0.196  15.062 -0.0877  2.5460 -1.5681
 4131TIP3   OH233883   5.313   5.910  11.253  0.2265  0.1075 -0.4875
 4131TIP3    H133884   5.308   5.838  11.190  2.1836  0.4075 -1.0061
 4131TIP3    H233885   5.308   5.989  11.199 -2.1304  0.3883  0.0941
 4132TIP3   OH233886   5.304   1.017  15.003 -0.4191 -0.0443  0.0462
 4132TIP3    H133887   5.269   1.000  14.916  1.9747  3.4594 -1.6674
 4132TIP3    H233888   5.376   0.955  15.012 -1.1700 -0.9545 -0.1086
 4133TIP3   OH233889   3.014   5.688   1.163 -0.0554 -0.2164  0.5176
 4133TIP3    H133890   2.933   5.669   1.211 -0.5079  0.9884  0.2489
 4133TIP3    H233891   3.057   5.756   1.214 -0.3443  0.7898 -0.5467
 4134TIP3   OH233892   3.377   3.099  12.098  0.0675  0.0047 -0.6025
 4134TIP3    H133893   3.380   3.067  12.189 -3.5197 -1.3245 -0.8731
 4134TIP3    H233894   3.461   3.142  12.086  0.7160  0.0941  3.3256
 4135TIP3   OH233895   2.649   4.638   1.416  0.4734  0.2020  0.4122
 4135TIP3    H133896   2.707   4.700   1.461 -0.9787  0.2165  2.3106
 4135TIP3    H233897   2.704   4.561   1.401  2.0891  1.6254 -1.3129
 4136TIP3   OH233898   4.062   0.766  13.679 -0.1012  0.3830  0.2215
 4136TIP3    H133899   4.077   0.694  13.741 -1.0982 -0.4254 -0.4689
 4136TIP3    H233900   4.100   0.735  13.597  1.1256  1.4141  0.3758
 4137TIP3   OH233901   2.853   3.486  13.400 -0.2104  0.0372 -0.2730
 4137TIP3    H133902   2.868   3.402  13.444  0.3648 -0.2578 -1.0145
 4137TIP3    H233903   2.824   3.463  13.312 -1.7607  0.6266  0.0704
 4138TIP3   OH233904   6.705   3.348   5.470  0.1788 -0.5707  0.4433
 4138TIP3    H133905   6.646   3.412   5.510  0.6068 -0.2490  0.5607
 4138TIP3    H233906   6.793   3.381   5.490  0.4137 -1.7147  1.3682
 4139TIP3   OH233907   4.917   2.249   2.595 -0.5925 -0.1053 -0.3461
 4139TIP3    H133908   4.885   2.199   2.670 -0.3113  1.6661  0.9913
 4139TIP3    H233909   4.880   2.337   2.606  0.9936  0.7142 -1.2352
 4140TIP3   OH233910   6.736   6.764   1.940  0.0974 -0.1647  0.2223
 4140TIP3    H133911   6.694   6.681   1.917 -0.2421 -0.4453  1.8601
 4140TIP3    H233912   6.673   6.808   1.997  1.0629  0.4096  0.8594
 4141TIP3   OH233913   4.653   5.939  12.515 -0.1765  0.4466  0.1311
 4141TIP3    H133914   4.625   5.852  12.487 -1.9329  1.0393 -0.0038
 4141TIP3    H233915   4.729   5.959  12.460  2.7197 -2.5961  2.8059
 4142TIP3   OH233916   4.222   2.523   4.242  0.1752 -0.3208 -0.2174
 4142TIP3    H133917   4.273   2.511   4.322 -2.5778  1.9658  1.9730
 4142TIP3    H233918   4.211   2.618   4.234  0.0923 -0.5388 -3.1071
 4143TIP3   OH233919   4.047   1.091   5.731  0.0489 -0.2983  0.6720
 4143TIP3    H133920   4.084   1.090   5.819  0.2778  0.3683  0.5890
 4143TIP3    H233921   4.123   1.084   5.673 -0.0953 -0.6613  0.5246
 4144TIP3   OH233922   3.504   1.658  14.514  0.6821 -0.1375  0.4404
 4144TIP3    H133923   3.578   1.599  14.526  0.8778 -0.0427 -0.2711
 4144TIP3    H233924   3.543   1.745  14.506  0.6173 -0.2424 -1.3225
 4145TIP3   OH233925   1.357   4.545  16.273 -0.6531 -0.0616  0.2713
 4145TIP3    H133926   1.340   4.557  16.180 -0.5536 -0.3783  0.2121
 4145TIP3    H233927   1.443   4.584  16.287 -1.4886  1.7210  0.6082
 4146TIP3   OH233928   1.250   4.848   5.580  0.0355 -0.4844 -0.4194
 4146TIP3    H133929   1.181   4.805   5.630  0.1524 -0.1750  0.0144
 4146TIP3    H233930   1.303   4.893   5.646 -0.8302  1.3908 -0.9526
 4147TIP3   OH233931   1.212   6.452  16.709  0.3239  0.2157  0.2762
 4147TIP3    H133932   1.222   6.547  16.718 -1.1177  0.3563  0.5589
 4147TIP3    H233933   1.124   6.440  16.672  0.5214 -1.0036  0.1740
 4148TIP3   OH233934   5.876   3.576  13.856 -0.1437 -0.0839  0.1297
 4148TIP3    H133935   5.791   3.596  13.817 -1.1781 -1.8242  1.3799
 4148TIP3    H233936   5.904   3.658  13.896 -0.6734  0.8160 -1.3035
 4149TIP3   OH233937   5.304   6.053  16.441  0.0623  0.3278  0.0383
 4149TIP3    H133938   5.333   6.079  16.353 -0.7843 -1.2554 -0.7198
 4149TIP3    H233939   5.220   6.097  16.452 -0.3460 -0.3429 -0.3824
 4150TIP3   OH233940   0.194   1.731   1.821 -0.2548 -0.2976 -0.0604
 4150TIP3    H133941   0.228   1.766   1.903  1.5785  0.2125 -1.0057
 4150TIP3    H233942   0.154   1.807   1.778 -0.4350 -0.3722 -0.0233
 4151TIP3   OH233943   4.631   4.416   0.189 -0.3585 -0.0564 -0.0019
 4151TIP3    H133944   4.658   4.407   0.098 -0.3679  0.6448 -0.0737
 4151TIP3    H233945   4.547   4.370   0.194 -0.5368  0.2237 -0.4297
 4152TIP3   OH233946   6.615   2.542   0.298 -0.6939  0.1869  0.6373
 4152TIP3    H133947   6.595   2.623   0.249 -0.7011 -0.4742 -0.4783
 4152TIP3    H233948   6.706   2.553   0.325 -0.6879  0.5655  0.4720
 4153TIP3   OH233949   4.191   0.374  15.694  0.4893 -0.0503 -0.0895
 4153TIP3    H133950   4.244   0.344  15.619  0.9679  2.3479 -0.7631
 4153TIP3    H233951   4.247   0.360  15.770  1.4322  0.7955 -0.6080
 4154TIP3   OH233952   2.104   3.895  13.695  0.4021 -0.1084 -0.7002
 4154TIP3    H133953   2.168   3.948  13.743  0.3204  0.0840 -0.8003
 4154TIP3    H233954   2.030   3.888  13.755 -0.1313  1.0361 -1.2048
 4155TIP3   OH233955   2.528   5.444   5.588 -0.0352 -0.5333  0.0558
 4155TIP3    H133956   2.449   5.476   5.632 -1.1032 -0.0261 -2.1906
 4155TIP3    H233957   2.545   5.508   5.518  2.1906 -0.8094  0.2818
 4156TIP3   OH233958   1.791   0.825   6.524 -0.0810  0.2053 -0.4422
 4156TIP3    H133959   1.833   0.867   6.599  0.4430 -0.7061 -0.2112
 4156TIP3    H233960   1.756   0.743   6.560 -4.2390  2.0157 -0.0367
 4157TIP3   OH233961   0.897   3.620   5.085 -0.4933  0.1680  0.4272
 4157TIP3    H133962   0.938   3.548   5.135 -1.9269 -1.4687 -0.6870
 4157TIP3    H233963   0.945   3.621   5.002 -0.8810  0.0637  0.1997
 4158TIP3   OH233964   5.305   3.109   5.945  0.4544  0.4366 -0.1907
 4158TIP3    H133965   5.380   3.053   5.925 -0.2452 -0.2977 -0.8019
 4158TIP3    H233966   5.234   3.074   5.891 -0.6809  0.2758  1.3590
 4159TIP3   OH233967   4.526   0.073  14.967  1.0017 -0.1437 -0.7142
 4159TIP3    H133968   4.494  -0.008  14.928  2.2057 -0.6955 -0.5813
 4159TIP3    H233969   4.621   0.062  14.970  1.0214  0.4250  1.1882
 4160TIP3   OH233970   4.864   1.779  15.649 -0.3013 -0.2954 -0.4689
 4160TIP3    H133971   4.929   1.708  15.651 -0.3198 -0.3110 -0.3920
 4160TIP3    H233972   4.866   1.815  15.738 -0.5406 -0.4264 -0.4097
 4161TIP3   OH233973   0.418   2.276   5.643  0.2175  0.1199  0.4769
 4161TIP3    H133974   0.345   2.281   5.581 -2.5427 -0.5992  3.4728
 4161TIP3    H233975   0.431   2.182   5.657  1.5259  0.2556  0.2260
 4162TIP3   OH233976   6.172   5.768  15.551  0.0326  0.2020  0.0338
 4162TIP3    H133977   6.260   5.731  15.548 -0.4090 -0.6557 -3.4252
 4162TIP3    H233978   6.170   5.832  15.480 -1.5767  1.6149  1.2853
 4163TIP3   OH233979   6.218   2.459  13.330 -0.0050  0.0792 -0.5418
 4163TIP3    H133980   6.208   2.543  13.286  0.3209 -0.6134 -1.9772
 4163TIP3    H233981   6.295   2.419  13.287  2.4829  0.8331  3.0131
 4164TIP3   OH233982   1.411   6.045   4.345 -0.3789 -0.5017 -0.6691
 4164TIP3    H133983   1.347   6.061   4.275 -0.4536  1.4148 -0.1945
 4164TIP3    H233984   1.358   6.028   4.422 -0.3113 -0.2637 -0.5697
 4165TIP3   OH233985   2.477   0.247   6.164 -0.4789 -0.1795 -0.3743
 4165TIP3    H133986   2.487   0.328   6.215 -1.5716 -0.4797  0.3397
 4165TIP3    H233987   2.451   0.181   6.229  1.2963 -1.3347 -0.7972
 4166TIP3   OH233988   5.177   2.256   2.423 -0.0575  0.8455 -0.4277
 4166TIP3    H133989   5.175   2.347   2.452  0.6393  1.2412 -1.5900
 4166TIP3    H233990   5.129   2.208   2.491 -1.3099  2.2107 -0.3093
 4167TIP3   OH233991   2.933   3.029   5.154  0.3874 -0.0444  0.4697
 4167TIP3    H133992   2.988   3.096   5.194  2.2801 -1.8607  0.9540
 4167TIP3    H233993   2.957   2.948   5.199 -1.8119 -1.0922 -0.1614
 4168TIP3   OH233994   3.053   2.333  14.512  0.2307 -0.3469  0.6305
 4168TIP3    H133995   3.054   2.282  14.430 -1.7043  0.2706  0.2151
 4168TIP3    H233996   3.032   2.422  14.485 -3.9971 -0.7799  2.1038
 4169TIP3   OH233997   4.371   1.340   3.076 -0.5849  0.1425  0.1257
 4169TIP3    H133998   4.369   1.431   3.104 -1.4096 -0.1802  1.1331
 4169TIP3    H233999   4.292   1.329   3.023  1.0930  0.8197 -2.6383
 4170TIP3   OH234000   4.541   4.531  11.034 -0.5482 -0.3418 -0.1716
 4170TIP3    H134001   4.460   4.581  11.047 -0.6402  0.3587 -3.0912
 4170TIP3    H234002   4.520   4.468  10.966  0.9280 -1.1864  0.1328
 4171TIP3   OH234003   0.927   4.968   2.611  0.7641  0.3784  0.3209
 4171TIP3    H134004   0.887   4.990   2.527  3.2959  0.6361 -0.8786
 4171TIP3    H234005   0.877   4.893   2.643  1.1795 -1.2070 -2.5649
 4172TIP3   OH234006   5.585   1.253  14.907 -0.7046 -0.7665  0.4082
 4172TIP3    H134007   5.627   1.178  14.865 -0.1548 -0.9053  1.1982
 4172TIP3    H234008   5.501   1.218  14.938 -1.0522 -0.6976 -0.4392
 4173TIP3   OH234009   1.251   5.736  13.950 -0.0089  0.0031  0.0801
 4173TIP3    H134010   1.210   5.821  13.964 -1.1054 -0.7462  1.5621
 4173TIP3    H234011   1.283   5.710  14.036  1.1004 -0.6991 -0.5226
 4174TIP3   OH234012   2.777   6.205   5.716  0.0221 -0.5647  0.0681
 4174TIP3    H134013   2.772   6.145   5.642 -0.4321 -1.0118  0.4567
 4174TIP3    H234014   2.754   6.151   5.792  0.1476 -0.0277  0.4905
 4175TIP3   OH234015   3.454   4.228  13.773  0.2902  0.3113  0.0618
 4175TIP3    H134016   3.431   4.288  13.702  1.3247  2.2547  1.3548
 4175TIP3    H234017   3.460   4.283  13.851  1.6977 -1.3879  1.1955
 4176TIP3   OH234018   2.855   1.032   5.668 -0.2590 -0.3377 -0.4464
 4176TIP3    H134019   2.762   1.015   5.681 -0.9757  0.6979 -3.6423
 4176TIP3    H234020   2.862   1.058   5.576  3.2125 -0.4868 -0.3053
 4177TIP3   OH234021   4.228   6.305   3.524  0.0300 -0.3904  0.0353
 4177TIP3    H134022   4.309   6.277   3.480  0.3781 -0.5339  0.7582
 4177TIP3    H234023   4.256   6.377   3.581 -0.5803  0.3905 -0.6386
 4178TIP3   OH234024   1.579   1.970  12.489 -0.0637  0.2141 -0.3872
 4178TIP3    H134025   1.567   2.065  12.501 -0.1733  0.0975  0.5035
 4178TIP3    H234026   1.509   1.930  12.541 -0.2185 -0.3501 -1.0324
 4179TIP3   OH234027   5.698   5.214   1.292 -0.0218  0.0797 -0.2801
 4179TIP3    H134028   5.644   5.293   1.290  1.1793  0.9477  0.5174
 4179TIP3    H234029   5.688   5.180   1.380 -1.0401 -1.0299 -0.8183
 4180TIP3   OH234030   0.869   1.328   4.793 -0.3743 -0.4182 -0.4022
 4180TIP3    H134031   0.887   1.329   4.887 -1.1415  0.3830 -0.2613
 4180TIP3    H234032   0.792   1.384   4.783  1.7840  2.3948 -1.9468
 4181TIP3   OH234033   0.642   0.609  14.043  0.1677 -0.8847 -0.3422
 4181TIP3    H134034   0.736   0.598  14.059  0.9257  0.5505 -3.6006
 4181TIP3    H234035   0.622   0.696  14.079  0.6777 -0.0596 -2.0101
 4182TIP3   OH234036   1.851   2.285   2.077 -0.2096 -0.1119  0.3205
 4182TIP3    H134037   1.790   2.308   2.147  0.5180 -0.5886  1.1236
 4182TIP3    H234038   1.933   2.263   2.122  0.2473 -0.4960 -0.6697
 4183TIP3   OH234039   0.627   4.056  14.591 -0.3468  0.5535  0.0573
 4183TIP3    H134040   0.608   4.007  14.671 -0.6758  2.4473  1.1600
 4183TIP3    H234041   0.625   3.990  14.521 -0.4363 -1.0487  1.5470
 4184TIP3   OH234042   1.735   2.393  14.038  0.2320 -0.6618  0.1128
 4184TIP3    H134043   1.698   2.445  14.109  0.6782  0.2502 -0.3144
 4184TIP3    H234044   1.820   2.363  14.072  0.1245 -0.8307  0.2343
 4185TIP3   OH234045   5.258   4.423   5.416 -0.1208  0.3620 -0.1490
 4185TIP3    H134046   5.332   4.397   5.361 -1.0175 -0.7718 -0.8499
 4185TIP3    H234047   5.266   4.369   5.494 -0.4083 -0.0085 -0.3772
 4186TIP3   OH234048   0.839   2.338   4.138 -0.0108 -0.3566 -0.3172
 4186TIP3    H134049   0.915   2.290   4.171 -1.3070 -1.8530  0.5842
 4186TIP3    H234050   0.826   2.303   4.049 -1.4238 -2.3025  0.6236
 4187TIP3   OH234051   0.706   6.635   1.385 -0.2812  0.0271 -0.0192
 4187TIP3    H134052   0.702   6.729   1.364  0.4432 -0.0291 -0.3905
 4187TIP3    H234053   0.676   6.631   1.476  3.3476  1.0833  1.2987
 4188TIP3   OH234054   1.355   5.602  12.248 -0.2456  0.0468 -0.1930
 4188TIP3    H134055   1.269   5.630  12.280 -0.1660 -1.0728  1.0596
 4188TIP3    H234056   1.414   5.672  12.276 -0.3752 -0.3357  1.0845
 4189TIP3   OH234057   4.976   0.890  11.725  0.4158 -0.5614  0.0431
 4189TIP3    H134058   4.931   0.957  11.675 -1.8256 -1.6385  0.5640
 4189TIP3    H234059   4.980   0.814  11.666  0.1088 -0.9912  0.5710
 4190TIP3   OH234060   3.535   4.620   1.071  0.4153  0.3789 -0.2563
 4190TIP3    H134061   3.609   4.566   1.043  0.0354 -0.0152 -0.5179
 4190TIP3    H234062   3.565   4.710   1.061  1.2057  0.2109  0.5896
 4191TIP3   OH234063   5.232   6.392  11.406 -0.1576  0.0303  0.0413
 4191TIP3    H134064   5.154   6.376  11.460 -1.0952  0.5105 -1.1523
 4191TIP3    H234065   5.205   6.369  11.317  0.7126  1.2827 -0.5676
 4192TIP3   OH234066   4.771   4.105   3.629  0.0549 -0.3667 -0.5044
 4192TIP3    H134067   4.794   4.189   3.670  0.4221 -1.7034  2.1017
 4192TIP3    H234068   4.854   4.058   3.624 -0.9165 -2.5452  2.7174
 4193TIP3   OH234069   4.274   3.821  14.132 -0.6641 -0.0093  0.4826
 4193TIP3    H134070   4.280   3.917  14.139 -0.4504 -0.0374  0.6814
 4193TIP3    H234071   4.349   3.789  14.181 -0.8377 -0.2858  0.5645
 4194TIP3   OH234072   3.718   0.630  14.661  0.1839 -0.0835  0.2970
 4194TIP3    H134073   3.757   0.629  14.573  0.4217  1.1695  0.3703
 4194TIP3    H234074   3.740   0.545  14.698  1.3288 -0.0771 -0.3370
 4195TIP3   OH234075   3.661   0.051   1.045  0.2015  0.0235  0.4005
 4195TIP3    H134076   3.629  -0.039   1.048  2.4064 -0.7489  1.9470
 4195TIP3    H234077   3.753   0.043   1.022  0.1443  1.9750 -0.5705
 4196TIP3   OH234078   4.306   2.096   2.958 -0.0174 -0.4570 -0.1853
 4196TIP3    H134079   4.220   2.055   2.952  0.4505 -1.7008  1.1348
 4196TIP3    H234080   4.292   2.187   2.933 -1.2788 -1.1790 -2.1902
 4197TIP3   OH234081   5.468   5.857   0.269  0.1705  0.1409 -0.2492
 4197TIP3    H134082   5.442   5.817   0.351 -1.0905  0.4671 -0.4901
 4197TIP3    H234083   5.522   5.932   0.295 -0.2280  0.2464  0.2667
 4198TIP3   OH234084   2.552   4.285   2.475 -0.0103  0.4418 -0.0739
 4198TIP3    H134085   2.563   4.288   2.380  1.5231  0.0037  0.0790
 4198TIP3    H234086   2.509   4.202   2.492 -1.4352  1.0778 -0.4791
 4199TIP3   OH234087   4.804   2.406   0.792  0.9147 -0.0796  0.0812
 4199TIP3    H134088   4.863   2.399   0.717 -0.2479 -0.8331 -0.7861
 4199TIP3    H234089   4.766   2.319   0.801  1.2091 -0.0583  1.7115
 4200TIP3   OH234090   0.952   3.675  15.409  0.0719  1.1064 -0.1552
 4200TIP3    H134091   0.947   3.668  15.313 -0.1464  1.3720 -0.1643
 4200TIP3    H234092   0.975   3.767  15.425 -1.9991  1.5869  0.1115
 4201TIP3   OH234093   0.558   2.657  15.557 -0.0266 -0.8816 -0.1555
 4201TIP3    H134094   0.602   2.672  15.474  0.9288  1.8122  0.7968
 4201TIP3    H234095   0.473   2.700  15.547  0.5608  0.4940  0.6614
 4202TIP3   OH234096   4.479   2.419   2.290  0.2469 -0.1030  0.3801
 4202TIP3    H134097   4.524   2.498   2.318  1.3929 -0.9427  0.9362
 4202TIP3    H234098   4.402   2.414   2.347  2.5914 -1.8410  3.5443
 4203TIP3   OH234099   3.448   4.249  13.101  0.3706 -0.7953  0.5027
 4203TIP3    H134100   3.529   4.201  13.120  0.3075 -0.0573  2.7478
 4203TIP3    H234101   3.407   4.262  13.186  0.4672  3.4543  0.0158
 4204TIP3   OH234102   6.686   1.531   5.904  0.3728  0.4302 -0.8290
 4204TIP3    H134103   6.593   1.520   5.924 -0.0018 -0.7465 -3.0113
 4204TIP3    H234104   6.723   1.570   5.983 -1.3647 -2.0673  1.3238
 4205TIP3   OH234105   1.926   4.924  15.397 -0.5371 -0.1865  0.0299
 4205TIP3    H134106   1.892   4.851  15.347 -0.2631  0.3522 -0.9473
 4205TIP3    H234107   1.998   4.958  15.345 -0.4948  0.6123  0.5990
 4206TIP3   OH234108   2.001   5.110   3.555 -0.5833  0.2331 -0.0867
 4206TIP3    H134109   1.958   5.026   3.543 -0.8070  0.1110  1.4266
 4206TIP3    H234110   1.934   5.175   3.534 -1.0810  0.0348  0.8414
 4207TIP3   OH234111   3.017   5.451   4.139 -0.5463  0.3187 -0.0685
 4207TIP3    H134112   3.015   5.469   4.045  0.5593  0.2432 -0.1093
 4207TIP3    H234113   2.943   5.501   4.174 -1.0609  0.2195 -0.9968
 4208TIP3   OH234114   3.259   5.904  16.386 -0.5359  0.2517  0.0585
 4208TIP3    H134115   3.189   5.841  16.373 -0.8280  1.0375 -2.2790
 4208TIP3    H234116   3.336   5.863  16.349 -0.5104  0.8431 -0.5536
 4209TIP3   OH234117   4.647   0.048   0.196 -0.4029 -0.0480  0.8033
 4209TIP3    H134118   4.622   0.045   0.288 -0.0937  0.7613  0.9140
 4209TIP3    H234119   4.743   0.041   0.196 -0.3745  0.3186  0.5609
 4210TIP3   OH234120   4.805   4.086  13.173 -0.4305 -0.1085 -0.6343
 4210TIP3    H134121   4.756   4.151  13.222 -0.8508  0.7449 -2.1472
 4210TIP3    H234122   4.839   4.134  13.097  2.4782 -0.7521  0.1936
 4211TIP3   OH234123   6.777   6.587  12.165  0.0916 -0.1950 -0.1134
 4211TIP3    H134124   6.794   6.596  12.072  1.2686  0.7845  0.1804
 4211TIP3    H234125   6.735   6.669  12.191  0.5863 -0.1002  0.4001
 4212TIP3   OH234126   3.257   0.272  15.762 -0.2223 -0.5349 -0.2183
 4212TIP3    H134127   3.285   0.355  15.800 -1.8341 -0.4052  0.7280
 4212TIP3    H234128   3.172   0.290  15.722 -1.4383 -2.1286  1.5704
 4213TIP3   OH234129   3.368   5.600   5.467 -0.0200 -0.6483 -0.0754
 4213TIP3    H134130   3.292   5.569   5.518 -0.8204  0.8033 -0.3479
 4213TIP3    H234131   3.429   5.632   5.534 -0.7720  0.6073  0.0243
 4214TIP3   OH234132   6.213   3.206  17.130 -0.2217 -0.1454  0.4209
 4214TIP3    H134133   6.163   3.263  17.189  0.7168 -2.1573  3.2569
 4214TIP3    H234134   6.146   3.151  17.088 -0.7712  0.3024  0.6996
 4215TIP3   OH234135   0.971   6.592  13.264  0.2192 -0.0038 -0.0179
 4215TIP3    H134136   1.066   6.586  13.250  0.2840 -0.9842  0.7982
 4215TIP3    H234137   0.957   6.681  13.297  0.7903  0.3167 -0.6213
 4216TIP3   OH234138   5.171   0.197   6.376 -0.2434 -0.0412  0.4004
 4216TIP3    H134139   5.242   0.199   6.311  1.0885  1.1241  1.8343
 4216TIP3    H234140   5.171   0.107   6.409  1.3584  0.2201  1.1924
 4217TIP3   OH234141   3.772   3.804  12.533 -0.4130 -0.0019 -0.0782
 4217TIP3    H134142   3.696   3.746  12.542 -0.5650  0.2103 -0.0001
 4217TIP3    H234143   3.829   3.782  12.606 -0.7074  0.3067  0.2417
 4218TIP3   OH234144   6.643   3.974   5.929  0.3415  0.4235 -0.2652
 4218TIP3    H134145   6.607   3.960   6.016  0.1789 -0.2938 -0.4497
 4218TIP3    H234146   6.567   3.971   5.870  0.7181 -1.2606 -0.6719
 4219TIP3   OH234147   3.647   1.575  14.272  0.2757  0.4362  0.6178
 4219TIP3    H134148   3.672   1.632  14.199 -0.2138 -1.1665 -0.8461
 4219TIP3    H234149   3.558   1.600  14.294 -0.1619 -0.1533 -0.4355
 4220TIP3   OH234150   2.505   0.812   3.006 -0.1711  0.3582  0.1367
 4220TIP3    H134151   2.432   0.855   2.961 -0.8124  0.1143  0.9429
 4220TIP3    H234152   2.550   0.763   2.937 -1.2303 -0.1237 -0.2197
 4221TIP3   OH234153   0.405   3.161  14.210 -0.3455 -0.7599 -0.1244
 4221TIP3    H134154   0.358   3.126  14.135 -0.0321 -1.1288 -0.1460
 4221TIP3    H234155   0.494   3.175  14.179  0.0520 -1.9223  0.4861
 4222TIP3   OH234156   1.136   5.724  12.371 -0.2265 -0.3485  0.6119
 4222TIP3    H134157   1.121   5.697  12.461  0.0484 -1.6701  0.2660
 4222TIP3    H234158   1.157   5.817  12.378 -1.1908 -0.1998  1.8069
 4223TIP3   OH234159   4.740   6.520  12.037  0.1598  0.1201  0.5510
 4223TIP3    H134160   4.770   6.498  12.125 -0.4256 -0.5232  0.5935
 4223TIP3    H234161   4.728   6.615  12.039  1.1659  0.2434  0.8482
 4224TIP3   OH234162   0.100   5.538  14.075 -0.4481 -0.0877  0.0817
 4224TIP3    H134163   0.057   5.498  14.150 -2.8372  0.2837 -1.0318
 4224TIP3    H234164   0.032   5.542  14.008  1.5056 -0.0395 -1.9746
 4225TIP3   OH234165   0.497   6.232   2.471  0.0562 -0.7754 -0.0014
 4225TIP3    H134166   0.579   6.249   2.426 -0.4045 -0.9554 -0.9157
 4225TIP3    H234167   0.504   6.282   2.553  0.4890  0.3599 -0.7196
 4226TIP3   OH234168   6.616   4.319   1.064  0.1995 -0.1477  0.0320
 4226TIP3    H134169   6.638   4.301   0.973  0.6229  0.1038  0.0792
 4226TIP3    H234170   6.533   4.366   1.060  0.1137 -0.3196 -0.2103
 4227TIP3   OH234171   2.132   1.766   3.150  0.0334  0.1652 -0.2572
 4227TIP3    H134172   2.082   1.847   3.136  1.0767  0.6272 -1.3952
 4227TIP3    H234173   2.071   1.707   3.194 -1.9118  0.3069 -2.6690
 4228TIP3   OH234174   5.941   2.851  14.527  0.7911  0.2890 -0.0187
 4228TIP3    H134175   6.002   2.837  14.454  1.5714 -0.8243  0.8167
 4228TIP3    H234176   5.855   2.850  14.486  1.2248 -0.2072 -0.9544
 4229TIP3   OH234177   0.243   3.253   4.263 -0.1295  0.4083  0.6185
 4229TIP3    H134178   0.338   3.262   4.255  0.1125 -1.3677  1.3851
 4229TIP3    H234179   0.230   3.214   4.350 -1.6594  2.2376  1.2365
 4230TIP3   OH234180   1.983   5.663  15.619  0.2484 -0.5566  0.5103
 4230TIP3    H134181   2.032   5.653  15.537  0.3016  1.1330  0.2990
 4230TIP3    H234182   1.894   5.636  15.596  0.6178 -1.6225  0.3259
 4231TIP3   OH234183   2.232   1.473   5.668  0.6203 -0.8191  0.2734
 4231TIP3    H134184   2.297   1.483   5.738  1.5039 -2.0544 -0.3394
 4231TIP3    H234185   2.165   1.416   5.705  0.6223 -0.7239  0.4252
 4232TIP3   OH234186   6.430   4.233   2.223  0.1164 -0.0792 -0.0995
 4232TIP3    H134187   6.490   4.166   2.189 -1.4539 -1.0797 -0.9188
 4232TIP3    H234188   6.452   4.312   2.175 -0.0657 -0.7572 -1.3172
 4233TIP3   OH234189   2.940   2.174  13.162 -0.2324 -0.8425 -0.0898
 4233TIP3    H134190   2.883   2.221  13.100  0.0546  1.0031  0.9940
 4233TIP3    H234191   2.879   2.131  13.222 -0.4981 -0.7013 -0.2549
 4234TIP3   OH234192   1.230   4.447  12.617 -0.1589  0.1533  0.1551
 4234TIP3    H134193   1.182   4.530  12.621 -1.2806 -0.4291 -0.9281
 4234TIP3    H234194   1.165   4.381  12.638  0.5812 -0.5112  0.3750
 4235TIP3   OH234195   6.130   0.274  13.043  0.1197 -0.5008 -0.4439
 4235TIP3    H134196   6.086   0.317  12.970  1.4079 -0.2884 -1.1163
 4235TIP3    H234197   6.069   0.206  13.071  0.2926 -1.6952 -2.8170
 4236TIP3   OH234198   0.035   3.703  16.887 -0.1817  0.9381  0.2442
 4236TIP3    H134199  -0.058   3.695  16.866 -0.0138  1.6019 -0.7580
 4236TIP3    H234200   0.055   3.624  16.937 -0.7492 -0.2915 -1.4631
 4237TIP3   OH234201   5.853   1.797   2.573  0.3778 -0.3919 -0.2679
 4237TIP3    H134202   5.861   1.727   2.508  1.4445 -1.6682  1.2092
 4237TIP3    H234203   5.766   1.786   2.611 -0.6137  0.9047 -2.0390
 4238TIP3   OH234204   2.010   6.511  12.369 -0.3968 -0.0204  0.2517
 4238TIP3    H134205   2.089   6.467  12.401 -0.3242  1.1771  1.8240
 4238TIP3    H234206   1.988   6.574  12.439 -1.5032  1.1629 -1.1238
 4239TIP3   OH234207   6.530   1.235  13.115 -0.5708  0.8290  0.5253
 4239TIP3    H134208   6.529   1.155  13.167 -1.2444 -0.5344 -1.5128
 4239TIP3    H234209   6.603   1.286  13.150  2.0067 -2.1415 -0.2571
 4240TIP3   OH234210   0.558   3.613   6.302  0.2739 -0.0628  0.6481
 4240TIP3    H134211   0.514   3.644   6.381  0.7274 -0.6490  1.1272
 4240TIP3    H234212   0.596   3.528   6.326 -0.0031 -0.4695 -0.3372
 4241TIP3   OH234213   1.194   1.357  14.204 -0.1661  0.6478 -0.0216
 4241TIP3    H134214   1.201   1.271  14.245 -1.3149  0.6397  0.1874
 4241TIP3    H234215   1.282   1.395  14.210  0.3459 -0.5147 -0.1328
 4242TIP3   OH234216   0.291   1.915  12.562 -0.2398 -0.0758  0.2549
 4242TIP3    H134217   0.272   1.894  12.470 -0.6046  0.1605  0.2731
 4242TIP3    H234218   0.270   1.835  12.610  1.0176 -0.5766  0.0090
 4243TIP3   OH234219   5.899   1.124   3.226  0.3576  0.2268  0.3887
 4243TIP3    H134220   5.944   1.208   3.225  2.2783 -0.7796 -0.6591
 4243TIP3    H234221   5.924   1.084   3.309 -1.2699  1.0263  1.2969
 4244TIP3   OH234222   3.137   4.273  11.726  0.7089 -0.0399 -0.0195
 4244TIP3    H134223   3.185   4.287  11.644  2.5400  1.4510  1.2846
 4244TIP3    H234224   3.107   4.182  11.720  2.9694 -0.7510 -1.2600
 4245TIP3   OH234225   5.463   0.878   0.057  0.1355  0.5941  0.2517
 4245TIP3    H134226   5.541   0.879   0.113 -0.5946 -0.1811  1.3055
 4245TIP3    H234227   5.488   0.929  -0.020  1.1348  1.7348  1.3096
 4246TIP3   OH234228   3.528   6.678  14.902  0.1835  0.1774 -0.4758
 4246TIP3    H134229   3.437   6.676  14.874 -0.2781 -0.0683  1.0103
 4246TIP3    H234230   3.551   6.586  14.915 -0.1734  0.3682  1.7026
 4247TIP3   OH234231   1.066   0.122   5.151  0.6549  0.3927 -0.6124
 4247TIP3    H134232   1.069   0.093   5.242 -0.0685 -3.2320 -1.6482
 4247TIP3    H234233   0.983   0.170   5.143 -0.3735 -1.2381  0.1225
 4248TIP3   OH234234   3.594   1.324   2.141 -0.0786 -0.1342 -0.2394
 4248TIP3    H134235   3.524   1.354   2.198 -0.2498  0.8475 -0.9588
 4248TIP3    H234236   3.584   1.228   2.140 -0.9497 -0.0574  0.2390
 4249TIP3   OH234237   6.059   4.478   4.282 -0.4373  0.3962 -0.3206
 4249TIP3    H134238   6.137   4.527   4.307  0.0458 -0.8258  0.6138
 4249TIP3    H234239   6.021   4.528   4.210  0.4181  1.7670  0.1659
 4250TIP3   OH234240   6.714   5.927   1.280 -0.1880  0.4541 -0.2931
 4250TIP3    H134241   6.672   6.010   1.254  0.0732 -0.1937 -2.9217
 4250TIP3    H234242   6.697   5.868   1.207 -1.3590 -2.2017  2.0525
 4251TIP3   OH234243   6.696   0.814  13.935  0.2727 -0.1947  0.0259
 4251TIP3    H134244   6.645   0.733  13.933 -0.6105  0.3442  0.6005
 4251TIP3    H234245   6.695   0.841  14.027 -1.2040  1.5814 -0.5048
 4252TIP3   OH234246   3.030   1.121  12.309 -0.3416 -0.2381 -0.0274
 4252TIP3    H134247   3.101   1.084  12.256 -0.9015  0.4943 -1.3017
 4252TIP3    H234248   2.951   1.074  12.280 -1.0577  1.8970 -1.6347
 4253TIP3   OH234249   2.853   1.947  15.792 -0.3396 -0.2306  0.3386
 4253TIP3    H134250   2.796   1.918  15.863 -2.0867 -0.5840 -1.1499
 4253TIP3    H234251   2.792   1.980  15.726  1.2304 -0.2234 -1.1230
 4254TIP3   OH234252   1.092   6.656  13.616  0.4297  0.5824 -0.7800
 4254TIP3    H134253   1.155   6.687  13.551  1.0543 -1.5436 -1.2360
 4254TIP3    H234254   1.113   6.563  13.628 -3.3249 -0.4997 -1.8066
 4255TIP3   OH234255   3.661   3.646   4.178 -0.0990  0.1734 -0.0076
 4255TIP3    H134256   3.620   3.731   4.190  0.2456  0.7413 -2.4395
 4255TIP3    H234257   3.593   3.582   4.200 -1.2421  1.0990 -0.8087
 4256TIP3   OH234258   5.566   2.605  14.771  0.2486  0.0564  0.8711
 4256TIP3    H134259   5.658   2.595  14.797 -0.3618 -1.8901  2.4099
 4256TIP3    H234260   5.535   2.516  14.755 -0.7988  0.8481 -1.8033
 4257TIP3   OH234261   4.172   5.046  15.229 -0.3701 -0.3762 -0.3247
 4257TIP3    H134262   4.244   5.016  15.284  0.1720 -0.2940 -0.9806
 4257TIP3    H234263   4.094   5.006  15.267  0.0878 -0.8935  0.0691
 4258TIP3   OH234264   0.585   2.257   5.217 -0.3174  0.1023  0.3892
 4258TIP3    H134265   0.644   2.292   5.151  1.1958 -2.0304  0.5622
 4258TIP3    H234266   0.637   2.256   5.298 -1.1545 -0.1197  0.9364
 4259TIP3   OH234267   1.542   2.543  16.081 -0.2347  0.8415  0.0618
 4259TIP3    H134268   1.601   2.617  16.068  1.5993 -0.3050  1.4480
 4259TIP3    H234269   1.548   2.524  16.175 -0.9767 -0.7713 -0.2032
 4260TIP3   OH234270   2.294   4.607  13.240 -0.5003  0.1859 -0.1360
 4260TIP3    H134271   2.303   4.547  13.167  0.4525  0.0885  0.0575
 4260TIP3    H234272   2.297   4.552  13.318 -2.0280  0.2332 -0.0348
 4261TIP3   OH234273   5.748   1.392   1.909  0.3982 -0.2238 -0.1392
 4261TIP3    H134274   5.750   1.417   2.001 -1.1763 -1.1160  0.1566
 4261TIP3    H234275   5.785   1.304   1.907  1.0932  0.0723 -0.4627
 4262TIP3   OH234276   2.657   3.585  15.282 -0.1588 -0.0220 -0.5539
 4262TIP3    H134277   2.726   3.530  15.246  1.1763  0.8985  0.5593
 4262TIP3    H234278   2.641   3.550  15.369  0.4680  1.1329  0.0339
 4263TIP3   OH234279   0.511   5.091  14.508 -0.2686  0.6659  0.1527
 4263TIP3    H134280   0.477   5.048  14.430  1.0340 -0.8383  0.4069
 4263TIP3    H234281   0.565   5.163  14.474 -1.3295  1.2713 -0.2826
 4264TIP3   OH234282   6.141   1.526   3.005  0.3095 -0.1137 -0.2264
 4264TIP3    H134283   6.163   1.592   2.940 -0.8266 -1.0214 -1.5653
 4264TIP3    H234284   6.209   1.459   2.996  1.8222  1.1192  1.5620
 4265TIP3   OH234285   1.002   3.964  15.450 -0.2017 -0.3500  0.1423
 4265TIP3    H134286   0.988   4.011  15.532 -1.3401 -2.4280  1.1559
 4265TIP3    H234287   1.027   4.033  15.387 -1.1347  1.4956  1.7528
 4266TIP3   OH234288   6.017   4.643  14.666 -0.7073 -0.4553 -0.1561
 4266TIP3    H134289   6.110   4.664  14.670 -0.5895 -1.0719  0.5289
 4266TIP3    H234290   6.009   4.581  14.593 -0.2917 -1.7613  0.8774
 4267TIP3   OH234291   3.065   1.491   4.767  1.0392 -0.0960 -0.1442
 4267TIP3    H134292   2.997   1.477   4.701  1.3607 -0.3577 -0.4244
 4267TIP3    H234293   3.066   1.586   4.781  2.2108  0.1736 -1.8684
 4268TIP3   OH234294   2.113   3.209  13.953  0.4722  0.0517 -0.0950
 4268TIP3    H134295   2.139   3.153  13.880  1.8542 -1.2193  1.3168
 4268TIP3    H234296   2.109   3.297  13.916 -0.8526 -0.8471 -2.1570
 4269TIP3   OH234297   5.729   2.619  13.462  0.0813  0.3694  0.1089
 4269TIP3    H134298   5.650   2.670  13.481 -0.5675  0.5687 -2.8884
 4269TIP3    H234299   5.699   2.528  13.456 -0.1779  0.5624 -2.0876
 4270TIP3   OH234300   1.341   6.460   4.037 -0.0207  0.5269 -0.4860
 4270TIP3    H134301   1.397   6.535   4.056 -0.2242  0.6360 -0.3208
 4270TIP3    H234302   1.379   6.388   4.087 -0.7343  0.8813  0.5826
 4271TIP3   OH234303   5.688   5.219   6.123 -0.5062  1.0984  0.3981
 4271TIP3    H134304   5.662   5.174   6.203 -1.8392  0.1913 -0.5164
 4271TIP3    H234305   5.779   5.193   6.109 -0.6582  0.2616  0.9428
 4272TIP3   OH234306   5.566   0.601  17.179 -0.6608 -0.3536  0.2897
 4272TIP3    H134307   5.618   0.532  17.221  1.2816  0.1182 -1.2442
 4272TIP3    H234308   5.562   0.671  17.243  0.6806 -0.3854  0.4288
 4273TIP3   OH234309   0.338   0.984  13.246 -0.1877  0.2466 -0.2424
 4273TIP3    H134310   0.313   1.018  13.160 -3.5541  0.6910  0.8382
 4273TIP3    H234311   0.323   0.889  13.241 -0.7181  0.3203 -0.0247
 4274TIP3   OH234312   5.693   0.812   4.856 -0.3225  0.6873 -0.3409
 4274TIP3    H134313   5.605   0.802   4.892 -0.1471  0.6600  0.0921
 4274TIP3    H234314   5.747   0.753   4.909  0.1635  1.5836  0.1785
 4275TIP3   OH234315   4.235   5.245  16.002  0.4331 -0.5552  0.6777
 4275TIP3    H134316   4.307   5.202  15.957 -0.3612 -0.1964 -1.0021
 4275TIP3    H234317   4.260   5.245  16.094  3.1805  0.7166 -0.0133
 4276TIP3   OH234318   2.434   6.744  16.841 -0.2425  0.0293 -0.1681
 4276TIP3    H134319   2.462   6.825  16.884  1.5914  0.0867 -1.4425
 4276TIP3    H234320   2.349   6.765  16.803 -0.4635  0.8935  0.7891
 4277TIP3   OH234321   3.831   1.257  11.308 -0.6630 -0.0855  0.1126
 4277TIP3    H134322   3.843   1.171  11.348 -1.7780 -0.6979 -0.8209
 4277TIP3    H234323   3.736   1.264  11.295 -0.5180  1.0153 -0.3821
 4278TIP3   OH234324   6.196   1.882  14.729 -0.4480 -0.8157 -0.5456
 4278TIP3    H134325   6.210   1.898  14.822 -2.3854 -1.6421 -0.0964
 4278TIP3    H234326   6.132   1.948  14.703  1.0472  0.2676 -1.6310
 4279TIP3   OH234327   1.983   5.193  11.724  0.3621 -0.2936  0.0486
 4279TIP3    H134328   2.021   5.274  11.758  0.7300 -0.1902 -0.6093
 4279TIP3    H234329   1.916   5.222  11.662 -0.3945 -0.4808  0.7731
 4280TIP3   OH234330   1.835   2.023   6.700 -0.0353  0.0680 -0.3410
 4280TIP3    H134331   1.894   1.948   6.707 -1.9049 -1.4920 -0.6362
 4280TIP3    H234332   1.860   2.066   6.618 -0.5700 -1.7545 -1.5020
 4281TIP3   OH234333   4.158   6.663   4.324 -0.0702  0.3338 -0.0103
 4281TIP3    H134334   4.104   6.735   4.291 -0.0710  0.2870 -0.1102
 4281TIP3    H234335   4.220   6.645   4.254 -0.7267 -0.4457 -0.3980
 4282TIP3   OH234336   2.168   0.122  16.182 -0.2692  0.2262 -0.1840
 4282TIP3    H134337   2.109   0.070  16.236 -2.0811  1.9835 -0.4274
 4282TIP3    H234338   2.115   0.151  16.108  1.1140  1.2025 -0.8288
 4283TIP3   OH234339   3.252   6.233  11.273  0.0371  0.3631  0.4332
 4283TIP3    H134340   3.270   6.240  11.366  0.1265  0.7275  0.3898
 4283TIP3    H234341   3.202   6.152  11.264 -0.0472  0.3725  0.8074
 4284TIP3   OH234342   0.016   4.914   6.091  0.5087 -0.1196 -0.6086
 4284TIP3    H134343  -0.013   4.823   6.097 -0.1254  0.0926 -0.3644
 4284TIP3    H234344  -0.050   4.956   6.035  0.9944  0.1117 -1.0206
 4285TIP3   OH234345   5.755   5.001   3.408 -0.5621  0.0159  0.1106
 4285TIP3    H134346   5.844   5.002   3.444 -0.5503  0.1000  0.0785
 4285TIP3    H234347   5.726   5.093   3.414 -0.3277  0.1438 -0.6866
 4286TIP3   OH234348   0.904   1.869  13.372  0.3931 -0.0580  0.1564
 4286TIP3    H134349   0.971   1.932  13.346  0.9722 -1.4147 -1.7313
 4286TIP3    H234350   0.916   1.795  13.312 -1.9709 -0.8439  0.6007
 4287TIP3   OH234351   0.708   1.067   4.511  0.9698  0.1327  0.1907
 4287TIP3    H134352   0.787   1.080   4.563  0.4154  0.7113  0.8944
 4287TIP3    H234353   0.667   1.153   4.506 -1.1375 -0.6984  2.3184
 4288TIP3   OH234354   2.843   1.405   1.091 -0.1137  0.3824 -0.2720
 4288TIP3    H134355   2.838   1.479   1.030 -2.2965 -0.2572 -0.9099
 4288TIP3    H234356   2.783   1.340   1.054 -0.1524 -0.7011  1.6608
 4289TIP3   OH234357   3.384   3.550   4.787  0.2161 -0.4579 -0.0467
 4289TIP3    H134358   3.395   3.627   4.842 -2.7581  1.8288 -2.5073
 4289TIP3    H234359   3.471   3.535   4.750  1.2227  0.5996  1.8151
 4290TIP3   OH234360   4.417   3.628  16.195  0.3422  0.4760 -0.3401
 4290TIP3    H134361   4.510   3.634  16.173  0.6604  0.4909  0.9360
 4290TIP3    H234362   4.388   3.545  16.157  0.6645  0.8639 -1.4576
 4291TIP3   OH234363   2.137   0.742  11.488 -0.4143  0.1638  0.0970
 4291TIP3    H134364   2.048   0.777  11.501 -0.8120 -0.6310 -0.4136
 4291TIP3    H234365   2.163   0.710  11.574 -0.2071  1.3420  0.4792
 4292TIP3   OH234366   0.227   3.784  11.516  0.0520 -0.1297  0.4077
 4292TIP3    H134367   0.204   3.867  11.474 -3.9400 -2.2045 -1.7987
 4292TIP3    H234368   0.302   3.751  11.466  1.0522  1.6356  0.6967
 4293TIP3   OH234369   3.513   0.842   5.465  0.0931  0.1525  0.0144
 4293TIP3    H134370   3.545   0.762   5.424  2.4139 -0.4517  2.7906
 4293TIP3    H234371   3.463   0.811   5.541  0.0418  1.3184  0.4686
 4294TIP3   OH234372   5.564   2.433   4.965 -0.7133 -0.5203 -0.9200
 4294TIP3    H134373   5.546   2.511   5.017 -2.2696  0.2215 -2.5629
 4294TIP3    H234374   5.644   2.454   4.917 -1.2925  0.1842 -1.5830
 4295TIP3   OH234375   2.922   3.065   4.285  0.8354  0.0293  0.3260
 4295TIP3    H134376   2.928   3.050   4.190  1.9807  2.7671 -0.0848
 4295TIP3    H234377   2.993   3.013   4.322  0.1598 -1.3419 -0.2651
 4296TIP3   OH234378   5.567   1.289   5.487 -0.4409 -0.3692 -0.3555
 4296TIP3    H134379   5.568   1.205   5.535  0.8480  0.5770  1.3496
 4296TIP3    H234380   5.487   1.332   5.516  0.3937  0.2502  1.0887
 4297TIP3   OH234381   1.818   5.244   1.994  0.3797  0.2883 -0.1582
 4297TIP3    H134382   1.740   5.279   1.950  0.7742  0.6579 -0.5752
 4297TIP3    H234383   1.845   5.170   1.939 -0.5880 -0.8289  0.8501
 4298TIP3   OH234384   2.934   1.786  16.043  0.1140  0.2457 -0.1791
 4298TIP3    H134385   2.855   1.736  16.024 -0.2572  0.8386 -0.2089
 4298TIP3    H234386   2.912   1.838  16.120  1.1501 -1.1126  1.0808
 4299TIP3   OH234387   0.171   4.045   4.704 -0.4315  0.2653 -0.0863
 4299TIP3    H134388   0.122   4.004   4.633 -0.1394  0.0744 -0.1818
 4299TIP3    H234389   0.118   4.120   4.731 -0.2814  0.6524 -0.8684
 4300TIP3   OH234390   5.680   3.993   0.780 -0.4595 -0.3889  0.5126
 4300TIP3    H134391   5.677   4.055   0.852  1.0619 -0.5703  0.7499
 4300TIP3    H234392   5.609   3.931   0.798 -1.8202  1.1112  0.3984
 4301TIP3   OH234393   0.918   5.546   1.074 -0.2652 -0.7395  0.2973
 4301TIP3    H134394   0.994   5.559   1.130  0.9960  0.8684 -1.6845
 4301TIP3    H234395   0.848   5.597   1.115 -0.2361 -2.0235  1.9941
 4302TIP3   OH234396   0.785   6.352   1.615  0.3595 -0.1778 -0.8701
 4302TIP3    H134397   0.732   6.416   1.662  1.6858 -0.5812  1.2133
 4302TIP3    H234398   0.784   6.274   1.671  2.5861 -0.4112 -1.1243
 4303TIP3   OH234399   3.236   1.094  12.964 -0.2534 -0.2110 -0.6165
 4303TIP3    H134400   3.276   1.060  13.045 -2.5898 -1.9514 -0.1503
 4303TIP3    H234401   3.219   1.186  12.982 -2.0601 -0.9113  1.4254
 4304TIP3   OH234402   0.498   4.160   4.201 -0.3059 -0.1464  0.1379
 4304TIP3    H134403   0.537   4.183   4.116  0.8083 -0.4747  0.5524
 4304TIP3    H234404   0.488   4.065   4.198 -1.1673 -0.0624  0.0103
 4305TIP3   OH234405   2.432   2.235  14.841  0.7382 -0.3751  0.8314
 4305TIP3    H134406   2.472   2.305  14.892  1.8273 -0.2330 -0.2021
 4305TIP3    H234407   2.406   2.276  14.759 -0.7559 -0.6685  1.1470
 4306TIP3   OH234408   3.133   2.982   3.849  0.0607 -0.3793 -0.7844
 4306TIP3    H134409   3.094   2.896   3.864 -0.2654 -0.4225 -1.8409
 4306TIP3    H234410   3.130   2.994   3.754 -0.0306  0.8603 -0.6412
 4307TIP3   OH234411   1.261   6.576  12.202  0.3475 -0.4602 -0.5153
 4307TIP3    H134412   1.232   6.667  12.195 -1.2614 -0.5806  3.3152
 4307TIP3    H234413   1.354   6.583  12.227 -0.0925  0.1846  1.0057
 4308TIP3   OH234414   1.588   2.995   1.826 -0.4888  0.0827  0.0665
 4308TIP3    H134415   1.556   2.979   1.915 -0.8473  1.9031  0.2844
 4308TIP3    H234416   1.519   3.048   1.785  0.3606  0.5239 -0.8088
 4309TIP3   OH234417   1.442   5.490  15.675  0.1695  0.0325  0.4898
 4309TIP3    H134418   1.355   5.472  15.711 -0.3051 -1.1288 -1.2000
 4309TIP3    H234419   1.486   5.405  15.676  0.5552  0.2179 -0.5563
 4310TIP3   OH234420   0.401   2.876  13.581 -0.3030  0.7142  0.6927
 4310TIP3    H134421   0.324   2.855  13.528  0.3833 -1.3025  0.4628
 4310TIP3    H234422   0.388   2.828  13.663 -0.3397  2.1449  1.5529
 4311TIP3   OH234423   5.414   0.672   6.720  0.0224 -0.3429  0.2028
 4311TIP3    H134424   5.322   0.677   6.694  0.0578  2.0518  0.3978
 4311TIP3    H234425   5.447   0.593   6.677 -1.4845  0.1403 -1.9021
 4312TIP3   OH234426   4.312   4.763  13.951  0.4035  0.1190  0.2382
 4312TIP3    H134427   4.400   4.744  13.918  0.1007  1.8402 -1.6217
 4312TIP3    H234428   4.255   4.703  13.903  0.5000 -0.8218  1.2660
 4313TIP3   OH234429   6.119   5.142   2.329 -0.5308  0.8994 -0.1023
 4313TIP3    H134430   6.071   5.222   2.308  0.8654  1.8648  0.3633
 4313TIP3    H234431   6.054   5.072   2.319 -2.3450  2.2955  1.6224
 4314TIP3   OH234432   3.159   5.547  17.239 -0.3561 -0.5449  0.2455
 4314TIP3    H134433   3.163   5.560  17.333 -0.2275  1.1421  0.0232
 4314TIP3    H234434   3.112   5.624  17.206  1.6768  0.0797 -1.2927
 4315TIP3   OH234435   3.927   2.761  13.825 -0.1278  0.4300  0.5543
 4315TIP3    H134436   3.922   2.700  13.752  0.2937  2.1594 -0.9446
 4315TIP3    H234437   3.841   2.757  13.866 -0.0689 -1.2206  0.5368
 4316TIP3   OH234438   1.587   1.497   1.730  0.7989  0.3329  0.2245
 4316TIP3    H134439   1.516   1.522   1.671  2.7822 -0.2295 -2.5085
 4316TIP3    H234440   1.543   1.465   1.809 -1.9441  0.6962 -1.1054
 4317TIP3   OH234441   3.789   3.419  15.152 -0.6460  0.0697  0.7024
 4317TIP3    H134442   3.793   3.401  15.246  1.2237  0.2751  0.6944
 4317TIP3    H234443   3.726   3.357  15.117 -0.9720 -0.3443  2.0248
 4318TIP3   OH234444   5.416   1.535  11.845  0.0758 -0.3544 -0.1787
 4318TIP3    H134445   5.370   1.459  11.808 -0.4973 -0.9721  1.6978
 4318TIP3    H234446   5.470   1.497  11.914 -1.6962  1.1417  2.0927
 4319TIP3   OH234447   4.924   2.408   6.012  0.9459  0.4043 -0.0965
 4319TIP3    H134448   4.984   2.356   5.960  1.2765  0.5555  0.1308
 4319TIP3    H234449   4.980   2.470   6.059  0.5902  0.7351 -0.1028
 4320TIP3   OH234450   3.863   4.981  15.897 -0.3083 -0.3536 -0.3060
 4320TIP3    H134451   3.853   5.075  15.881 -2.9285 -0.4514  0.4928
 4320TIP3    H234452   3.950   4.973  15.936  0.4507  1.5673 -1.4708
 4321TIP3   OH234453   4.272   0.457  14.316 -0.4558 -0.2941 -0.3671
 4321TIP3    H134454   4.262   0.552  14.316  0.0015 -0.2386 -0.9846
 4321TIP3    H234455   4.270   0.432  14.409  0.2406  0.4086 -0.1565
 4322TIP3   OH234456   2.719   6.562  13.005  0.3814 -0.3170  0.1268
 4322TIP3    H134457   2.704   6.648  12.965 -0.9405  0.0685  1.4058
 4322TIP3    H234458   2.733   6.581  13.098 -1.9746 -1.6400  0.7821
 4323TIP3   OH234459   3.795   0.818   0.488  0.2590 -0.0410 -0.2159
 4323TIP3    H134460   3.820   0.777   0.405  0.3765  0.6293 -0.5226
 4323TIP3    H234461   3.710   0.781   0.509 -0.0800  0.2839 -0.9914
 4324TIP3   OH234462   0.019   3.478   0.619 -0.5021  0.0806 -0.1229
 4324TIP3    H134463   0.114   3.475   0.619 -0.5102 -0.2566  0.0513
 4324TIP3    H234464  -0.007   3.421   0.546 -0.5960 -1.0708  0.7965
 4325TIP3   OH234465   3.700   0.758  16.772  0.2537  0.0044 -0.2571
 4325TIP3    H134466   3.664   0.827  16.716 -0.0498 -1.2338 -1.6218
 4325TIP3    H234467   3.687   0.678  16.722  3.9367 -0.6336 -0.3705
 4326TIP3   OH234468   0.251   5.624  11.316  0.1148 -0.0827  0.2424
 4326TIP3    H134469   0.287   5.662  11.396 -0.2602  0.0405  0.3560
 4326TIP3    H234470   0.174   5.677  11.297  1.4371  1.3044 -1.4430
 4327TIP3   OH234471   5.367   3.723   5.912  0.2110  0.2463 -0.5313
 4327TIP3    H134472   5.291   3.729   5.969 -0.1799 -1.3062 -0.8699
 4327TIP3    H234473   5.441   3.709   5.972  0.2291  1.5759 -0.2184
 4328TIP3   OH234474   5.933   4.617  14.227  0.3018 -0.1972 -0.0894
 4328TIP3    H134475   5.851   4.661  14.207  0.0548 -0.7016 -0.1851
 4328TIP3    H234476   5.946   4.556  14.154  0.3464 -0.6995  0.3375
 4329TIP3   OH234477   4.358   1.596  15.179  0.0200  0.2945  0.2640
 4329TIP3    H134478   4.449   1.583  15.152 -0.2754 -0.2690 -0.4800
 4329TIP3    H234479   4.317   1.510  15.167 -0.1853  0.0755  2.2820
 4330TIP3   OH234480   0.078   6.294  11.793  0.6040  0.5671 -0.1193
 4330TIP3    H134481   0.148   6.288  11.728 -0.8096 -2.0330 -1.4740
 4330TIP3    H234482   0.004   6.249  11.753 -1.3991  1.9582  1.8971
 4331TIP3   OH234483   5.100   6.486   2.650 -0.1570  0.5700 -0.3713
 4331TIP3    H134484   5.179   6.517   2.608  0.3713 -0.6030 -0.2766
 4331TIP3    H234485   5.100   6.526   2.737  0.5503  0.2471 -0.2232
 4332TIP3   OH234486   1.631   4.939   0.427  0.0276 -0.1134  0.2478
 4332TIP3    H134487   1.576   4.900   0.496 -0.3329 -0.6873 -0.3597
 4332TIP3    H234488   1.665   4.864   0.379 -1.1629  0.3374 -1.3214
 4333TIP3   OH234489   5.055   1.686   4.744 -0.4978 -0.4323 -0.4522
 4333TIP3    H134490   5.111   1.760   4.765  0.1709 -0.8599 -0.7166
 4333TIP3    H234491   5.115   1.613   4.728 -1.1097 -0.8458 -0.9279
 4334TIP3   OH234492   1.113   6.411  17.037 -0.1701 -0.2253 -0.6891
 4334TIP3    H134493   1.072   6.351  16.974  1.3599  0.8606 -2.7475
 4334TIP3    H234494   1.108   6.497  16.996  1.7029  0.3609  0.2375
 4335TIP3   OH234495   1.859   3.716   0.849 -0.6497 -0.4746  0.0729
 4335TIP3    H134496   1.937   3.764   0.820 -0.2509 -0.0494  1.7772
 4335TIP3    H234497   1.869   3.629   0.810  0.3446 -0.2097 -0.2839
 4336TIP3   OH234498   0.370   2.732   1.638 -0.1751  0.4618 -0.5005
 4336TIP3    H134499   0.330   2.652   1.604  0.1649 -0.7567  1.8120
 4336TIP3    H234500   0.302   2.771   1.693  0.5245  0.3524  0.4601
 4337TIP3   OH234501   3.571   3.214  16.487 -0.9037 -0.0204 -0.3190
 4337TIP3    H134502   3.497   3.262  16.525 -0.0614 -0.9679  2.6102
 4337TIP3    H234503   3.531   3.138  16.445 -1.6727  0.0608  0.2504
 4338TIP3   OH234504   2.057   4.957  14.633  0.1509 -0.6457 -0.1334
 4338TIP3    H134505   2.085   5.038  14.675 -0.2430 -0.2361 -0.6479
 4338TIP3    H234506   2.110   4.951  14.554 -0.0731 -0.7038 -0.2786
 4339TIP3   OH234507   1.048   5.680   6.199  0.5221  0.2156  0.0895
 4339TIP3    H134508   1.083   5.602   6.241  0.8613  1.0824  1.4481
 4339TIP3    H234509   0.956   5.683   6.228  0.7475  0.7929  0.7739
 4340TIP3   OH234510   5.005   4.355  15.004  0.5391  0.0843 -0.4893
 4340TIP3    H134511   4.974   4.445  15.003 -0.5058 -0.2796 -1.1861
 4340TIP3    H234512   5.076   4.355  15.068  0.2685  1.3043 -0.1803
 4341TIP3   OH234513   2.455   1.914   2.373  0.1508 -0.3110 -0.1933
 4341TIP3    H134514   2.534   1.878   2.334 -1.0418 -1.1916 -1.8632
 4341TIP3    H234515   2.401   1.837   2.392 -0.0331  0.2299  1.5797
 4342TIP3   OH234516   0.132   2.764  16.848  0.1834 -0.4223 -0.3950
 4342TIP3    H134517   0.090   2.849  16.837  1.7648  0.3300 -0.5914
 4342TIP3    H234518   0.220   2.775  16.813  0.2969 -2.2411 -0.7480
 4343TIP3   OH234519   1.097   2.510  12.458  0.0951  0.1682  0.6776
 4343TIP3    H134520   1.131   2.492  12.546  1.3286 -1.0839 -0.0359
 4343TIP3    H234521   1.173   2.504  12.401 -0.9003 -0.2350 -0.6367
 4344TIP3   OH234522   5.334   3.431  14.531  0.0702 -0.2366 -0.2962
 4344TIP3    H134523   5.404   3.383  14.575 -0.3638 -0.3052  0.3267
 4344TIP3    H234524   5.265   3.439  14.597 -1.1128 -1.4693 -1.3739
 4345TIP3   OH234525   3.828   0.886  16.501  0.0035 -0.1745 -0.8959
 4345TIP3    H134526   3.742   0.927  16.498  0.5828  0.9393 -3.2232
 4345TIP3    H234527   3.882   0.947  16.551 -0.4463 -0.7315  0.3035
 4346TIP3   OH234528   5.255   2.773   2.568 -0.1886  0.6077  0.0760
 4346TIP3    H134529   5.326   2.766   2.631  0.0841  2.0095 -0.0506
 4346TIP3    H234530   5.186   2.820   2.614 -0.9538 -0.5323  0.1182
 4347TIP3   OH234531   5.683   0.712  15.930 -0.7377 -0.5635 -0.1973
 4347TIP3    H134532   5.688   0.791  15.876 -0.2742 -0.5693 -0.1678
 4347TIP3    H234533   5.775   0.692  15.951 -0.8706 -0.9680 -0.0014
 4348TIP3   OH234534   6.458   1.131  12.477 -0.7923  0.5255 -0.4218
 4348TIP3    H134535   6.512   1.163  12.405 -1.8390 -2.1263 -2.4746
 4348TIP3    H234536   6.518   1.081  12.532 -0.5568  0.0586 -1.0958
 4349TIP3   OH234537   6.275   6.226   0.160  0.6259 -0.0130  0.3370
 4349TIP3    H134538   6.268   6.153   0.098 -1.6051 -0.2192  0.8013
 4349TIP3    H234539   6.340   6.197   0.224 -0.2565 -1.5777  0.5272
 4350TIP3   OH234540   0.039   5.588   1.871  0.1381  0.5329 -0.1537
 4350TIP3    H134541   0.122   5.545   1.887  0.2176  0.7838  0.1093
 4350TIP3    H234542   0.007   5.613   1.958 -0.8750 -0.7911 -0.1330
 4351TIP3   OH234543   2.689   2.648  11.676 -0.2041  0.2811 -0.2544
 4351TIP3    H134544   2.739   2.729  11.667 -0.8427  0.8305  0.9130
 4351TIP3    H234545   2.752   2.584  11.710 -0.5178  1.2856  2.3881
 4352TIP3   OH234546   5.713   1.431  13.845  0.7532  0.1172  0.0068
 4352TIP3    H134547   5.768   1.503  13.813  0.4816 -0.7078 -2.4392
 4352TIP3    H234548   5.774   1.361  13.865  1.0004  0.9146  2.2015
 4353TIP3   OH234549   5.019   0.835   4.470  0.2724 -0.6014  0.7248
 4353TIP3    H134550   5.069   0.754   4.462 -1.2688 -1.4488 -0.6713
 4353TIP3    H234551   4.953   0.816   4.537 -0.4807 -0.7258 -0.0390
 4354TIP3   OH234552   4.644   0.030   0.477  0.1504  0.2922 -0.6053
 4354TIP3    H134553   4.607  -0.010   0.556  2.3366  1.4293  1.0440
 4354TIP3    H234554   4.726  -0.017   0.462  0.9189  1.6680 -0.7845
 4355TIP3   OH234555   4.503   1.859  17.210  0.4307 -0.1455 -0.1754
 4355TIP3    H134556   4.541   1.775  17.181  2.2533  0.7052 -0.3473
 4355TIP3    H234557   4.538   1.872  17.298 -0.2100  0.2177  0.0275
 4356TIP3   OH234558   0.599   2.843  13.415 -0.2198  0.4692 -0.2658
 4356TIP3    H134559   0.587   2.768  13.356  0.1069  0.2613 -0.0721
 4356TIP3    H234560   0.518   2.848  13.465  0.4353 -0.8479  0.9554
 4357TIP3   OH234561   4.986   4.804  13.423 -0.0856 -0.0032  0.0614
 4357TIP3    H134562   5.065   4.858  13.416 -0.8220  1.1625  0.6060
 4357TIP3    H234563   4.989   4.769  13.513  1.0236 -1.8912 -0.6785
 4358TIP3   OH234564   1.846   3.430  17.085  0.4800 -0.6763  0.6374
 4358TIP3    H134565   1.846   3.370  17.011 -0.2563 -1.9968  1.6620
 4358TIP3    H234566   1.881   3.378  17.158  0.7077  0.4304  1.3315
 4359TIP3   OH234567   1.858   6.798   1.162  0.4934 -0.8308  0.0016
 4359TIP3    H134568   1.946   6.805   1.199 -0.1306 -0.3763  1.4381
 4359TIP3    H234569   1.807   6.752   1.229 -0.7812  0.4416 -0.0599
 4360TIP3   OH234570   5.241   4.070  13.620  0.5250  0.1225  0.3132
 4360TIP3    H134571   5.273   4.132  13.555  1.5342 -1.1496 -0.4404
 4360TIP3    H234572   5.319   4.046  13.671 -0.0528  0.2938  1.2864
 4361TIP3   OH234573   6.749   5.061  16.179 -0.2974 -0.0925 -0.3839
 4361TIP3    H134574   6.679   4.999  16.199 -0.5101  0.2560 -0.0383
 4361TIP3    H234575   6.719   5.107  16.100 -0.9103  0.7357  0.3186
 4362TIP3   OH234576   3.546   4.963  14.129 -0.3922  0.3676  0.1112
 4362TIP3    H134577   3.558   4.997  14.041 -0.2964 -0.5600 -0.2347
 4362TIP3    H234578   3.567   4.870  14.122 -0.7773  0.2092  1.0282
 4363TIP3   OH234579   3.367   6.044   1.324  0.3806 -0.2459 -0.7884
 4363TIP3    H134580   3.457   6.039   1.293  0.1485  0.0841 -1.5364
 4363TIP3    H234581   3.365   5.991   1.403  0.6823 -2.2237 -2.0533
 4364TIP3   OH234582   4.380   3.765   1.944  0.3900  0.0631  0.0942
 4364TIP3    H134583   4.419   3.798   2.025  1.8369 -1.9750  0.2656
 4364TIP3    H234584   4.451   3.717   1.901 -1.0110 -0.8682 -1.2313
 4365TIP3   OH234585   5.878   1.951  13.393  0.1265 -0.1727 -1.1210
 4365TIP3    H134586   5.894   1.988  13.307  0.3331 -0.7404 -1.3285
 4365TIP3    H234587   5.811   2.007  13.432 -0.7457 -0.5567 -2.0714
 4366TIP3   OH234588   2.114   0.453   6.528  0.1315  0.0884 -0.2106
 4366TIP3    H134589   2.023   0.426   6.515  0.2147  0.3871 -1.5245
 4366TIP3    H234590   2.111   0.516   6.599 -0.8108  0.6842 -0.7686
 4367TIP3   OH234591   3.080   1.093   4.460 -0.0708  0.2734  0.2177
 4367TIP3    H134592   3.151   1.036   4.489 -0.0582  0.3769  0.3902
 4367TIP3    H234593   3.124   1.169   4.422 -0.0621 -0.6543 -1.6902
 4368TIP3   OH234594   5.156   0.592   4.470 -0.0886  0.4065 -0.5977
 4368TIP3    H134595   5.124   0.503   4.455  0.5226  0.3154 -1.3829
 4368TIP3    H234596   5.250   0.583   4.482 -0.2048  0.7973  0.6892
 4369TIP3   OH234597   2.897   6.238  11.340 -0.0017  0.1209  0.0432
 4369TIP3    H134598   2.947   6.220  11.261  1.2460  0.0522  0.8514
 4369TIP3    H234599   2.854   6.322  11.322  2.0335  1.1963  0.1428
 4370TIP3   OH234600   2.368   2.974  16.063 -0.1398 -0.2183 -0.1361
 4370TIP3    H134601   2.431   2.963  16.133  0.6326 -1.0026 -0.9502
 4370TIP3    H234602   2.304   2.904  16.076 -0.9680  0.6804  0.7903
 4371TIP3   OH234603   4.101   1.696  11.032 -0.3389  0.4912  0.0872
 4371TIP3    H134604   4.159   1.736  11.097 -0.1024  0.0900  0.1267
 4371TIP3    H234605   4.160   1.648  10.974 -0.5502  0.8726 -0.4367
 4372TIP3   OH234606   0.429   6.385  14.527  0.2493 -0.7432 -0.4220
 4372TIP3    H134607   0.458   6.294  14.530  0.4692 -0.7899 -3.3509
 4372TIP3    H234608   0.510   6.436  14.522  0.1400 -0.3287  1.4904
 4373TIP3   OH234609   6.800   4.870   5.784 -0.4064 -0.1305  0.6490
 4373TIP3    H134610   6.842   4.809   5.844 -1.5666 -1.4428  0.1736
 4373TIP3    H234611   6.744   4.814   5.729 -0.5435  1.2189 -0.6155
 4374TIP3   OH234612   5.935   5.837   5.086 -0.4477 -0.4376 -0.2135
 4374TIP3    H134613   5.979   5.800   5.010 -1.9792 -2.1777 -0.2878
 4374TIP3    H234614   5.974   5.924   5.096  0.3785 -0.5157 -2.4487
 4375TIP3   OH234615   5.126   0.243  13.239  0.4280 -0.0481 -0.5146
 4375TIP3    H134616   5.189   0.183  13.279 -0.2679 -0.1483  0.4534
 4375TIP3    H234617   5.087   0.289  13.313  0.4251  1.0707 -1.2112
 4376TIP3   OH234618   5.874   3.334  13.399  0.9758 -0.5853 -0.3789
 4376TIP3    H134619   5.799   3.387  13.372  0.7945 -0.0641  1.0596
 4376TIP3    H234620   5.836   3.268  13.458  1.6783 -0.0945  0.6446
 4377TIP3   OH234621   3.783   1.909  11.767 -0.3781 -0.8226 -0.4840
 4377TIP3    H134622   3.806   1.825  11.808  2.9090 -0.6569 -1.7890
 4377TIP3    H234623   3.766   1.887  11.676 -0.3599 -0.1924 -0.6402
 4378TIP3   OH234624   4.506   6.482  14.296 -0.1184 -0.8124  0.4618
 4378TIP3    H134625   4.536   6.395  14.273  0.2529 -0.4637 -0.4069
 4378TIP3    H234626   4.410   6.477  14.288 -0.0757 -1.0515  0.0719
 4379TIP3   OH234627   4.905   2.529   5.462 -0.0638  0.0053  0.3449
 4379TIP3    H134628   4.931   2.445   5.501  0.0513  0.8491  2.1288
 4379TIP3    H234629   4.814   2.514   5.434  0.6025 -1.3262 -1.2009
 4380TIP3   OH234630   0.315   5.203  14.684 -0.1199  0.1552  0.5031
 4380TIP3    H134631   0.344   5.215  14.593  1.6870  1.1525  1.1785
 4380TIP3    H234632   0.361   5.125  14.714  1.0161  1.0722  1.2130
 4381TIP3   OH234633   3.012   0.658   0.965 -0.2393 -0.7822  0.1561
 4381TIP3    H134634   3.054   0.720   0.905 -0.0371 -0.9431  0.1329
 4381TIP3    H234635   3.073   0.584   0.970 -0.7407 -1.2180 -0.2390
 4382TIP3   OH234636   1.606   5.555   1.965 -0.2719  0.2036  0.5979
 4382TIP3    H134637   1.551   5.501   2.021  0.9717 -1.3549  0.3435
 4382TIP3    H234638   1.545   5.604   1.910 -1.3994 -1.7593  0.0789
 4383TIP3   OH234639   2.852   5.609   5.316 -0.4308 -0.3429 -0.1239
 4383TIP3    H134640   2.816   5.672   5.378  0.4320  0.2007 -0.1620
 4383TIP3    H234641   2.905   5.662   5.256  0.2761 -1.1025 -0.1736
 4384TIP3   OH234642   1.936   0.841   4.915  0.2370  0.3396 -0.5689
 4384TIP3    H134643   2.004   0.831   4.848  0.6558 -0.1125 -0.0813
 4384TIP3    H234644   1.858   0.800   4.877  0.2721  0.7417 -1.0749
 4385TIP3   OH234645   6.599   3.178  11.587 -0.1100  0.4560  0.0055
 4385TIP3    H134646   6.547   3.253  11.558  1.3269  1.4406 -0.1323
 4385TIP3    H234647   6.573   3.164  11.677  0.9219  2.3385  0.6262
 4386TIP3   OH234648   5.164   4.466   4.132  0.2715 -0.2342  0.3706
 4386TIP3    H134649   5.099   4.473   4.202  0.9114 -0.3356  0.9827
 4386TIP3    H234650   5.115   4.482   4.051 -0.0914  2.1092  1.0053
 4387TIP3   OH234651   5.288   3.933   6.172  0.2710  0.1909 -0.3582
 4387TIP3    H134652   5.268   3.848   6.211 -0.5426  0.7406  0.4580
 4387TIP3    H234653   5.297   3.992   6.247  2.3857  0.5050 -0.8519
 4388TIP3   OH234654   0.930   2.209   6.135  0.2195 -0.7301  0.4966
 4388TIP3    H134655   0.867   2.252   6.194 -1.4346 -0.8564 -1.1090
 4388TIP3    H234656   1.012   2.257   6.149 -1.2636  2.2162 -0.3579
 4389TIP3   OH234657   5.762   2.031   3.640  0.1348  0.0430 -0.5965
 4389TIP3    H134658   5.738   1.943   3.668  0.7539  0.5205  1.5148
 4389TIP3    H234659   5.721   2.089   3.704  1.0740  1.2117 -1.0276
 4390TIP3   OH234660   3.846   3.067  11.393  0.6009  0.5733  0.3213
 4390TIP3    H134661   3.891   2.994  11.351  1.6375  0.3883  1.7260
 4390TIP3    H234662   3.908   3.099  11.459 -0.2643  2.0293  0.4528
 4391TIP3   OH234663   3.899   0.018  14.901  0.1573  0.1467 -0.1934
 4391TIP3    H134664   3.823   0.049  14.853  0.3587  0.1260 -0.5315
 4391TIP3    H234665   3.939   0.098  14.937  0.9383  0.3417 -1.4515
 4392TIP3   OH234666   4.732   5.747   0.988 -0.7749 -0.1299 -0.2498
 4392TIP3    H134667   4.785   5.822   1.016  0.5903 -0.8638 -0.8173
 4392TIP3    H234668   4.662   5.741   1.053  1.5169 -0.9094  2.2597
 4393TIP3   OH234669   3.980   6.233   4.142 -0.3468 -0.2986  0.4856
 4393TIP3    H134670   3.905   6.174   4.135 -0.5901  0.0688 -0.0364
 4393TIP3    H234671   4.016   6.237   4.053  1.8733 -2.5188  1.2068
 4394TIP3   OH234672   2.422   3.705   5.472  0.2041  1.2587  0.4051
 4394TIP3    H134673   2.356   3.688   5.540  0.1024  3.0388  0.7550
 4394TIP3    H234674   2.371   3.727   5.394  0.3461  0.0274 -0.0584
 4395TIP3   OH234675   3.530   0.078  16.727  0.3437 -0.1620  0.0931
 4395TIP3    H134676   3.467   0.010  16.706  0.6636 -0.0339 -1.2964
 4395TIP3    H234677   3.511   0.149  16.666  1.3611  0.1645  0.1407
 4396TIP3   OH234678   1.873   4.150   0.437  0.1045 -0.1662  0.9857
 4396TIP3    H134679   1.781   4.151   0.409  0.4911 -1.2443 -0.3887
 4396TIP3    H234680   1.912   4.223   0.390  0.5447 -1.4039 -0.6274
 4397TIP3   OH234681   4.557   6.487   2.998  0.2466 -0.3199 -0.4100
 4397TIP3    H134682   4.473   6.457   3.032  0.3788 -0.4461 -0.1950
 4397TIP3    H234683   4.546   6.485   2.903 -0.2041  0.2711 -0.3737
 4398TIP3   OH234684   3.107   6.068   3.557 -0.1676 -0.5179  0.3694
 4398TIP3    H134685   3.081   5.985   3.598 -1.5975  0.2590  1.0553
 4398TIP3    H234686   3.198   6.079   3.582  0.3013 -2.3127 -0.4419
 4399TIP3   OH234687   3.135   3.217  16.732  0.4544  0.4661 -0.2737
 4399TIP3    H134688   3.064   3.189  16.674 -0.4288  0.3517  0.8411
 4399TIP3    H234689   3.215   3.193  16.685 -0.2567 -0.5922 -0.9704
 4400TIP3   OH234690   0.112   2.180   4.896 -0.0662 -0.3644 -0.2330
 4400TIP3    H134691   0.195   2.149   4.932  0.1699 -1.7290 -1.8781
 4400TIP3    H234692   0.061   2.207   4.972  1.3115 -0.9457  0.9095
 4401TIP3   OH234693   1.295   5.542   4.971 -0.3211  0.4462 -0.1251
 4401TIP3    H134694   1.328   5.509   5.055 -0.6340  0.9143  0.1857
 4401TIP3    H234695   1.200   5.541   4.980 -0.3790 -0.4394 -0.8422
 4402TIP3   OH234696   3.838   0.423   2.393 -0.8403  0.1532  0.7168
 4402TIP3    H134697   3.750   0.454   2.413 -1.2140 -0.2179 -0.3021
 4402TIP3    H234698   3.895   0.475   2.449 -1.6676  0.7651  1.0036
 4403TIP3   OH234699   3.660   3.225  11.235 -0.1028 -0.5550 -0.0087
 4403TIP3    H134700   3.700   3.288  11.175 -0.4591 -1.1152 -0.8532
 4403TIP3    H234701   3.727   3.159  11.249  0.7226  0.6392  1.8783
 4404TIP3   OH234702   4.239   5.450   2.458  0.2371  0.1020 -0.2030
 4404TIP3    H134703   4.301   5.522   2.450 -1.9400  1.7924 -2.9484
 4404TIP3    H234704   4.168   5.485   2.512  0.5740 -1.0372  1.0058
 4405TIP3   OH234705   2.009   3.155  14.652  0.1727  0.0986  0.0352
 4405TIP3    H134706   1.976   3.178  14.738 -0.1012 -1.1218  0.2618
 4405TIP3    H234707   1.932   3.159  14.595  0.1032 -0.3287  0.0951
 4406TIP3   OH234708   2.038   4.850   0.334 -0.2508  0.3366  0.3191
 4406TIP3    H134709   2.108   4.885   0.391  0.2292  1.3071 -0.8412
 4406TIP3    H234710   2.023   4.920   0.270 -2.4744  0.2384  0.7076
 4407TIP3   OH234711   5.460   4.729  17.292 -0.4079 -0.2552 -0.1845
 4407TIP3    H134712   5.424   4.734  17.381 -1.2906 -0.9291 -0.5026
 4407TIP3    H234713   5.520   4.654  17.295  0.2774  0.2913  0.0886
 4408TIP3   OH234714   1.182   1.460  12.665 -0.5803  0.4343 -0.0835
 4408TIP3    H134715   1.106   1.401  12.659 -1.1990  1.2461 -0.3377
 4408TIP3    H234716   1.144   1.544  12.692  0.6019  0.0703  2.9316
 4409TIP3   OH234717   4.213   0.386   2.857  0.4877  0.2153  0.1139
 4409TIP3    H134718   4.156   0.463   2.851  1.2799  0.7068 -1.4305
 4409TIP3    H234719   4.180   0.326   2.790  0.5884 -0.3075  0.5290
 4410TIP3   OH234720   5.376   5.155   2.957  0.2259 -0.1587  0.5771
 4410TIP3    H134721   5.457   5.174   3.004  1.1075 -1.2851 -0.4708
 4410TIP3    H234722   5.320   5.112   3.023  0.1950  1.2304  1.4854
 4411TIP3   OH234723   4.647   2.379   4.338  0.2997  0.3310  0.1427
 4411TIP3    H134724   4.607   2.385   4.251  0.6494  1.6558  0.0521
 4411TIP3    H234725   4.631   2.289   4.366  0.3521 -0.1651 -1.3730
 4412TIP3   OH234726   0.827   0.657  15.118 -0.3239  0.2393 -0.2431
 4412TIP3    H134727   0.803   0.603  15.193  0.6109 -0.4501 -0.4334
 4412TIP3    H234728   0.818   0.747  15.150 -0.7078 -0.0382  0.4467
 4413TIP3   OH234729   5.910   2.846  12.098 -0.3871  0.0563  0.0501
 4413TIP3    H134730   5.947   2.805  12.019  1.6496  0.0973  0.9577
 4413TIP3    H234731   5.867   2.774  12.144  1.0934 -0.5833  0.4388
 4414TIP3   OH234732   3.718   3.898   1.980 -0.6643  0.0987 -0.5860
 4414TIP3    H134733   3.641   3.847   2.004  0.6735 -0.4296  2.8443
 4414TIP3    H234734   3.785   3.832   1.959  0.7250  0.3747  2.7340
 4415TIP3   OH234735   4.977   2.458   0.587  0.2136  0.9231 -0.1654
 4415TIP3    H134736   5.069   2.433   0.594 -0.1501 -0.3152  0.3048
 4415TIP3    H234737   4.965   2.480   0.494  0.7520  0.1245 -0.4310
 4416TIP3   OH234738   4.565   3.801  11.748 -0.0344 -0.1489  0.1496
 4416TIP3    H134739   4.485   3.787  11.799 -0.5817  1.0731 -0.3661
 4416TIP3    H234740   4.635   3.796  11.813 -0.6272  0.0577  0.8150
 4417TIP3   OH234741   3.250   0.618  13.315 -0.4161 -0.0266 -0.4995
 4417TIP3    H134742   3.332   0.627  13.267 -0.1302 -1.8500 -0.4207
 4417TIP3    H234743   3.272   0.558  13.387 -1.5435  0.3821  0.1934
 4418TIP3   OH234744   0.551   1.518  12.289 -0.0588 -0.1677  0.6302
 4418TIP3    H134745   0.476   1.538  12.345  0.0543 -1.3976  1.2313
 4418TIP3    H234746   0.513   1.473  12.213  0.0942 -1.0579  1.0757
 4419TIP3   OH234747   2.199   4.112  15.557 -0.0413 -0.6021 -0.2335
 4419TIP3    H134748   2.269   4.134  15.495 -0.4692  2.2163  0.2189
 4419TIP3    H234749   2.235   4.135  15.642 -1.4870  0.8260  0.0038
 4420TIP3   OH234750   4.363   2.006  14.584 -0.1735  0.0941  0.2716
 4420TIP3    H134751   4.445   1.963  14.558 -0.1769 -1.0066  1.9814
 4420TIP3    H234752   4.295   1.940  14.567 -0.4168  0.1281  1.1162
 4421TIP3   OH234753   3.175   2.471   2.033 -0.3228 -0.6803  0.1447
 4421TIP3    H134754   3.199   2.477   2.125 -0.5257  0.9453  0.1070
 4421TIP3    H234755   3.096   2.417   2.032  0.9538 -2.5854  0.6784
 4422TIP3   OH234756   3.055   1.048  16.065  0.6443 -0.1199  0.7542
 4422TIP3    H134757   3.040   1.140  16.043  2.5834 -0.2113 -1.0701
 4422TIP3    H234758   3.021   1.000  15.990  1.7647 -0.7691  0.6573
 4423TIP3   OH234759   3.408   5.289  15.725 -0.1329 -0.4132  0.0576
 4423TIP3    H134760   3.345   5.305  15.795 -1.3636 -0.0445 -1.1277
 4423TIP3    H234761   3.491   5.272  15.771 -0.0080  3.6986  1.5192
 4424TIP3   OH234762   3.459   4.826   2.976 -0.2611  0.6202 -0.1715
 4424TIP3    H134763   3.484   4.744   2.932 -2.2631  0.9286 -1.9883
 4424TIP3    H234764   3.435   4.799   3.064 -1.2471 -0.8418 -0.8532
 4425TIP3   OH234765   2.598   3.860  14.838 -0.3567  0.3919  0.1830
 4425TIP3    H134766   2.542   3.787  14.811  1.6235 -0.6737 -1.1224
 4425TIP3    H234767   2.547   3.938  14.814 -1.3920 -0.5536 -0.7652
 4426TIP3   OH234768   6.510   2.209   5.148 -0.3235  0.1366  0.4662
 4426TIP3    H134769   6.486   2.213   5.241 -0.7258  1.0405  0.3336
 4426TIP3    H234770   6.545   2.121   5.136  1.7176  0.7026  1.9708
 4427TIP3   OH234771   6.590   3.425  15.211  0.0750  0.0218  0.0975
 4427TIP3    H134772   6.554   3.431  15.299 -0.2870  2.5343 -0.1893
 4427TIP3    H234773   6.685   3.431  15.223 -0.0976  3.3737  0.1358
 4428TIP3   OH234774   1.421   3.161  16.425 -0.2356  0.1319 -0.1922
 4428TIP3    H134775   1.434   3.233  16.486  0.0517  0.2419 -0.3872
 4428TIP3    H234776   1.426   3.082  16.479  0.0470  0.2281 -0.0794
 4429TIP3   OH234777   4.779   5.448  11.567 -0.3925 -0.2607  0.0798
 4429TIP3    H134778   4.775   5.446  11.663 -0.6337  0.4302  0.0869
 4429TIP3    H234779   4.868   5.417  11.547 -0.3007 -0.2980  0.5274
 4430TIP3   OH234780   3.198   4.775   4.271 -0.1935 -0.1869 -0.9761
 4430TIP3    H134781   3.193   4.771   4.175 -0.4175 -0.1034 -0.9668
 4430TIP3    H234782   3.146   4.852   4.295  0.3842  0.1692 -0.8346
 4431TIP3   OH234783   6.403   3.959   1.401 -0.4565 -0.1933  0.3017
 4431TIP3    H134784   6.329   4.010   1.367 -0.2911 -0.4836 -0.5122
 4431TIP3    H234785   6.400   3.876   1.353  0.2483 -0.3062  0.4366
 4432TIP3   OH234786   0.781   6.146  11.435  0.2720  0.0822  0.7153
 4432TIP3    H134787   0.826   6.163  11.352 -2.1626 -0.3838 -0.7278
 4432TIP3    H234788   0.830   6.073  11.473  0.8799 -0.3005 -0.7436
 4433TIP3   OH234789   1.886   5.786   0.439 -0.6117  0.1610 -0.1949
 4433TIP3    H134790   1.908   5.757   0.351  2.1769 -1.5004  0.9871
 4433TIP3    H234791   1.797   5.752   0.454 -1.3333  0.9448 -2.5156
 4434TIP3   OH234792   2.054   3.321  16.462  0.1815  0.5658 -0.4034
 4434TIP3    H134793   2.138   3.312  16.418 -0.1201  1.2708 -1.1580
 4434TIP3    H234794   2.030   3.413  16.448 -0.0311  0.7377  1.0445
 4435TIP3   OH234795   1.682   6.301  14.925  0.1475 -0.1616 -0.5725
 4435TIP3    H134796   1.758   6.351  14.897  0.9006 -0.0356  1.6791
 4435TIP3    H234797   1.709   6.210  14.918  0.7888 -0.0995  0.9767
 4436TIP3   OH234798   6.404   4.570   3.103 -0.6848  0.2779 -0.5230
 4436TIP3    H134799   6.351   4.529   3.034  2.1536  0.5023 -2.9450
 4436TIP3    H234800   6.453   4.498   3.141 -0.9940  0.3981  0.0987
 4437TIP3   OH234801   5.999   4.174   0.872  0.2705  0.1022  0.0025
 4437TIP3    H134802   6.080   4.184   0.922 -0.1542  2.4388  0.2499
 4437TIP3    H234803   5.979   4.262   0.840  0.0822 -1.1536 -3.6153
 4438TIP3   OH234804   0.695   0.373  15.031 -0.7571 -0.4541 -0.6155
 4438TIP3    H134805   0.623   0.384  15.093  1.2406  0.5897  1.5958
 4438TIP3    H234806   0.715   0.462  15.001  0.6712 -0.5168  0.0751
 4439TIP3   OH234807   4.316   0.601  16.919 -0.1091  0.2430  0.1751
 4439TIP3    H134808   4.275   0.670  16.971  0.5498  0.6997  0.0954
 4439TIP3    H234809   4.291   0.622  16.829 -1.9139 -0.9988  0.3634
 4440TIP3   OH234810   1.804   1.525   2.869  0.1179  0.8787  0.1972
 4440TIP3    H134811   1.870   1.578   2.825 -0.5523  1.9346  0.4426
 4440TIP3    H234812   1.722   1.548   2.827 -0.0211 -0.9422 -0.5682
 4441TIP3   OH234813   1.474   0.024  14.341  0.9553 -0.0761 -0.0836
 4441TIP3    H134814   1.414  -0.018  14.279  0.4711  1.4418 -0.6562
 4441TIP3    H234815   1.451   0.117  14.338  3.0112  0.4650  0.0508
 4442TIP3   OH234816   0.571   5.908  14.752 -0.6119  0.2325 -0.0574
 4442TIP3    H134817   0.534   5.906  14.840  0.1277 -0.9805  0.2235
 4442TIP3    H234818   0.517   5.847  14.702 -0.2566 -0.0010 -0.1525
 4443TIP3   OH234819   5.009   2.484   4.166  0.3708  0.2834  0.0423
 4443TIP3    H134820   5.038   2.521   4.083  1.5437 -2.0881 -0.6681
 4443TIP3    H234821   5.075   2.512   4.230  0.4611  0.5927 -0.1876
 4444TIP3   OH234822   5.446   3.620   0.822 -0.3938 -0.4893  0.3529
 4444TIP3    H134823   5.477   3.552   0.762 -0.2986  1.6371 -2.1058
 4444TIP3    H234824   5.521   3.637   0.880  0.1561 -1.2719 -0.1239
 4445TIP3   OH234825   3.885   2.172   3.095  0.4806  0.1425  0.2811
 4445TIP3    H134826   3.950   2.236   3.122  0.7781 -0.2201  0.4269
 4445TIP3    H234827   3.809   2.224   3.070  0.9673  0.5863 -0.2741
 4446TIP3   OH234828   2.967   6.203  12.447 -0.1501 -0.0017  0.5679
 4446TIP3    H134829   2.884   6.198  12.398  0.5509  0.4014 -0.6806
 4446TIP3    H234830   2.991   6.112  12.463 -0.2626 -0.1373 -0.0360
 4447TIP3   OH234831   3.565   2.063   5.065  0.7831 -0.2653 -0.7339
 4447TIP3    H134832   3.523   2.003   5.126  1.1598  1.9891  1.8649
 4447TIP3    H234833   3.505   2.068   4.991 -0.5149 -1.7997  0.1758
 4448TIP3   OH234834   6.225   2.718  12.889  0.1012 -0.1722 -1.2682
 4448TIP3    H134835   6.142   2.749  12.853 -0.6227 -0.9010 -0.2334
 4448TIP3    H234836   6.277   2.798  12.901 -0.9865  0.4332 -0.5682
 4449TIP3   OH234837   3.095   4.671   5.265  0.0900 -0.0748 -0.2918
 4449TIP3    H134838   3.149   4.742   5.230  0.8617 -0.5845 -0.1385
 4449TIP3    H234839   3.007   4.690   5.234  0.2882  0.9787 -0.2178
 4450TIP3   OH234840   2.494   0.131   0.523 -0.3833  0.2897 -0.7632
 4450TIP3    H134841   2.481   0.133   0.617  0.2370  2.6223 -0.6981
 4450TIP3    H234842   2.553   0.056   0.508 -1.5721 -0.9143  0.5278
 4451TIP3   OH234843   3.922   6.338  11.406 -0.2472 -0.3405 -0.1201
 4451TIP3    H134844   3.994   6.366  11.463  0.0695 -0.9987 -0.1915
 4451TIP3    H234845   3.964   6.322  11.321 -0.6073  0.0106 -0.3622
 4452TIP3   OH234846   3.842   1.685   0.157  0.4377  0.0794 -0.4381
 4452TIP3    H134847   3.917   1.740   0.181  0.7512  0.1341 -1.4968
 4452TIP3    H234848   3.766   1.732   0.189  0.8019  0.4246 -0.0686
 4453TIP3   OH234849   6.286   4.410   0.479 -0.0690  0.3548  0.3296
 4453TIP3    H134850   6.327   4.495   0.464 -0.0154  0.1132 -0.9689
 4453TIP3    H234851   6.263   4.379   0.391  0.4776 -1.2597  0.7417
 4454TIP3   OH234852   2.346   1.709  16.209  0.3804  0.0411 -0.1955
 4454TIP3    H134853   2.392   1.703  16.126 -0.4803  1.7457 -0.8079
 4454TIP3    H234854   2.288   1.784  16.200  2.4695  2.1919  3.0098
 4455TIP3   OH234855   6.736   2.821   3.958  0.0161  0.1414  0.0178
 4455TIP3    H134856   6.796   2.751   3.932 -0.1718 -0.8705  2.1790
 4455TIP3    H234857   6.700   2.854   3.876  0.5606 -1.9032 -1.0698
 4456TIP3   OH234858   6.250   5.459   5.727  0.2042 -0.2596  0.0277
 4456TIP3    H134859   6.248   5.400   5.802 -0.2741  0.0407  0.2579
 4456TIP3    H234860   6.199   5.413   5.660  1.6691 -1.0768 -0.5348
 4457TIP3   OH234861   1.586   5.587   5.871 -0.2755 -0.4275  0.3445
 4457TIP3    H134862   1.633   5.667   5.893 -0.9951  0.3285 -0.8307
 4457TIP3    H234863   1.546   5.605   5.786  0.2259 -2.3273 -0.3196
 4458TIP3   OH234864   5.107   2.657   5.972  0.3428  0.9070  0.6417
 4458TIP3    H134865   5.035   2.714   5.945 -0.9325 -0.7542  0.4690
 4458TIP3    H234866   5.100   2.654   6.067 -1.1836 -0.9699  0.4974
 4459TIP3   OH234867   1.881   2.662  12.510  0.4330 -0.3481  0.7322
 4459TIP3    H134868   1.933   2.694  12.583  0.2077  0.6641  0.4673
 4459TIP3    H234869   1.943   2.654  12.438  0.5630 -0.8641  0.9051
 4460TIP3   OH234870   2.205   3.109   1.968  0.1318 -0.4496  0.3438
 4460TIP3    H134871   2.211   3.167   1.891  1.7780 -2.4535 -1.1200
 4460TIP3    H234872   2.114   3.115   1.996  0.3452  3.1700  0.5243
 4461TIP3   OH234873   3.303   5.417   3.128 -0.0091 -0.5887 -0.2389
 4461TIP3    H134874   3.371   5.368   3.082  0.2593 -0.8010  0.3897
 4461TIP3    H234875   3.350   5.465   3.197 -0.2217  0.7687 -1.0047
 4462TIP3   OH234876   5.228   1.229  15.958  0.0785  0.1680  0.1483
 4462TIP3    H134877   5.149   1.221  16.012 -0.6968 -0.9481 -1.0965
 4462TIP3    H234878   5.197   1.272  15.878  1.2284  1.8664  0.5973
 4463TIP3   OH234879   1.892   4.597   6.125  0.3605 -0.4026  0.2013
 4463TIP3    H134880   1.970   4.583   6.177  1.9395 -0.6585 -2.1432
 4463TIP3    H234881   1.876   4.691   6.131  1.4457 -0.1901 -0.1022
 4464TIP3   OH234882   6.593   1.055   3.222 -0.0485  0.2051  0.0513
 4464TIP3    H134883   6.680   1.075   3.255 -0.2131 -0.6557  1.0296
 4464TIP3    H234884   6.573   0.968   3.258 -1.1290  0.2207 -0.5024
 4465TIP3   OH234885   2.882   5.684  15.064  0.2463 -0.1822 -0.4188
 4465TIP3    H134886   2.879   5.730  14.981  1.7392 -1.1642 -1.0410
 4465TIP3    H234887   2.975   5.667  15.079 -0.0182 -0.1865  1.3586
 4466TIP3   OH234888   5.419   5.008  11.754  0.1573  0.8198 -0.7445
 4466TIP3    H134889   5.355   5.071  11.786  1.4417  1.5354  0.5340
 4466TIP3    H234890   5.396   4.926  11.798  0.5892  1.2773  0.3766
 4467TIP3   OH234891   5.516   5.167  15.580  0.4383 -0.4018  0.0542
 4467TIP3    H134892   5.517   5.123  15.665 -2.8629 -1.0471 -0.1425
 4467TIP3    H234893   5.479   5.253  15.598  0.7996 -0.1170 -0.5633
 4468TIP3   OH234894   6.367   1.026  13.395 -0.5336 -0.1771 -0.2109
 4468TIP3    H134895   6.343   1.090  13.329  0.4933  1.9253  1.4125
 4468TIP3    H234896   6.462   1.036  13.405 -0.7729 -0.0156  2.0491
 4469TIP3   OH234897   4.723   5.726   5.287 -0.0917 -0.2326 -0.3996
 4469TIP3    H134898   4.734   5.802   5.343  1.1326  0.6580 -1.8258
 4469TIP3    H234899   4.755   5.754   5.201 -0.6241 -2.0097 -1.2036
 4470TIP3   OH234900   0.136   5.262  12.020  0.6643  0.2901  0.1500
 4470TIP3    H134901   0.229   5.253  12.039  0.5064  0.4707  1.0544
 4470TIP3    H234902   0.122   5.355  12.006  0.4991  0.3578  0.7246
 4471TIP3   OH234903   1.307   5.567  16.201  0.4717  0.4110  0.0432
 4471TIP3    H134904   1.385   5.613  16.170 -0.3493  0.4225 -2.0584
 4471TIP3    H234905   1.245   5.573  16.129 -1.3566  0.0557  1.5357
 4472TIP3   OH234906   0.414   3.641  13.804  0.1414 -0.7679 -0.8844
 4472TIP3    H134907   0.325   3.655  13.837  1.0510 -0.6266  1.6541
 4472TIP3    H234908   0.420   3.547  13.790 -0.2659 -0.8343 -0.6270
 4473TIP3   OH234909   3.335   4.908   0.878  0.4788 -0.7936  0.1615
 4473TIP3    H134910   3.310   4.850   0.806  0.1735 -0.0484 -0.3390
 4473TIP3    H234911   3.254   4.925   0.925  0.5368 -0.6572  0.2149
 4474TIP3   OH234912   2.702   6.805  16.197  0.6763 -0.5141 -0.2480
 4474TIP3    H134913   2.609   6.812  16.217  0.6594 -3.2378  0.8347
 4474TIP3    H234914   2.744   6.862  16.261 -0.0616 -1.6785  1.3064
 4475TIP3   OH234915   4.870   5.798   5.055  0.0363  0.6875  0.7723
 4475TIP3    H134916   4.948   5.855   5.059  0.7086 -0.1368 -0.3499
 4475TIP3    H234917   4.895   5.728   4.995 -1.4675  0.2275  0.6740
 4476TIP3   OH234918   1.478   5.002  15.495 -0.2305 -0.0423 -0.2803
 4476TIP3    H134919   1.442   4.950  15.567 -0.0078  0.5688  0.2818
 4476TIP3    H234920   1.419   4.985  15.421 -0.7515 -0.2924  0.1871
 4477TIP3   OH234921   0.427   4.866   3.710  0.7085  0.1990  0.2336
 4477TIP3    H134922   0.385   4.884   3.626  1.0076  1.3617  0.3238
 4477TIP3    H234923   0.515   4.836   3.687  0.5029 -0.3165  0.1099
 4478TIP3   OH234924   5.926   5.086   6.173 -0.2251 -0.0994  0.4099
 4478TIP3    H134925   5.959   5.079   6.262  0.6236  0.6884  0.1705
 4478TIP3    H234926   5.955   5.005   6.130 -0.8597 -0.5978  0.9123
 4479TIP3   OH234927   3.773   4.780   5.732 -0.2170  0.2118 -0.0950
 4479TIP3    H134928   3.734   4.695   5.750 -0.1780  0.1929 -0.1024
 4479TIP3    H234929   3.732   4.809   5.651 -0.6601  0.4642  0.2144
 4480TIP3   OH234930   0.425   5.053   4.906  0.0830  0.5199  0.1133
 4480TIP3    H134931   0.457   5.063   4.817  0.6214 -0.0604  0.2320
 4480TIP3    H234932   0.498   5.082   4.961 -0.9095  2.6044  0.3436
 4481TIP3   OH234933   0.353   1.389  17.079 -0.0389  0.3068 -0.6793
 4481TIP3    H134934   0.324   1.314  17.029 -2.4859  1.7381 -1.4689
 4481TIP3    H234935   0.401   1.443  17.016 -0.0848  0.4245 -0.6114
 4482TIP3   OH234936   2.416   5.929   3.108 -0.0635  0.4865  0.8308
 4482TIP3    H134937   2.475   5.949   3.036  0.0573 -1.2446  0.4153
 4482TIP3    H234938   2.442   5.989   3.178  0.0793  1.8918 -0.4297
 4483TIP3   OH234939   1.937   1.126  13.694 -0.2391 -0.5099  0.1092
 4483TIP3    H134940   1.921   1.124  13.599  0.1944 -0.2082  0.0305
 4483TIP3    H234941   1.953   1.219  13.714  2.4351 -0.9062  0.0175
 4484TIP3   OH234942   2.469   2.968   3.264  0.8805  0.2244  0.5870
 4484TIP3    H134943   2.490   3.030   3.334 -2.0618  1.6254  0.2628
 4484TIP3    H234944   2.525   2.994   3.191  0.2555  1.9646  0.7261
 4485TIP3   OH234945   5.386   5.997   1.477  0.3867 -0.1020 -0.2988
 4485TIP3    H134946   5.459   6.052   1.504  0.8411 -0.3295 -1.0505
 4485TIP3    H234947   5.308   6.046   1.504  0.8115  0.0566  0.6631
 4486TIP3   OH234948   5.017   6.438  14.499  0.0289 -0.5961  0.2322
 4486TIP3    H134949   5.006   6.353  14.456 -1.4031 -0.9333  1.2594
 4486TIP3    H234950   4.969   6.499  14.443  0.5456 -0.5446 -0.1676
 4487TIP3   OH234951   6.276   3.140  11.713 -0.0089 -0.1889  0.0385
 4487TIP3    H134952   6.354   3.151  11.767 -0.1789 -0.5552  0.3695
 4487TIP3    H234953   6.204   3.161  11.772 -0.1058  1.2312 -0.5823
 4488TIP3   OH234954   2.537   0.851   6.059 -0.4192 -0.6321  0.2472
 4488TIP3    H134955   2.470   0.878   6.121  0.6951  0.0911  1.1677
 4488TIP3    H234956   2.603   0.920   6.064 -1.1290  0.3319 -3.0668
 4489TIP3   OH234957   1.530   1.298   3.132  0.1992 -0.0171  0.0776
 4489TIP3    H134958   1.495   1.377   3.172  0.9147  0.8239 -0.9441
 4489TIP3    H234959   1.485   1.291   3.048 -0.6182 -1.2685  0.5981
 4490TIP3   OH234960   5.978   6.171  13.095 -0.0045 -0.2684 -0.3063
 4490TIP3    H134961   6.004   6.086  13.060  0.0557  0.4030 -1.9212
 4490TIP3    H234962   5.929   6.213  13.024  0.3034  1.2036  0.3232
 4491TIP3   OH234963   5.986   1.425   5.370 -0.2690 -0.4204 -0.0856
 4491TIP3    H134964   6.050   1.442   5.301 -0.7690 -2.5378 -1.1064
 4491TIP3    H234965   6.038   1.417   5.450  0.4730  0.4472 -0.4739
 4492TIP3   OH234966   3.241   0.261   0.753  0.3196 -0.3772 -0.2021
 4492TIP3    H134967   3.271   0.184   0.706  1.6629 -0.8488  1.3786
 4492TIP3    H234968   3.320   0.315   0.764 -0.6294  1.3450 -1.4760
 4493TIP3   OH234969   6.114   0.028  16.163 -0.2541 -0.1248  0.0869
 4493TIP3    H134970   6.182  -0.017  16.213  0.1541  0.3572 -0.0329
 4493TIP3    H234971   6.159   0.100  16.120 -0.7374 -0.1223 -0.4263
 4494TIP3   OH234972   2.887   3.362  11.360  0.4681 -0.5893  0.2536
 4494TIP3    H134973   2.868   3.452  11.333 -0.4103 -0.8455 -0.0095
 4494TIP3    H234974   2.894   3.367  11.455  2.8197  0.1779  0.0675
 4495TIP3   OH234975   2.109   5.578   4.499  0.1598 -0.4125  0.2667
 4495TIP3    H134976   2.203   5.597   4.497  0.6440 -2.4911  1.5451
 4495TIP3    H234977   2.104   5.482   4.503 -2.0080 -0.3217  0.2311
 4496TIP3   OH234978   2.607   5.665   2.279  0.1816  0.2628  0.2465
 4496TIP3    H134979   2.564   5.649   2.195  0.6115 -1.3774  0.3317
 4496TIP3    H234980   2.664   5.590   2.292  1.2763  1.2449  1.2901
 4497TIP3   OH234981   2.286   5.530   5.679  0.3573 -0.2240 -0.6731
 4497TIP3    H134982   2.250   5.569   5.758  0.1376  0.3674 -1.0652
 4497TIP3    H234983   2.227   5.558   5.609  1.1571  0.1543 -1.2056
 4498TIP3   OH234984   2.404   1.152  14.771  0.5722 -0.4242  0.3940
 4498TIP3    H134985   2.371   1.232  14.731  0.0683 -0.8605 -0.0561
 4498TIP3    H234986   2.394   1.085  14.704  0.6102 -0.9571  0.9159
 4499TIP3   OH234987   1.430   3.447   5.364  0.8597 -0.2017 -0.7149
 4499TIP3    H134988   1.402   3.485   5.447 -1.9578 -0.2184 -1.6043
 4499TIP3    H234989   1.471   3.520   5.317 -0.8809  0.7377 -0.7882
 4500TIP3   OH234990   1.690   1.773   1.050 -0.2196  0.1224 -0.1654
 4500TIP3    H134991   1.656   1.851   1.006  0.5135  0.9984  0.8002
 4500TIP3    H234992   1.612   1.722   1.071 -0.9112  1.6769  1.2158
 4501TIP3   OH234993   1.938   3.895   0.438 -0.0933 -0.0983  0.0070
 4501TIP3    H134994   1.934   3.988   0.462  2.8154  0.2348 -0.5774
 4501TIP3    H234995   1.946   3.895   0.342 -1.7095 -1.0352 -0.1450
 4502TIP3   OH234996   3.309   2.115  12.543 -0.0378 -0.0525  0.2127
 4502TIP3    H134997   3.226   2.150  12.575 -2.2026 -5.3469  1.0137
 4502TIP3    H234998   3.292   2.090  12.452  0.4590 -1.7013  0.5517
 4503TIP3   OH234999   5.457   3.800   3.196  0.2287 -0.3298  0.6099
 4503TIP3    H135000   5.477   3.815   3.104 -1.4514  0.2049  0.3113
 4503TIP3    H235001   5.408   3.717   3.197  0.3002 -0.3705  1.0219
 4504TIP3   OH235002   4.821   2.488   3.085 -0.1572  0.2209  0.1262
 4504TIP3    H135003   4.776   2.525   3.009  0.2593 -0.1004 -0.2802
 4504TIP3    H235004   4.897   2.545   3.098 -0.0673  0.1047  0.1171
 4505TIP3   OH235005   5.803   6.314  14.955  0.4942 -0.0493 -0.0740
 4505TIP3    H135006   5.753   6.246  15.001 -0.2844 -0.1901 -1.1112
 4505TIP3    H235007   5.738   6.382  14.936  0.8434  0.0821 -0.8007
 4506TIP3   OH235008   1.327   3.191  13.579 -0.0743 -0.3573  0.1984
 4506TIP3    H135009   1.251   3.139  13.605  1.1582 -2.8912 -1.0502
 4506TIP3    H235010   1.378   3.132  13.524  2.6482  1.3981  0.7604
 4507TIP3   OH235011   2.518   1.521  11.844 -0.0694 -0.5080  0.3261
 4507TIP3    H135012   2.592   1.502  11.785  0.0633 -0.1453  0.3735
 4507TIP3    H235013   2.547   1.490  11.929 -0.5378 -1.6888  0.0733
 4508TIP3   OH235014   6.588   4.489   4.479  0.0611 -0.0335 -0.4747
 4508TIP3    H135015   6.570   4.501   4.386  0.4803  0.4686 -0.4913
 4508TIP3    H235016   6.656   4.421   4.482  1.6019  1.4529 -0.6526
 4509TIP3   OH235017   6.299   3.446   4.891  0.1339  0.4490  0.1941
 4509TIP3    H135018   6.297   3.516   4.827 -1.6230 -0.2070 -0.4812
 4509TIP3    H235019   6.389   3.412   4.886  0.0461  0.4884 -1.8076
 4510TIP3   OH235020   5.343   0.444   0.470 -0.3661  0.2477  0.3354
 4510TIP3    H135021   5.412   0.382   0.444  0.5383  1.4501 -0.1696
 4510TIP3    H235022   5.321   0.418   0.560  0.3873 -0.4593  0.3247
 4511TIP3   OH235023   3.489   5.675   4.515  0.2157  0.8701 -0.0418
 4511TIP3    H135024   3.437   5.678   4.435 -0.3566 -0.3462  0.2724
 4511TIP3    H235025   3.553   5.605   4.499  0.0664  0.5908  0.5879
 4512TIP3   OH235026   0.886   5.169  15.495  0.2698  0.2065  0.5608
 4512TIP3    H135027   0.812   5.125  15.453 -0.1877  0.4266  1.1367
 4512TIP3    H235028   0.892   5.253  15.451  0.5496 -0.0454  0.1109
 4513TIP3   OH235029   3.877   3.398  12.590 -0.7271  0.1482  0.4351
 4513TIP3    H135030   3.822   3.381  12.514 -1.7485 -1.5082  1.5096
 4513TIP3    H235031   3.824   3.457  12.645 -1.2089 -0.9875  1.2011
 4514TIP3   OH235032   5.373   0.727  14.074  0.3567  0.0945  0.2848
 4514TIP3    H135033   5.348   0.658  14.013  1.7089  1.2110 -1.5568
 4514TIP3    H235034   5.337   0.807  14.036  3.0779  1.1233 -0.2461
 4515TIP3   OH235035   3.816   4.000   3.424  0.5051 -0.3955 -0.1971
 4515TIP3    H135036   3.874   3.972   3.353 -0.0072 -0.7343 -0.4914
 4515TIP3    H235037   3.728   3.978   3.393  0.3055 -0.9124  0.7099
 4516TIP3   OH235038   3.785   0.040   3.537  0.2200 -0.1684 -0.0587
 4516TIP3    H135039   3.736   0.077   3.609  0.8498 -1.1219  0.8721
 4516TIP3    H235040   3.778   0.105   3.467 -1.1359  0.3467  0.5527
 4517TIP3   OH235041   1.500   3.463  12.446 -0.2206  0.3987 -0.3077
 4517TIP3    H135042   1.501   3.408  12.368 -0.6696  1.4763 -1.0883
 4517TIP3    H235043   1.592   3.480  12.465 -0.1189  0.3221 -0.7314
 4518TIP3   OH235044   0.921   2.510   6.597 -0.1096  0.2469  1.1616
 4518TIP3    H135045   1.005   2.530   6.555  0.1044 -1.9901  0.4337
 4518TIP3    H235046   0.890   2.594   6.629  1.1916  1.5447 -0.8137
 4519TIP3   OH235047   5.678   5.453  15.313  0.9535  0.4604 -0.0262
 4519TIP3    H135048   5.741   5.422  15.249  2.8650  1.3607  1.3696
 4519TIP3    H235049   5.702   5.409  15.394 -1.0900 -0.2555  0.2176
 4520TIP3   OH235050   4.001   1.840   1.085 -0.3873  0.2272 -1.5075
 4520TIP3    H135051   3.953   1.763   1.053 -0.3745 -0.1881 -0.5662
 4520TIP3    H235052   4.020   1.819   1.177  1.5297  0.4179 -1.8556
 4521TIP3   OH235053   0.403   0.994  17.205  0.1620  0.0389 -0.4410
 4521TIP3    H135054   0.364   1.023  17.287  0.6671 -4.0492  1.3237
 4521TIP3    H235055   0.329   0.991  17.143 -0.6003  1.1709  0.3976
 4522TIP3   OH235056   5.436   3.624   3.509  0.0696 -0.1350  0.1163
 4522TIP3    H135057   5.403   3.599   3.422 -1.6107 -0.3979  0.8128
 4522TIP3    H235058   5.530   3.609   3.504  0.1253  0.6380 -1.9394
 4523TIP3   OH235059   5.153   3.171  14.681  0.2396  0.7768 -0.0674
 4523TIP3    H135060   5.155   3.207  14.592  0.2584  0.3684 -0.2333
 4523TIP3    H235061   5.073   3.119  14.685  1.7818 -1.7283 -0.8483
 4524TIP3   OH235062   5.098   2.704  14.954  0.4011  0.0245 -0.1474
 4524TIP3    H135063   5.017   2.744  14.987 -1.0004 -3.1702  0.4462
 4524TIP3    H235064   5.098   2.722  14.860 -0.9712  0.0851 -0.1398
 4525TIP3   OH235065   5.637   1.855   5.336 -0.4834 -0.3276 -0.4890
 4525TIP3    H135066   5.555   1.856   5.385 -0.8634 -1.2697 -1.0920
 4525TIP3    H235067   5.650   1.763   5.314  1.6752 -0.4425  1.1559
 4526TIP3   OH235068   5.350   0.902  16.865  0.6218  0.5643 -0.3209
 4526TIP3    H135069   5.342   0.889  16.770 -3.6911  1.1101 -0.1207
 4526TIP3    H235070   5.406   0.830  16.894  1.4389 -0.0316 -3.1647
 4527TIP3   OH235071   3.149   4.011   5.340 -0.6563 -0.0006  0.3044
 4527TIP3    H135072   3.159   4.057   5.423 -0.8454  1.5291 -0.5202
 4527TIP3    H235073   3.164   3.919   5.362 -0.8691  0.3797  2.0591
 4528TIP3   OH235074   5.945   6.326   3.841 -0.2618 -0.1612  0.1792
 4528TIP3    H135075   5.983   6.316   3.928  1.7380 -1.9600 -0.8523
 4528TIP3    H235076   6.020   6.319   3.781 -1.6731  0.4730 -1.7110
 4529TIP3   OH235077   2.802   6.719   0.728  0.1641 -0.2498 -0.0967
 4529TIP3    H135078   2.847   6.791   0.684  1.4805 -0.5328  0.7389
 4529TIP3    H235079   2.709   6.739   0.718  0.4950  1.1685 -0.5189
 4530TIP3   OH235080   4.334   0.125   1.285 -0.5903 -0.3674  0.5864
 4530TIP3    H135081   4.363   0.089   1.202 -0.4073 -0.7568  0.8189
 4530TIP3    H235082   4.242   0.148   1.270 -0.5748 -0.4880  0.2959
 4531TIP3   OH235083   3.786   6.441  13.276 -0.3532  0.0435  0.8455
 4531TIP3    H135084   3.822   6.353  13.265 -3.1312 -1.0671  0.3387
 4531TIP3    H235085   3.822   6.472  13.360  0.8947 -1.4163  0.8635
 4532TIP3   OH235086   2.612   2.105  16.399 -0.3613 -0.0137  0.1622
 4532TIP3    H135087   2.569   2.138  16.319 -2.1522  2.8832  2.2242
 4532TIP3    H235088   2.555   2.034  16.429 -0.4953 -0.1169 -0.3226
 4533TIP3   OH235089   2.710   2.347   3.812 -0.1260  0.1649 -0.2328
 4533TIP3    H135090   2.743   2.328   3.899  0.1883  1.5176 -0.0488
 4533TIP3    H235091   2.679   2.437   3.817  2.0178  1.0672 -2.1416
 4534TIP3   OH235092   6.346   1.965   5.871 -0.1337  0.1117  0.2198
 4534TIP3    H135093   6.291   1.924   5.938 -1.1722 -0.0973 -0.7446
 4534TIP3    H235094   6.408   1.896   5.846 -1.2712 -0.5880 -0.7221
 4535TIP3   OH235095   1.023   6.717   1.480  0.3303  0.3836 -0.1179
 4535TIP3    H135096   0.949   6.757   1.433  0.1089 -0.2467 -0.3064
 4535TIP3    H235097   1.015   6.751   1.569 -0.9209 -0.6417  0.1817
 4536TIP3   OH235098   2.723   2.649  15.920  0.8657  0.1130 -0.6278
 4536TIP3    H135099   2.667   2.608  15.854  2.5738  1.2223 -2.8255
 4536TIP3    H235100   2.766   2.575  15.964 -1.1148 -0.6811  0.0423
 4537TIP3   OH235101   5.067   0.580   5.642  0.1281  0.3059 -0.7041
 4537TIP3    H135102   5.128   0.506   5.652 -1.7327 -1.6427 -3.1278
 4537TIP3    H235103   4.987   0.550   5.684 -0.9665  0.4995 -2.6201
 4538TIP3   OH235104   2.288   2.813  11.759  0.0226  0.1799  0.1408
 4538TIP3    H135105   2.349   2.776  11.696 -0.8085  0.5461 -0.9073
 4538TIP3    H235106   2.279   2.905  11.732 -0.4348  0.3095  0.7216
 4539TIP3   OH235107   6.299   6.579   0.057 -0.7844 -0.0548  0.3351
 4539TIP3    H135108   6.213   6.543   0.079 -1.2941  1.2747  0.5442
 4539TIP3    H235109   6.315   6.549  -0.032 -1.1140 -0.9661  0.5797
 4540TIP3   OH235110   1.326   4.058  17.207  0.7097  0.3444  0.1683
 4540TIP3    H135111   1.420   4.077  17.212  0.8310 -0.2122  0.0497
 4540TIP3    H235112   1.305   4.014  17.289  1.1775 -2.1714 -0.9990
 4541TIP3   OH235113   1.499   6.058   1.088 -0.0206 -0.2084 -0.1276
 4541TIP3    H135114   1.586   6.052   1.126 -0.2556  1.6156  0.7895
 4541TIP3    H235115   1.501   6.138   1.035 -1.1450 -0.0780  0.0001
 4542TIP3   OH235116   4.356   3.882   6.334  0.2238  0.5341 -0.1960
 4542TIP3    H135117   4.405   3.816   6.382  2.0088  0.5606 -1.9327
 4542TIP3    H235118   4.266   3.850   6.334  0.7317 -0.9217  0.6071
 4543TIP3   OH235119   2.299   1.364   1.532  0.1186  0.4541 -0.3405
 4543TIP3    H135120   2.315   1.278   1.493 -0.0051  0.7654 -1.0862
 4543TIP3    H235121   2.234   1.405   1.475 -0.4443  0.7248  0.4743
 4544TIP3   OH235122   0.432   6.153   4.482 -0.5973  0.1372  0.6874
 4544TIP3    H135123   0.431   6.203   4.401  0.3697 -0.5628  0.2388
 4544TIP3    H235124   0.448   6.219   4.550 -2.1102  0.8285  0.4091
 4545TIP3   OH235125   3.400   5.018  13.657 -0.2144  1.0707 -0.4941
 4545TIP3    H135126   3.343   5.030  13.734  0.4439 -0.9958  0.3474
 4545TIP3    H235127   3.343   4.978  13.591  0.3674 -1.7355  0.6120
 4546TIP3   OH235128   6.300   4.088   3.743  0.1509  0.4280 -0.0863
 4546TIP3    H135129   6.292   3.996   3.768 -0.0064  0.4176 -0.1697
 4546TIP3    H235130   6.388   4.114   3.770  0.8838 -0.2702 -1.7383
 4547TIP3   OH235131   1.897   1.164   0.281 -0.4347  0.2424 -0.0917
 4547TIP3    H135132   1.897   1.087   0.337  2.8175  0.1954 -0.0727
 4547TIP3    H235133   1.872   1.236   0.340 -0.4614 -0.3287  0.5996
 4548TIP3   OH235134   4.262   3.507  15.003  0.0951 -0.0654 -0.0581
 4548TIP3    H135135   4.339   3.504  15.060  1.0776 -2.0880 -1.4308
 4548TIP3    H235136   4.293   3.551  14.924 -0.5681  0.4309 -0.0438
 4549TIP3   OH235137   1.578   4.257   5.288 -0.0693 -0.4301 -0.1302
 4549TIP3    H135138   1.488   4.281   5.310  0.2003 -0.0472  0.5754
 4549TIP3    H235139   1.611   4.333   5.239 -0.2818 -0.7688 -0.7957
 4550TIP3   OH235140   4.072   3.824   1.484 -0.1562  0.0432 -0.4278
 4550TIP3    H135141   4.116   3.877   1.550 -1.4280 -1.7347  1.9094
 4550TIP3    H235142   4.081   3.874   1.403  1.1817  2.4106  1.1403
 4551TIP3   OH235143   5.574   3.696  12.337  0.5162  0.2060 -0.2016
 4551TIP3    H135144   5.512   3.702  12.264 -1.4575  0.4716  1.4332
 4551TIP3    H235145   5.638   3.765  12.319 -0.1517  0.5192 -1.4903
 4552TIP3   OH235146   6.377   6.392   4.740 -0.1146 -0.6803 -0.0976
 4552TIP3    H135147   6.447   6.436   4.788 -1.2792  1.1725 -0.0750
 4552TIP3    H235148   6.412   6.380   4.652  0.7834 -1.1279  0.3106
 4553TIP3   OH235149   2.873   2.137   0.199 -0.1265 -0.0289 -0.1358
 4553TIP3    H135150   2.787   2.174   0.220  0.0308 -0.0938  0.6394
 4553TIP3    H235151   2.928   2.163   0.273  0.0495 -1.5923  0.2928
 4554TIP3   OH235152   0.814   4.390   3.995  0.3333  0.4935  0.2617
 4554TIP3    H135153   0.792   4.340   4.074  0.2084 -1.7608 -1.1415
 4554TIP3    H235154   0.732   4.432   3.970 -0.1087 -0.3433  0.2715
 4555TIP3   OH235155   3.393   2.581  14.400  0.0489  0.0466 -0.0667
 4555TIP3    H135156   3.340   2.614  14.473 -0.2420 -0.7353  0.0775
 4555TIP3    H235157   3.470   2.543  14.441 -0.4839 -1.0997 -0.1050
 4556TIP3   OH235158   0.733   5.194   1.860  0.0272 -0.1188 -0.3899
 4556TIP3    H135159   0.827   5.185   1.871 -0.0707  0.6885  1.2171
 4556TIP3    H235160   0.695   5.156   1.939 -0.8930  1.3955 -0.0760
 4557TIP3   OH235161   3.224   2.688   1.221 -0.1491 -0.2698  0.3445
 4557TIP3    H135162   3.209   2.596   1.201 -0.9789 -0.1614  0.4703
 4557TIP3    H235163   3.148   2.714   1.273 -0.6057  0.8449 -0.8495
 4558TIP3   OH235164   1.564   0.939  15.692  0.5180 -0.1103 -0.5232
 4558TIP3    H135165   1.632   0.872  15.696 -0.8313 -1.5119 -0.5306
 4558TIP3    H235166   1.497   0.901  15.634 -0.0193  1.4581 -0.9338
 4559TIP3   OH235167   1.359   6.318  16.909  0.2667 -0.0029  0.1182
 4559TIP3    H135168   1.303   6.321  16.987  1.1568 -1.7890  0.8517
 4559TIP3    H235169   1.301   6.341  16.837 -0.9326  0.1774  1.1190
 4560TIP3   OH235170   0.414   4.786  16.974  0.8481  0.1155 -0.6935
 4560TIP3    H135171   0.427   4.692  16.984  0.2016  0.2402  1.4204
 4560TIP3    H235172   0.325   4.802  17.002  1.4451  1.5816  0.4271
 4561TIP3   OH235173   6.502   3.712  11.587 -0.4821  1.0342  0.4080
 4561TIP3    H135174   6.462   3.718  11.500  0.4577 -0.3258 -0.1384
 4561TIP3    H235175   6.595   3.723  11.571 -0.1381 -0.7165  1.0301
 4562TIP3   OH235176   1.413   5.224   3.482  0.0624  0.3167 -0.3094
 4562TIP3    H135177   1.440   5.172   3.406  1.5288  1.3540 -0.5175
 4562TIP3    H235178   1.402   5.160   3.552  0.0591 -0.4834 -1.0307
 4563TIP3   OH235179   0.452   4.093  12.045 -0.4193 -0.4770 -0.3824
 4563TIP3    H135180   0.371   4.053  12.014 -1.3987  1.3609 -0.2558
 4563TIP3    H235181   0.432   4.124  12.133  0.4643 -0.1279 -0.2925
 4564TIP3   OH235182   1.951   1.060   5.174  0.7744  0.1629 -0.1778
 4564TIP3    H135183   2.016   1.060   5.244 -0.2483 -2.7725  0.8423
 4564TIP3    H235184   1.948   0.969   5.144 -1.6979  0.5777 -1.3133
 4565TIP3   OH235185   5.581   5.448   1.330  0.4154  0.2273 -0.3643
 4565TIP3    H135186   5.643   5.502   1.378 -0.3039  0.0614  0.7764
 4565TIP3    H235187   5.498   5.495   1.337 -0.3631 -1.2953  1.1709
 4566TIP3   OH235188   3.183   2.799  15.678  0.0822 -0.2649  0.1126
 4566TIP3    H135189   3.251   2.734  15.696  1.3231  0.1240 -2.8486
 4566TIP3    H235190   3.101   2.750  15.685  0.9007 -1.7336 -0.2728
 4567TIP3   OH235191   5.736   3.387  15.419  0.0313 -0.5366  0.4388
 4567TIP3    H135192   5.791   3.362  15.344 -0.0500  0.2375  0.1145
 4567TIP3    H235193   5.790   3.449  15.468 -0.5949  0.3392  0.0425
 4568TIP3   OH235194   3.553   6.305   4.337  0.5190  0.1073  0.1846
 4568TIP3    H135195   3.509   6.239   4.284 -2.2608  0.3159  2.1169
 4568TIP3    H235196   3.578   6.259   4.417 -0.3141  1.0432  1.0152
 4569TIP3   OH235197   2.087   0.781  12.681 -0.0586 -0.3655 -0.0389
 4569TIP3    H135198   2.115   0.735  12.602 -1.2514 -0.1031 -0.6185
 4569TIP3    H235199   2.007   0.736  12.708 -0.5178  0.5492  0.1296
 4570TIP3   OH235200   1.671   6.426   6.133  0.5998 -0.0101  0.7590
 4570TIP3    H135201   1.633   6.488   6.196 -0.9470  1.3335 -1.4302
 4570TIP3    H235202   1.609   6.354   6.131 -0.2742  0.7727 -0.5442
 4571TIP3   OH235203   5.918   0.108   3.494 -0.5049  0.3272  0.0025
 4571TIP3    H135204   5.997   0.132   3.541 -1.0625  0.1937  1.0156
 4571TIP3    H235205   5.879   0.038   3.546 -2.3141  1.7091  0.5850
 4572TIP3   OH235206   6.239   3.473   2.020  0.4727 -0.6531  0.4781
 4572TIP3    H135207   6.166   3.519   1.978 -0.1766 -1.5841  0.5683
 4572TIP3    H235208   6.310   3.476   1.956 -0.2905 -1.4627 -0.4266
 4573TIP3   OH235209   2.296   1.898  17.286 -0.7256  0.0817  0.0845
 4573TIP3    H135210   2.230   1.879  17.221 -0.9945  2.6668 -0.4565
 4573TIP3    H235211   2.255   1.875  17.370 -1.0045 -1.6018 -0.4985
 4574TIP3   OH235212   0.891   4.961   6.426 -0.7780 -0.3397  1.0467
 4574TIP3    H135213   0.856   5.033   6.374 -0.7235 -1.2031 -0.1925
 4574TIP3    H235214   0.985   4.961   6.406 -0.8874 -1.1906  0.4916
 4575TIP3   OH235215   3.972   1.444   5.633  0.3067 -0.4499 -0.0216
 4575TIP3    H135216   4.012   1.361   5.659  0.8075 -0.5141 -0.9643
 4575TIP3    H235217   4.045   1.506   5.632  0.3704 -0.5164 -1.5313
 4576TIP3   OH235218   5.569   1.226  12.278  0.0191 -0.8019 -0.3378
 4576TIP3    H135219   5.598   1.138  12.304  1.1516 -0.6521 -1.0704
 4576TIP3    H235220   5.539   1.266  12.360  0.1791 -1.6026  0.1209
 4577TIP3   OH235221   0.320   4.160  14.662 -0.2405  0.6357 -0.2342
 4577TIP3    H135222   0.391   4.108  14.624  0.5215  0.7663  0.9732
 4577TIP3    H235223   0.290   4.109  14.737 -0.1638  1.4650  0.3637
 4578TIP3   OH235224   2.543   4.180  11.778  0.7364  0.1013 -0.3514
 4578TIP3    H135225   2.564   4.269  11.748 -1.3350  0.0783 -1.9784
 4578TIP3    H235226   2.527   4.131  11.698  0.6170 -1.4403  0.5950
 4579TIP3   OH235227   6.152   0.689  10.592 -0.1409 -0.1894  0.3758
 4579TIP3    H135228   6.222   0.707  10.655 -0.4789 -0.6358  0.8760
 4579TIP3    H235229   6.167   0.598  10.566  0.1254  0.0561 -0.3541
 4580TIP3   OH235230   0.239   3.063  10.576 -0.5501  0.2120  0.0549
 4580TIP3    H135231   0.186   3.082  10.653 -0.6429 -0.3671  0.1418
 4580TIP3    H235232   0.230   2.968  10.564 -0.9445  0.3745 -0.9677
 4581TIP3   OH235233   4.555   3.994   2.335 -0.3501 -0.3450 -0.4893
 4581TIP3    H135234   4.510   3.932   2.277 -0.5487  0.0632 -0.7749
 4581TIP3    H235235   4.499   4.001   2.412  0.1663 -1.2794 -0.0141
 4582TIP3   OH235236   0.788   0.868   3.729 -0.1161  0.0963  0.2599
 4582TIP3    H135237   0.743   0.919   3.662  0.5695 -0.9991 -1.0660
 4582TIP3    H235238   0.781   0.777   3.699  0.8128 -0.3344  1.3108
 4583TIP3   OH235239   6.120   1.023  13.489  0.0122  0.1343  0.0925
 4583TIP3    H135240   6.076   1.054  13.410  0.0564  0.7803  0.3233
 4583TIP3    H235241   6.214   1.028  13.467 -0.0022 -0.6327 -0.1672
 4584TIP3   OH235242   4.391   1.742   2.066 -0.4775  0.0965 -0.0674
 4584TIP3    H135243   4.394   1.652   2.095  0.7020  0.2457  0.2884
 4584TIP3    H235244   4.317   1.745   2.005 -0.0914 -1.2574 -0.6098
 4585TIP3   OH235245   5.760   4.447  12.501  0.5510  0.3793  0.1062
 4585TIP3    H135246   5.715   4.422  12.420 -0.5693  1.4185  0.4029
 4585TIP3    H235247   5.850   4.464  12.474  1.2098 -3.1638 -0.2545
 4586TIP3   OH235248   2.651   1.943  14.136  0.4810  0.6120 -0.4808
 4586TIP3    H135249   2.698   1.894  14.204 -1.2247  0.6557  0.7643
 4586TIP3    H235250   2.584   1.882  14.105 -0.6945  1.6302  0.0237
 4587TIP3   OH235251   1.057   1.500  13.856  0.3094  0.0026  0.0616
 4587TIP3    H135252   1.026   1.587  13.882 -2.5361 -0.5485 -1.3248
 4587TIP3    H235253   1.005   1.439  13.908  1.4681 -0.9284  0.1581
 4588TIP3   OH235254   3.798   1.327  16.334 -0.1565 -0.2382 -0.0294
 4588TIP3    H135255   3.759   1.341  16.247  0.4483  2.3774  0.0881
 4588TIP3    H235256   3.724   1.323  16.393 -0.4254  1.4610 -0.2309
 4589TIP3   OH235257   0.249   1.931   2.327 -0.1686  0.0117  0.0627
 4589TIP3    H135258   0.168   1.904   2.369 -0.2639  1.1676  0.6209
 4589TIP3    H235259   0.275   2.011   2.372  0.7221  0.2342 -0.8147
 4590TIP3   OH235260   2.263   2.265  13.167 -0.0125  0.2877  0.2040
 4590TIP3    H135261   2.300   2.352  13.155  0.4496  0.1739  0.7835
 4590TIP3    H235262   2.197   2.276  13.236  0.6473  0.0117  0.8832
 4591TIP3   OH235263   6.030   0.120  12.425 -0.3546 -0.4739  0.2148
 4591TIP3    H135264   5.963   0.182  12.398  1.2479  0.5413 -1.5413
 4591TIP3    H235265   6.018   0.045  12.367  2.0408  1.0362 -2.3403
 4592TIP3   OH235266   3.562   3.473  13.562  0.2176 -0.0411  0.2178
 4592TIP3    H135267   3.509   3.393  13.565  0.1945  0.0054  1.3750
 4592TIP3    H235268   3.501   3.541  13.533 -0.5287  0.1300  2.1294
 4593TIP3   OH235269   4.854   0.054  10.518  0.4871 -0.0318  0.4886
 4593TIP3    H135270   4.859   0.135  10.568  0.6272  1.2289 -1.5110
 4593TIP3    H235271   4.781   0.067  10.457  1.5641 -0.7271 -0.9995
 4594TIP3   OH235272   3.071   1.718   5.381 -0.1256  0.2937 -0.2762
 4594TIP3    H135273   3.087   1.626   5.357 -1.3420  0.0058 -0.0303
 4594TIP3    H235274   3.134   1.768   5.329  2.0855 -0.8246  1.2042
 4595TIP3   OH235275   0.469   0.716  15.833 -0.1810  0.2163  0.0889
 4595TIP3    H135276   0.436   0.781  15.895  0.0864  0.2197  0.2314
 4595TIP3    H235277   0.527   0.661  15.886  1.1840  1.1003 -0.4723
 4596TIP3   OH235278   2.727   0.171  12.853  0.6923  0.4927 -0.3520
 4596TIP3    H135279   2.743   0.262  12.827 -0.8668  0.4196 -1.6939
 4596TIP3    H235280   2.655   0.176  12.916  1.8778  0.3302  1.0370
 4597TIP3   OH235281   3.588   1.051  10.806 -0.4779 -0.1820  0.5978
 4597TIP3    H135282   3.564   1.054  10.713 -0.9196 -2.3537  0.6131
 4597TIP3    H235283   3.546   1.128  10.844 -1.2567  0.1023 -0.8048
 4598TIP3   OH235284   6.006   5.200   0.498  0.0030  0.0484 -0.4114
 4598TIP3    H135285   6.021   5.105   0.491  0.9950  0.1750 -0.1184
 4598TIP3    H235286   5.946   5.209   0.572 -0.2810 -0.3659 -0.5849
 4599TIP3   OH235287   1.020   2.234  16.746  0.2413  0.2487  0.1592
 4599TIP3    H135288   1.003   2.260  16.836 -1.3217  0.2249 -0.0982
 4599TIP3    H235289   0.947   2.175  16.724  0.5091  0.3876 -1.1638
 4600TIP3   OH235290   3.060   6.218  13.917 -0.1665 -0.0651  0.1342
 4600TIP3    H135291   3.089   6.214  14.009  2.2525 -0.8730 -0.6182
 4600TIP3    H235292   3.118   6.156  13.872 -0.5705  1.1811 -2.1412
 4601TIP3   OH235293   5.971   5.975   4.469 -0.4683  0.1733 -0.0763
 4601TIP3    H135294   5.956   6.046   4.407  1.9800  0.3529 -0.5033
 4601TIP3    H235295   6.034   6.011   4.531  0.9088 -1.6713 -0.3690
 4602TIP3   OH235296   4.315   1.416  13.956 -0.0216 -0.2001 -0.1020
 4602TIP3    H135297   4.361   1.362  13.892  0.1557 -0.0403 -0.1085
 4602TIP3    H235298   4.222   1.406  13.934  0.1695  2.0310 -2.0822
 4603TIP3   OH235299   5.741   4.011  12.994  0.0767  0.0578 -0.0849
 4603TIP3    H135300   5.799   3.986  12.922  0.5327 -0.8465  0.5749
 4603TIP3    H235301   5.660   3.963  12.979 -0.3667  1.0260 -0.7999
 4604TIP3   OH235302   5.411   5.120  11.366 -0.3190 -0.3972 -0.2994
 4604TIP3    H135303   5.338   5.129  11.426  0.1100 -0.2958  0.2078
 4604TIP3    H235304   5.488   5.139  11.419  0.0584 -0.2894 -0.8827
 4605TIP3   OH235305   5.169   5.521  14.150 -0.1965  0.1832 -0.1523
 4605TIP3    H135306   5.098   5.586  14.153  0.6601  1.0611  2.2658
 4605TIP3    H235307   5.209   5.534  14.064 -0.7391  2.1146 -0.1434
 4606TIP3   OH235308   0.759   4.541  15.723 -0.3718  0.5389  0.3338
 4606TIP3    H135309   0.758   4.509  15.813  1.3728 -0.5776 -0.0239
 4606TIP3    H235310   0.735   4.465  15.669  0.9215  0.5699 -0.3047
 4607TIP3   OH235311   5.486   3.212   0.855 -0.1940  1.0136  0.4116
 4607TIP3    H135312   5.560   3.221   0.914  1.1985 -0.4904 -1.0522
 4607TIP3    H235313   5.523   3.230   0.768 -1.0463 -1.9061 -0.5839
 4608TIP3   OH235314   2.940   6.255   2.559  0.1314  0.2831  1.0023
 4608TIP3    H135315   2.970   6.172   2.596 -0.0862 -0.9444 -1.4571
 4608TIP3    H235316   2.857   6.272   2.602 -0.3869 -1.3877  0.7023
 4609TIP3   OH235317   6.634   4.727  16.284 -0.0950 -0.3583 -0.0616
 4609TIP3    H135318   6.659   4.637  16.266 -1.7260 -0.6155 -1.1691
 4609TIP3    H235319   6.544   4.721  16.317  1.0419  0.5535  3.4786
 4610TIP3   OH235320   2.769   6.171  13.852 -0.8046  0.3032 -0.4316
 4610TIP3    H135321   2.716   6.183  13.931 -2.3075  2.2419 -1.6965
 4610TIP3    H235322   2.822   6.251  13.846 -0.7470  0.1920 -1.4158
 4611TIP3   OH235323   0.543   5.140   0.867 -0.0681 -0.5155 -0.7661
 4611TIP3    H135324   0.629   5.158   0.829 -0.0209 -1.0063 -0.8925
 4611TIP3    H235325   0.544   5.185   0.952 -0.6757  1.7359 -1.9137
 4612TIP3   OH235326   2.838   0.786   6.223 -0.6598  0.4310  0.3018
 4612TIP3    H135327   2.792   0.738   6.292 -2.3763 -1.2929 -1.9621
 4612TIP3    H235328   2.926   0.747   6.220 -1.8839 -2.3409 -1.1759
 4613TIP3   OH235329   3.204   3.568  14.073  0.0620 -0.2056  0.1336
 4613TIP3    H135330   3.271   3.562  14.006 -0.6554 -2.6092 -0.4399
 4613TIP3    H235331   3.195   3.661  14.091  1.3746  0.3466 -1.9693
 4614TIP3   OH235332   0.057   6.444   0.388  0.2328 -0.1331 -0.2959
 4614TIP3    H135333  -0.024   6.458   0.436  0.5884 -0.7102  0.4795
 4614TIP3    H235334   0.030   6.437   0.297 -0.5127  0.3632 -0.1191
 4615TIP3   OH235335   0.482   0.916   3.230 -0.5289  0.0900 -0.3216
 4615TIP3    H135336   0.566   0.962   3.238 -1.2034  1.5989 -1.6236
 4615TIP3    H235337   0.487   0.846   3.296  0.9452  1.3840  1.0000
 4616TIP3   OH235338   4.993   5.391  12.728 -0.2500 -0.7023  0.2151
 4616TIP3    H135339   5.032   5.328  12.789  1.3525 -0.4337 -0.5127
 4616TIP3    H235340   5.004   5.475  12.772 -0.8163 -0.7277  0.4056
 4617TIP3   OH235341   4.927   6.526   1.055 -0.2013 -0.4972  0.3815
 4617TIP3    H135342   4.989   6.456   1.034 -1.2935 -1.1026 -0.8811
 4617TIP3    H235343   4.931   6.585   0.979 -0.9871 -0.4057  0.4049
 4618TIP3   OH235344   2.096   1.028  14.532 -0.0117 -0.0546 -0.3985
 4618TIP3    H135345   2.048   0.951  14.500 -0.4655  0.7105 -1.5610
 4618TIP3    H235346   2.067   1.099  14.476  0.6843  0.9044  0.4518
 4619TIP3   OH235347   6.551   4.279   5.919  0.0896 -0.5824 -0.5042
 4619TIP3    H135348   6.565   4.258   6.012 -0.0689  0.2439 -0.2931
 4619TIP3    H235349   6.533   4.373   5.918  1.7636 -0.2418 -1.5380
 4620TIP3   OH235350   1.517   0.702  12.735 -0.0466 -1.0886  0.1053
 4620TIP3    H135351   1.548   0.718  12.824 -0.7332  1.0005 -0.0225
 4620TIP3    H235352   1.585   0.646  12.696  2.7674  1.9965  0.3862
 4621TIP3   OH235353   5.154   4.640  11.149  0.2287  0.1905  0.1107
 4621TIP3    H135354   5.123   4.666  11.062  1.3163  0.4675 -0.1934
 4621TIP3    H235355   5.093   4.681  11.209  0.7552  1.8080 -0.4450
 4622TIP3   OH235356   6.463   2.666  12.295 -0.2457  0.2116 -0.5420
 4622TIP3    H135357   6.374   2.647  12.266 -0.1115 -0.1983 -0.6908
 4622TIP3    H235358   6.519   2.611  12.240  0.0662  0.0950 -0.1132
 4623TIP3   OH235359   0.777   6.782   3.904  0.0829 -0.0918  0.4203
 4623TIP3    H135360   0.774   6.864   3.954  0.3569 -0.1473  0.5298
 4623TIP3    H235361   0.850   6.733   3.942 -0.1359 -0.4267  0.4144
 4624TIP3   OH235362   1.590   0.745   1.771 -0.0105 -0.7797  0.0133
 4624TIP3    H135363   1.673   0.715   1.810  0.2063 -0.0738  0.0957
 4624TIP3    H235364   1.615   0.782   1.687 -0.2654 -0.7141 -0.0324
 4625TIP3   OH235365   5.065   0.197   4.669 -0.0971 -0.2195 -0.4762
 4625TIP3    H135366   5.080   0.266   4.605 -0.3573  0.2072 -0.0787
 4625TIP3    H235367   5.106   0.228   4.749 -0.2473 -0.5081 -0.2841
 4626TIP3   OH235368   3.378   3.578   4.292  0.1830  0.1840  0.5018
 4626TIP3    H135369   3.351   3.670   4.297 -1.5801 -0.0591 -3.1340
 4626TIP3    H235370   3.308   3.530   4.336 -0.1060  0.3776  0.2553
 4627TIP3   OH235371   2.653   4.870   1.957  0.1164  0.0970  0.0340
 4627TIP3    H135372   2.585   4.814   1.920  0.3844  0.2600 -0.7341
 4627TIP3    H235373   2.725   4.864   1.894  0.4414  0.6838  0.3400
 4628TIP3   OH235374   3.764   6.727  13.130 -0.3081  0.7938  0.4387
 4628TIP3    H135375   3.710   6.649  13.146 -0.0430  0.0779 -2.0074
 4628TIP3    H235376   3.716   6.798  13.173 -0.5516 -0.6852  2.7136
 4629TIP3   OH235377   2.659   6.117  13.573  0.0244  0.0047 -0.8211
 4629TIP3    H135378   2.722   6.123  13.644 -1.5442  0.8681  0.5573
 4629TIP3    H235379   2.633   6.025  13.571 -0.6715  0.1665  0.4124
 4630TIP3   OH235380   3.472   1.278  16.206  0.2750  1.0138  0.5274
 4630TIP3    H135381   3.467   1.188  16.173 -3.1889  1.2161  0.3287
 4630TIP3    H235382   3.393   1.289  16.259  1.6435  3.3410  2.2210
 4631TIP3   OH235383   5.088   5.740  14.332  0.2940 -0.1510  0.5063
 4631TIP3    H135384   5.035   5.664  14.358  0.4002  0.3638  2.3073
 4631TIP3    H235385   5.059   5.759  14.243 -1.0345 -1.1926  0.6792
 4632TIP3   OH235386   4.225   0.440  12.562 -0.2927 -0.2838 -0.3474
 4632TIP3    H135387   4.133   0.457  12.539  0.2398 -1.5882 -3.6687
 4632TIP3    H235388   4.227   0.346  12.582  0.5505 -0.5129 -1.4990
 4633TIP3   OH235389   2.022   3.843   3.992  0.6779  0.1941  0.3076
 4633TIP3    H135390   1.980   3.833   4.077  0.8372 -0.0118  0.3623
 4633TIP3    H235391   2.107   3.802   4.002  0.8051  0.4136  0.1299
 4634TIP3   OH235392   6.484   4.966  14.553 -0.3004 -0.0035 -0.1811
 4634TIP3    H135393   6.570   5.007  14.539  0.2661 -1.3200 -0.6401
 4634TIP3    H235394   6.421   5.031  14.522  0.6109  0.3681 -1.2689
 4635TIP3   OH235395   0.408   5.322   3.086  0.1039  0.1503  0.1201
 4635TIP3    H135396   0.447   5.278   3.161  0.4754 -1.7816 -1.1624
 4635TIP3    H235397   0.399   5.253   3.020 -3.5913  0.9890 -0.3575
 4636TIP3   OH235398   3.918   0.501   4.094  0.7008 -0.0582 -0.5935
 4636TIP3    H135399   3.902   0.458   4.010 -2.3115 -1.0955  0.4683
 4636TIP3    H235400   3.901   0.593   4.078 -0.8888 -0.3959 -0.8580
 4637TIP3   OH235401   0.846   2.762   6.346 -0.1613 -0.0945 -0.1044
 4637TIP3    H135402   0.834   2.738   6.438 -0.2128  0.0624 -0.0706
 4637TIP3    H235403   0.879   2.682   6.305  2.0900  0.4993  0.4963
 4638TIP3   OH235404   0.451   3.660  15.307 -0.0396 -0.3521  0.1495
 4638TIP3    H135405   0.488   3.646  15.220 -1.8457 -1.1288 -0.5190
 4638TIP3    H235406   0.465   3.753  15.325 -1.6364  0.3373 -1.9617
 4639TIP3   OH235407   4.217   0.145  14.401  0.4101  0.2480 -0.0353
 4639TIP3    H135408   4.269   0.076  14.442 -2.0179 -2.1204 -0.7568
 4639TIP3    H235409   4.174   0.190  14.474  0.2905 -0.4440  0.3251
 4640TIP3   OH235410   4.593   1.299   4.611  0.3929 -1.1767  0.3857
 4640TIP3    H135411   4.533   1.227   4.630  1.3171 -2.2213 -0.5912
 4640TIP3    H235412   4.643   1.269   4.535  1.6360 -0.0103  0.7266
 4641TIP3   OH235413   5.310   5.760  11.580 -0.7358  0.8049 -0.4948
 4641TIP3    H135414   5.246   5.707  11.532 -1.3549  0.4417  0.7043
 4641TIP3    H235415   5.389   5.756  11.527 -1.5190  0.7019 -1.6578
 4642TIP3   OH235416   3.558   0.237   3.364 -0.2936 -0.2680 -0.4861
 4642TIP3    H135417   3.549   0.142   3.359 -0.8314 -0.1337 -2.3825
 4642TIP3    H235418   3.545   0.267   3.274 -0.5526  1.6354  0.1665
 4643TIP3   OH235419   3.503   0.441   5.228  0.1531 -0.5598 -0.6824
 4643TIP3    H135420   3.463   0.358   5.254  0.3803 -0.6539 -0.6347
 4643TIP3    H235421   3.441   0.479   5.166  0.3344 -1.0442 -1.1647
 4644TIP3   OH235422   6.307   5.104   5.305  0.2130  0.0393 -0.1925
 4644TIP3    H135423   6.371   5.042   5.269 -0.1672  0.5185 -1.7366
 4644TIP3    H235424   6.350   5.142   5.381  1.4601 -0.2221 -0.7594
 4645TIP3   OH235425   3.798   6.541   0.431 -0.4426 -0.3539 -0.0279
 4645TIP3    H135426   3.855   6.604   0.475 -0.8729  1.1712 -1.5834
 4645TIP3    H235427   3.854   6.465   0.416  0.6538  0.3930  0.1765
 4646TIP3   OH235428   2.073   3.060   1.109 -0.6731 -0.2930 -0.1782
 4646TIP3    H135429   2.157   3.078   1.151  0.3331 -0.8033 -1.9058
 4646TIP3    H235430   2.018   3.134   1.132 -0.1235 -0.5151  1.9248
 4647TIP3   OH235431   6.330   1.485  13.505 -0.0376 -0.3290 -0.1708
 4647TIP3    H135432   6.302   1.555  13.446 -4.6251 -2.0617 -0.3236
 4647TIP3    H235433   6.306   1.516  13.592  0.7426 -0.4288  0.0757
 4648TIP3   OH235434   5.639   1.773   1.177  0.2932  0.6522 -0.0112
 4648TIP3    H135435   5.561   1.825   1.159 -0.3276 -0.3042 -0.1245
 4648TIP3    H235436   5.669   1.804   1.263 -0.5641  0.5888  0.3142
 4649TIP3   OH235437   2.237   4.616   2.745 -0.1497  0.4170 -0.1099
 4649TIP3    H135438   2.257   4.535   2.699 -0.2310  0.1535  0.3164
 4649TIP3    H235439   2.268   4.685   2.687  0.9291  0.0472  0.0110
 4650TIP3   OH235440   1.195   2.135  14.505 -0.0494 -0.3318  0.0732
 4650TIP3    H135441   1.285   2.149  14.533 -0.2708 -1.5150  1.4293
 4650TIP3    H235442   1.192   2.044  14.477 -1.6083 -1.2754  3.1859
 4651TIP3   OH235443   6.247   0.459   2.882  0.5015 -1.0324  0.3029
 4651TIP3    H135444   6.324   0.511   2.859  1.6267 -1.7077  2.4110
 4651TIP3    H235445   6.204   0.510   2.950 -0.5523 -0.9919 -0.3914
 4652TIP3   OH235446   6.634   1.874   1.351 -0.1069  0.1996  0.5037
 4652TIP3    H135447   6.547   1.858   1.386 -0.0814  1.5534  1.2100
 4652TIP3    H235448   6.687   1.800   1.382 -0.6820  0.0755  1.1911
 4653TIP3   OH235449   3.655   1.272   0.918  0.0327  0.3535 -0.0691
 4653TIP3    H135450   3.649   1.196   0.859 -1.9852  0.7271 -0.3930
 4653TIP3    H235451   3.621   1.240   1.001  2.0050  0.0866  0.6367
 4654TIP3   OH235452   0.270   5.282   6.330  0.4307  0.1779  0.3678
 4654TIP3    H135453   0.198   5.219   6.324  0.2939  0.2195  1.5465
 4654TIP3    H235454   0.227   5.368   6.326  0.4736  0.2002  0.3982
 4655TIP3   OH235455   2.759   2.311  15.231  0.3536  0.0526 -0.4662
 4655TIP3    H135456   2.685   2.372  15.236 -2.4273 -3.3085  2.0765
 4655TIP3    H235457   2.836   2.367  15.238 -1.9542  3.4841 -0.7557
 4656TIP3   OH235458   5.575   6.022   0.850 -0.2860 -0.0792 -1.1117
 4656TIP3    H135459   5.614   6.010   0.763  2.3755 -1.1444  0.1721
 4656TIP3    H235460   5.601   5.944   0.899 -0.7783  1.0296  0.9855
 4657TIP3   OH235461   5.478   3.995   2.558  0.0914  0.0111  0.6645
 4657TIP3    H135462   5.463   3.909   2.519  0.1997 -0.2355  1.1797
 4657TIP3    H235463   5.557   4.028   2.514 -1.2527  0.8317 -1.2285
 4658TIP3   OH235464   4.911   6.091   3.200  0.1696  0.0700 -0.3960
 4658TIP3    H135465   4.915   6.095   3.105 -1.5303  1.7298 -0.4093
 4658TIP3    H235466   4.990   6.136   3.229  0.7388 -0.5218 -1.0144
 4659TIP3   OH235467   1.197   3.489  11.690  0.5973  0.0830  0.1931
 4659TIP3    H135468   1.196   3.584  11.699 -0.6068 -0.0671  1.9767
 4659TIP3    H235469   1.275   3.462  11.739  1.3088  0.1986 -0.8755
 4660TIP3   OH235470   3.139   5.561   5.616  0.7758  0.5251  0.1822
 4660TIP3    H135471   3.062   5.593   5.664  0.1114  0.4610 -0.8050
 4660TIP3    H235472   3.140   5.467   5.633  1.1624  0.6564  0.9146
 4661TIP3   OH235473   5.763   4.186  12.603 -0.2995 -0.2743  0.6030
 4661TIP3    H135474   5.732   4.178  12.513  1.8603  0.2619 -0.2137
 4661TIP3    H235475   5.752   4.279  12.625 -1.0839 -0.4568  0.9972
 4662TIP3   OH235476   0.793   1.372  12.889 -0.2678 -0.1922 -0.1739
 4662TIP3    H135477   0.717   1.429  12.883 -0.7668 -1.0556 -2.2558
 4662TIP3    H235478   0.758   1.284  12.875  1.0497 -0.6450 -0.6396
 4663TIP3   OH235479   6.073   0.976   5.366 -0.0889  0.3768  0.3279
 4663TIP3    H135480   6.035   1.044   5.310  0.6567 -0.1315 -0.8031
 4663TIP3    H235481   6.106   1.024   5.443  1.0102  1.3778 -0.7559
 4664TIP3   OH235482   6.774   1.209  11.581 -0.3297 -0.2973  0.9412
 4664TIP3    H135483   6.829   1.266  11.528 -0.6781 -0.9584 -0.1472
 4664TIP3    H235484   6.777   1.247  11.669 -2.3997  2.7149 -0.2341
 4665TIP3   OH235485   2.080   4.509  16.660 -0.0548  0.2207 -0.5993
 4665TIP3    H135486   2.089   4.581  16.598  0.0197  0.5358 -0.2262
 4665TIP3    H235487   2.025   4.544  16.730 -2.1901 -0.9135 -1.6704
 4666TIP3   OH235488   1.245   5.494   3.119 -0.3303 -0.7529  0.1277
 4666TIP3    H135489   1.215   5.464   3.033 -1.0577 -0.9548  0.4428
 4666TIP3    H235490   1.301   5.569   3.100 -0.6860 -0.6405 -0.5112
 4667TIP3   OH235491   2.936   4.081  15.729  0.3195  0.3691  0.1743
 4667TIP3    H135492   2.951   4.016  15.798 -0.3141  0.5151  0.4454
 4667TIP3    H235493   3.009   4.067  15.668 -0.3864 -1.3213 -0.3239
 4668TIP3   OH235494   3.317   2.320  15.478  0.2622 -0.0061  0.2844
 4668TIP3    H135495   3.352   2.309  15.566  1.7337  1.3471 -0.1236
 4668TIP3    H235496   3.266   2.240  15.462  0.6239 -0.5948  2.0505
 4669TIP3   OH235497   3.312   1.058  11.605 -0.2925  0.1691  0.4026
 4669TIP3    H135498   3.405   1.062  11.628 -0.4534  1.1312  0.9550
 4669TIP3    H235499   3.285   1.150  11.598 -1.1285 -0.1013 -0.0530
 4670TIP3   OH235500   0.271   2.743   5.507  0.2473 -1.0844 -0.0654
 4670TIP3    H135501   0.327   2.781   5.575  0.2507 -2.1014  0.5214
 4670TIP3    H235502   0.190   2.793   5.512 -0.3075 -2.1243  1.7284
 4671TIP3   OH235503   4.608   1.409   5.337  0.2755 -0.0660  0.3047
 4671TIP3    H135504   4.529   1.359   5.322 -0.5474  1.7244 -1.7571
 4671TIP3    H235505   4.625   1.453   5.253  0.0256  4.3141  2.3719
 4672TIP3   OH235506   2.428   1.881   3.468  1.0754 -0.6580  0.1645
 4672TIP3    H135507   2.449   1.792   3.495 -3.1443 -1.9116 -0.3017
 4672TIP3    H235508   2.401   1.924   3.549 -2.8557 -1.7407 -0.4608
 4673TIP3   OH235509   2.060   4.815  15.172 -0.7198 -0.1742  0.0092
 4673TIP3    H135510   2.097   4.803  15.085  0.6369 -1.0190  0.6730
 4673TIP3    H235511   1.981   4.761  15.172 -0.6794 -0.2360 -0.6772
 4674TIP3   OH235512   2.423   6.250  15.586 -0.6427  0.3861 -0.1730
 4674TIP3    H135513   2.408   6.247  15.680 -0.2767  0.6308 -0.1062
 4674TIP3    H235514   2.388   6.335  15.559 -2.1628 -0.3248 -0.5113
 4675TIP3   OH235515   1.386   3.668  11.389  0.3088  0.2403  0.4778
 4675TIP3    H135516   1.292   3.674  11.378  0.4736  2.1734  0.0563
 4675TIP3    H235517   1.422   3.737  11.333  2.1007 -1.8286 -1.0019
 4676TIP3   OH235518   1.411   3.888   5.880  0.6590  0.2440  0.2677
 4676TIP3    H135519   1.492   3.839   5.891  0.4670  0.1661  1.3624
 4676TIP3    H235520   1.386   3.873   5.789  0.0763 -2.5527  0.8445
 4677TIP3   OH235521   1.088   3.899  13.814 -1.0708  0.0201  0.0644
 4677TIP3    H135522   1.101   3.992  13.799 -0.7010  0.1399  1.0785
 4677TIP3    H235523   1.003   3.880  13.774 -2.2270  1.2773  1.8082
 4678TIP3   OH235524   6.782   1.962   5.437  0.0960  0.0440 -0.0813
 4678TIP3    H135525   6.736   2.041   5.467  1.0789  1.0263 -1.0920
 4678TIP3    H235526   6.786   1.972   5.341 -0.9045 -1.8703 -0.3346
 4679TIP3   OH235527   2.152   0.546   5.781 -0.1000  0.3205  0.4233
 4679TIP3    H135528   2.221   0.489   5.815 -0.7237 -0.5471  0.2312
 4679TIP3    H235529   2.089   0.552   5.853 -1.4707 -1.5937 -0.5978
 4680TIP3   OH235530   5.166   1.461   0.905 -0.0094 -0.6184 -0.0416
 4680TIP3    H135531   5.242   1.440   0.852 -1.2084 -0.7402 -1.7421
 4680TIP3    H235532   5.177   1.554   0.927  1.1310 -0.8940  0.5791
 4681TIP3   OH235533   4.937   1.942  12.968 -0.6825 -0.1340 -0.0984
 4681TIP3    H135534   4.949   2.019  12.912 -0.5109  0.0211  0.1539
 4681TIP3    H235535   4.967   1.869  12.914  1.5656  0.2465  0.5438
 4682TIP3   OH235536   0.172   6.160  13.268 -0.2214  0.2809  0.0326
 4682TIP3    H135537   0.083   6.158  13.305  0.2637 -1.6995  1.1334
 4682TIP3    H235538   0.228   6.129  13.339  0.9539 -1.8464 -1.7916
 4683TIP3   OH235539   0.982   0.684  12.527  0.1903  0.2795  0.1531
 4683TIP3    H135540   1.076   0.681  12.546  0.0577 -1.1247  0.6642
 4683TIP3    H235541   0.963   0.599  12.486 -0.5349  1.2236 -1.5196
 4684TIP3   OH235542   4.596   4.660   0.986 -0.2507  0.0216  0.1500
 4684TIP3    H135543   4.550   4.686   0.906  1.4592  0.0917 -0.8343
 4684TIP3    H235544   4.646   4.582   0.961  0.3940  0.1183  1.1177
 4685TIP3   OH235545   1.990   5.003   4.047  0.0381  0.7428 -0.1545
 4685TIP3    H135546   2.077   4.967   4.029  0.4648  1.9822 -0.6151
 4685TIP3    H235547   1.946   5.005   3.962 -0.5909 -0.2262  0.1334
 4686TIP3   OH235548   1.015   0.629   2.360  0.1558  0.3590 -0.3009
 4686TIP3    H135549   1.071   0.598   2.289 -0.3195  0.9838 -0.9529
 4686TIP3    H235550   0.997   0.720   2.338 -0.5164  0.3706  0.2927
 4687TIP3   OH235551   1.713   0.076  11.562  1.0305  0.4290  0.1764
 4687TIP3    H135552   1.778   0.007  11.572  0.0158 -0.5955 -0.1883
 4687TIP3    H235553   1.644   0.036  11.509  0.3933  1.6979  0.0317
 4688TIP3   OH235554   0.221   5.397   1.663 -0.6198  0.2097 -0.3576
 4688TIP3    H135555   0.271   5.335   1.715  0.6641  0.3998 -1.3460
 4688TIP3    H235556   0.228   5.480   1.710 -0.8286  0.0109  0.0202
 4689TIP3   OH235557   1.842   2.454   1.835 -0.1964  0.3464 -0.0018
 4689TIP3    H135558   1.839   2.374   1.888  0.3106  0.4830  0.2264
 4689TIP3    H235559   1.884   2.519   1.891 -0.0879  0.6190 -0.3992
 4690TIP3   OH235560   2.054   2.853   4.584 -0.2965  0.0170  0.4508
 4690TIP3    H135561   2.084   2.807   4.663  0.7757  1.0866  0.6905
 4690TIP3    H235562   1.962   2.872   4.601 -0.3645 -0.7556  0.9669
 4691TIP3   OH235563   0.984   0.555  16.854 -0.0498  0.3243  0.0708
 4691TIP3    H135564   0.940   0.626  16.899  1.1230  1.6413 -0.8205
 4691TIP3    H235565   1.073   0.588  16.837  0.2808 -1.0471 -1.0113
 4692TIP3   OH235566   1.591   2.508  12.903  0.0315 -0.0466  0.3494
 4692TIP3    H135567   1.633   2.562  12.970 -2.3013  0.0968  1.7442
 4692TIP3    H235568   1.529   2.453  12.951 -0.9653 -0.6686 -1.5821
 4693TIP3   OH235569   2.828   4.041  13.924 -0.1332  0.0663  0.4991
 4693TIP3    H135570   2.805   4.009  13.837 -0.3257 -1.1053  0.9734
 4693TIP3    H235571   2.922   4.024  13.932 -0.1046  0.2225  0.5018
 4694TIP3   OH235572   3.354   1.348   3.324 -0.0550  0.2570  0.1956
 4694TIP3    H135573   3.280   1.403   3.349  0.5690  0.8869  0.6616
 4694TIP3    H235574   3.314   1.262   3.306 -0.8049  0.3844  1.1735
 4695TIP3   OH235575   5.108   1.791  11.284  0.1456  0.1467  0.0232
 4695TIP3    H135576   5.083   1.810  11.375  1.6180 -0.0295  0.4858
 4695TIP3    H235577   5.025   1.774  11.239 -1.1058  5.4177  0.0650
 4696TIP3   OH235578   3.309   4.644  13.261 -0.0921  0.0615 -0.4330
 4696TIP3    H135579   3.283   4.651  13.353  1.6842 -0.0523  0.0891
 4696TIP3    H235580   3.295   4.732  13.226  1.4927  0.7219  0.5642
 4697TIP3   OH235581   4.424   1.172  11.689 -0.5139  0.2587  0.1457
 4697TIP3    H135582   4.422   1.253  11.739 -1.4972  0.6049 -0.4521
 4697TIP3    H235583   4.512   1.137  11.704 -0.3003  1.1042  0.9120
 4698TIP3   OH235584   3.590   5.815   1.865 -1.0604 -0.5646 -0.0912
 4698TIP3    H135585   3.684   5.808   1.881 -0.9333 -1.1443 -1.0142
 4698TIP3    H235586   3.553   5.841   1.949  0.1506  1.6612 -0.1972
 4699TIP3   OH235587   6.107   6.550   5.304 -0.6956 -0.1908 -0.4907
 4699TIP3    H135588   6.063   6.520   5.383 -0.3083 -0.5196 -0.3995
 4699TIP3    H235589   6.127   6.471   5.255  1.4701 -0.2065  0.3596
 4700TIP3   OH235590   4.296   1.840  11.121  0.2013 -0.0665 -0.3642
 4700TIP3    H135591   4.364   1.822  11.056  0.3166  1.1563 -0.5904
 4700TIP3    H235592   4.344   1.855  11.202  0.3817  2.8704 -0.9549
 4701TIP3   OH235593   2.148   1.600  17.104 -0.7944  0.1164  0.7937
 4701TIP3    H135594   2.146   1.510  17.071 -0.6438 -0.0408  1.2159
 4701TIP3    H235595   2.116   1.594  17.194 -0.9447  0.5114  0.7705
 4702TIP3   OH235596   4.738   1.651   3.029  0.1739 -0.7519 -0.0664
 4702TIP3    H135597   4.720   1.559   3.013 -2.8543 -0.0287 -1.1532
 4702TIP3    H235598   4.778   1.653   3.117  1.5939 -3.1741 -0.6226
 4703TIP3   OH235599   6.433   6.048  16.915  0.4194  0.6427  0.5528
 4703TIP3    H135600   6.519   6.068  16.953  1.4920 -0.6284 -1.1520
 4703TIP3    H235601   6.373   6.105  16.963  1.9726  0.3798  2.9226
 4704TIP3   OH235602   4.495   1.321   0.449  0.2178  0.0299 -0.1041
 4704TIP3    H135603   4.424   1.385   0.438 -0.4011 -0.8715 -1.6095
 4704TIP3    H235604   4.466   1.264   0.520 -0.5530 -0.3095 -0.6892
 4705TIP3   OH235605   2.470   4.864   1.454  0.1717 -0.3369  0.3590
 4705TIP3    H135606   2.517   4.780   1.456  1.1137  0.1968  1.9117
 4705TIP3    H235607   2.406   4.854   1.384  2.0164 -1.4211 -1.2441
 4706TIP3   OH235608   4.706   0.861   0.385  0.0444  0.1856  0.1870
 4706TIP3    H135609   4.792   0.861   0.427  0.3821 -0.3344 -0.4987
 4706TIP3    H235610   4.644   0.874   0.457  0.5362 -1.8263  0.9871
 4707TIP3   OH235611   3.614   4.665   3.999 -0.6292 -0.2333  0.0516
 4707TIP3    H135612   3.625   4.605   4.073 -1.4631  0.6489  0.9004
 4707TIP3    H235613   3.641   4.614   3.922 -0.1053 -1.2709  0.9170
 4708TIP3   OH235614   1.085   6.804   2.754  0.2798 -0.0198  0.0517
 4708TIP3    H135615   1.064   6.813   2.847  0.2910  0.0614  0.0460
 4708TIP3    H235616   1.172   6.842   2.745  0.0384  0.4994 -0.0992
 4709TIP3   OH235617   2.527   2.306   2.792 -0.1471 -0.6756 -0.1878
 4709TIP3    H135618   2.540   2.310   2.886 -2.4582 -0.0662  0.1212
 4709TIP3    H235619   2.584   2.375   2.757  0.4697 -0.6909  0.7678
 4710TIP3   OH235620   3.934   3.662  13.203 -0.0007  0.2565 -0.2016
 4710TIP3    H135621   3.898   3.579  13.172 -0.4119  0.4711 -0.3040
 4710TIP3    H235622   3.861   3.706  13.246  0.1995  0.5916 -0.1972
 4711TIP3   OH235623   6.441   4.626  12.340  0.1592  0.1916 -0.1561
 4711TIP3    H135624   6.518   4.682  12.350  1.6662 -1.8532  0.1134
 4711TIP3    H235625   6.451   4.586  12.254  0.4946 -1.5957  0.6703
 4712TIP3   OH235626   5.169   5.048  17.188 -0.2075  0.5584  0.2755
 4712TIP3    H135627   5.150   5.128  17.238 -1.3041  1.2717 -1.2245
 4712TIP3    H235628   5.149   4.977  17.249 -0.0060  1.4099  1.3645
 4713TIP3   OH235629   2.973   2.568   2.348 -0.3190 -0.2508  0.0890
 4713TIP3    H135630   3.050   2.533   2.304 -1.1541 -1.9699 -0.0628
 4713TIP3    H235631   2.984   2.541   2.440 -0.5723 -0.1957  0.1353
 4714TIP3   OH235632   3.141   4.575  12.227 -0.5911  0.4083  0.4916
 4714TIP3    H135633   3.187   4.659  12.225 -0.8343  0.5248 -2.2638
 4714TIP3    H235634   3.205   4.513  12.260  0.7745  1.0439 -0.9156
 4715TIP3   OH235635   4.678   0.609  15.254  0.4791 -0.0554  0.5606
 4715TIP3    H135636   4.668   0.671  15.182  3.1128 -1.1340 -0.7950
 4715TIP3    H235637   4.671   0.522  15.213  1.0411 -0.6853  1.7579
 4716TIP3   OH235638   4.573   3.434  15.866 -0.4617  0.2932 -0.3843
 4716TIP3    H135639   4.579   3.502  15.799 -0.0912  0.0904 -0.5610
 4716TIP3    H235640   4.637   3.368  15.839  0.4960  0.7300  0.7753
 4717TIP3   OH235641   0.976   6.351   3.125 -0.3376  0.0702  0.5321
 4717TIP3    H135642   0.909   6.384   3.066 -1.3157 -0.1634  1.4920
 4717TIP3    H235643   0.933   6.348   3.211  1.2277  0.9755  1.3747
 4718TIP3   OH235644   5.026   0.365  11.245  0.1738 -0.1467 -0.1609
 4718TIP3    H135645   5.007   0.271  11.238 -1.9646  0.1807  0.8962
 4718TIP3    H235646   4.972   0.395  11.317  2.5328  1.4973  0.9730
 4719TIP3   OH235647   6.095   0.854   3.198 -0.6306 -0.1161 -0.0571
 4719TIP3    H135648   6.143   0.915   3.142  1.2750  1.3463  3.0508
 4719TIP3    H235649   6.020   0.905   3.230 -1.2327 -0.6830 -0.5390
 4720TIP3   OH235650   3.640   0.299   0.633  0.5459 -0.1470 -0.1688
 4720TIP3    H135651   3.681   0.235   0.691  1.6543 -1.0110 -1.8719
 4720TIP3    H235652   3.567   0.252   0.593 -0.0615  0.3714  0.3187
 4721TIP3   OH235653   6.259   6.404  11.348  0.1296 -0.1461  0.1185
 4721TIP3    H135654   6.275   6.340  11.279  2.1609  0.1474  0.2874
 4721TIP3    H235655   6.240   6.486  11.301 -0.1386 -0.3194 -0.0797
 4722TIP3   OH235656   5.673   1.904   5.838 -0.2524 -0.4928  0.0388
 4722TIP3    H135657   5.631   1.832   5.886 -0.3164  0.8030  1.9800
 4722TIP3    H235658   5.749   1.926   5.890 -0.2015  0.8186 -0.5697
 4723TIP3   OH235659   1.574   4.617   5.331  0.1391  0.6203  0.1154
 4723TIP3    H135660   1.656   4.568   5.319 -0.1601  0.2245 -0.3395
 4723TIP3    H235661   1.523   4.564   5.392  0.0569  0.6565  0.0779
 4724TIP3   OH235662   3.635   2.921  15.468 -0.8975  0.0637 -0.4989
 4724TIP3    H135663   3.554   2.872  15.459 -0.1244 -1.4908  0.7582
 4724TIP3    H235664   3.625   2.969  15.550  0.8602 -2.9725  1.5864
 4725TIP3   OH235665   1.752   6.619   4.179 -0.0190 -0.5862 -0.3227
 4725TIP3    H135666   1.665   6.624   4.139  0.1031  2.8510 -0.2622
 4725TIP3    H235667   1.741   6.555   4.250 -2.2500 -0.9408 -0.9382
 4726TIP3   OH235668   3.644   3.917  16.534 -0.2317  0.5912  0.3412
 4726TIP3    H135669   3.691   3.977  16.591  1.7216  0.9171 -1.5543
 4726TIP3    H235670   3.696   3.836  16.536  0.2417  0.8258 -1.4746
 4727TIP3   OH235671   0.471   3.925   5.754 -0.4517 -0.2184  0.3631
 4727TIP3    H135672   0.554   3.911   5.709 -0.6617 -0.5578  0.0804
 4727TIP3    H235673   0.453   3.843   5.799  0.8644  0.8265  2.9256
 4728TIP3   OH235674   6.487   2.203   4.061  0.2135 -0.0604  0.2595
 4728TIP3    H135675   6.533   2.119   4.049 -1.0012 -0.5410 -1.1378
 4728TIP3    H235676   6.482   2.213   4.156  1.3584 -1.0177  0.4446
 4729TIP3   OH235677   0.834   1.321  14.696 -0.2610  0.7224  0.4320
 4729TIP3    H135678   0.920   1.318  14.653 -0.2636 -1.2217  0.5382
 4729TIP3    H235679   0.851   1.291  14.785 -1.1470 -0.2450  0.2772
 4730TIP3   OH235680   5.159   2.662  13.663  0.0987 -0.1286  0.7588
 4730TIP3    H135681   5.213   2.590  13.632 -2.7272 -1.5035 -1.2945
 4730TIP3    H235682   5.153   2.721  13.588 -0.6888  0.3195  1.1613
 4731TIP3   OH235683   5.585   2.939  12.545  0.4951 -0.1862  0.5666
 4731TIP3    H135684   5.585   2.887  12.625 -0.1145 -1.4258 -0.2349
 4731TIP3    H235685   5.626   2.883  12.479  0.7743  0.7326 -0.0567
 4732TIP3   OH235686   1.220   6.176   1.195  0.4283  0.4101  0.4595
 4732TIP3    H135687   1.190   6.243   1.133 -0.6223  1.5904  2.2136
 4732TIP3    H235688   1.313   6.164   1.173 -0.0398  0.4231 -1.6750
 4733TIP3   OH235689   6.322   1.288   2.587 -0.0418  0.8120  0.0254
 4733TIP3    H135690   6.261   1.220   2.616  1.3573 -0.1127  0.9263
 4733TIP3    H235691   6.340   1.266   2.496  0.2157  0.0928  0.2416
 4734TIP3   OH235692   0.367   1.592   2.648  0.2294 -0.2913 -0.8239
 4734TIP3    H135693   0.305   1.661   2.672  0.6445 -1.0897  2.8569
 4734TIP3    H235694   0.448   1.639   2.627 -0.2045  0.4672 -0.8130
 4735TIP3   OH235695   2.864   0.837   3.268  0.3592 -0.0707  0.0434
 4735TIP3    H135696   2.872   0.809   3.177 -2.2523  0.6797 -0.4751
 4735TIP3    H235697   2.884   0.930   3.267 -0.7044  0.1724  0.0164
 4736TIP3   OH235698   0.792   1.468   5.892  0.0855  0.0196 -0.3827
 4736TIP3    H135699   0.700   1.445   5.901 -0.4319  1.4640 -1.7986
 4736TIP3    H235700   0.794   1.563   5.889  1.6044  0.0065 -0.6098
 4737TIP3   OH235701   3.278   4.967  14.026 -0.2824 -0.4558  0.5083
 4737TIP3    H135702   3.358   4.931  14.065  0.1264  1.6440  1.6494
 4737TIP3    H235703   3.298   5.059  14.010 -1.2398 -0.7275 -2.5905
 4738TIP3   OH235704   0.825   4.131  10.961 -0.3449 -0.6447 -0.2498
 4738TIP3    H135705   0.875   4.074  11.019 -0.4443 -0.8542 -0.3667
 4738TIP3    H235706   0.821   4.083  10.878  2.9054  1.2406 -1.5693
 4739TIP3   OH235707   0.986   1.646  13.099  0.0177 -0.2233 -0.6185
 4739TIP3    H135708   0.935   1.676  13.024  2.1234  1.5149 -1.3880
 4739TIP3    H235709   1.077   1.665  13.076  0.7818 -0.5540  1.9643
 4740TIP3   OH235710   5.163   0.723   4.241  0.1399  0.7665 -0.0634
 4740TIP3    H135711   5.137   0.667   4.315 -0.8481  0.3343 -0.7284
 4740TIP3    H235712   5.209   0.796   4.282 -1.0065  0.8883  1.0459
 4741TIP3   OH235713   3.501   0.416   4.224 -0.1266 -0.3699  0.2886
 4741TIP3    H135714   3.442   0.416   4.300 -0.4865 -1.2492  0.0082
 4741TIP3    H235715   3.532   0.507   4.218 -0.3374 -0.2237  1.2980
 4742TIP3   OH235716   0.428   4.294   3.122  0.1877  0.1554  0.3128
 4742TIP3    H135717   0.351   4.328   3.075  0.6446  1.6350  0.6414
 4742TIP3    H235718   0.463   4.227   3.063 -1.5770 -0.8402  0.3342
 4743TIP3   OH235719   5.665   2.285   1.749  0.4239  0.3137  0.3521
 4743TIP3    H135720   5.617   2.367   1.756 -0.3678 -0.3211  2.8232
 4743TIP3    H235721   5.653   2.242   1.833  0.6773 -2.4469 -0.9458
 4744TIP3   OH235722   4.493   2.819   2.882 -0.4602  0.6621  0.0958
 4744TIP3    H135723   4.484   2.885   2.813  2.0954  2.0341  0.9983
 4744TIP3    H235724   4.544   2.863   2.950  0.5491 -1.9705  1.0855
 4745TIP3   OH235725   4.639   6.328  11.842 -0.4607 -0.1479 -0.3644
 4745TIP3    H135726   4.705   6.362  11.902  0.1901  0.4745 -1.4206
 4745TIP3    H235727   4.561   6.382  11.859 -0.2267  0.1413 -0.2037
 4746TIP3   OH235728   1.143   3.124   1.673  0.1847 -0.3077  0.2065
 4746TIP3    H135729   1.059   3.079   1.663 -0.1727  0.0710  1.4995
 4746TIP3    H235730   1.147   3.184   1.598 -0.4379 -0.7244 -0.1650
 4747TIP3   OH235731   5.945   0.007   3.820  0.6043  0.0751 -0.0037
 4747TIP3    H135732   5.989  -0.053   3.759  0.6397  0.3251 -0.2220
 4747TIP3    H235733   5.863  -0.037   3.842  0.6739 -0.0977 -0.0910
 4748TIP3   OH235734   2.312   0.275   0.121 -0.1422  0.3466  0.1112
 4748TIP3    H135735   2.337   0.342   0.185 -1.7874  0.2961  0.8229
 4748TIP3    H235736   2.344   0.310   0.037  1.5453  0.6623  0.8711
 4749TIP3   OH235737   4.662   0.178  14.277 -0.3061 -0.4258 -0.0929
 4749TIP3    H135738   4.734   0.193  14.339 -1.4034 -1.6878  1.5361
 4749TIP3    H235739   4.643   0.085  14.284 -2.4789 -0.0134 -0.0460
 4750TIP3   OH235740   4.859   1.655   4.168  0.1572  0.0009 -0.4598
 4750TIP3    H135741   4.919   1.702   4.109 -0.1585  0.2712 -0.5663
 4750TIP3    H235742   4.917   1.601   4.222  0.6268  1.3967  0.4615
 4751TIP3   OH235743   4.857   0.385  12.956  0.0686  0.1281  0.6284
 4751TIP3    H135744   4.843   0.333  13.035 -2.2435  0.8118  0.7090
 4751TIP3    H235745   4.882   0.472  12.989 -0.1815  0.2135  0.5946
 4752TIP3   OH235746   4.614   2.614  14.143  0.0922  0.2362  0.6109
 4752TIP3    H135747   4.645   2.554  14.075  3.0523  0.5397  1.6315
 4752TIP3    H235748   4.651   2.699  14.118 -1.3614  0.9967  0.9636
 4753TIP3   OH235749   1.259   1.715  13.884  0.2981  0.5452  0.5171
 4753TIP3    H135750   1.170   1.721  13.849  0.5603  1.3132 -0.0249
 4753TIP3    H235751   1.316   1.733  13.809  0.9711 -2.0422  0.3731
 4754TIP3   OH235752   4.267   6.322   4.952 -0.2246  0.2380  0.5826
 4754TIP3    H135753   4.283   6.276   4.869 -1.1578  0.5890  0.2036
 4754TIP3    H235754   4.354   6.336   4.988  0.1019 -1.7311  0.6459
 4755TIP3   OH235755   0.492   4.829  11.887 -0.6814  0.1749 -0.2161
 4755TIP3    H135756   0.515   4.759  11.949 -1.8456  0.4526  0.5489
 4755TIP3    H235757   0.576   4.859  11.853  0.0700  0.6177  1.9152
 4756TIP3   OH235758   1.542   3.242  14.557 -0.3569 -0.3917 -0.7070
 4756TIP3    H135759   1.469   3.264  14.498 -0.2508 -0.5910 -0.9136
 4756TIP3    H235760   1.604   3.314  14.544  0.2860 -1.1419 -1.8785
 4757TIP3   OH235761   3.661   6.302  16.861 -0.1854  0.2907  0.1353
 4757TIP3    H135762   3.677   6.256  16.779 -1.2406 -0.8831  0.5649
 4757TIP3    H235763   3.571   6.333  16.855  0.0164  0.9542  0.4899
 4758TIP3   OH235764   3.267   1.927   2.635  0.6096 -0.5830  0.0596
 4758TIP3    H135765   3.181   1.964   2.655  1.3500  0.0785  2.1256
 4758TIP3    H235766   3.253   1.833   2.631 -0.1350 -0.5032  0.7447
 4759TIP3   OH235767   1.233   2.621   3.854  0.4298  0.4484 -0.2087
 4759TIP3    H135768   1.233   2.684   3.782  0.4964  1.3341  0.5558
 4759TIP3    H235769   1.147   2.633   3.896  0.4392  0.0213 -0.0629
 4760TIP3   OH235770   4.475   5.658   1.090 -0.4288 -0.2681  0.0191
 4760TIP3    H135771   4.433   5.584   1.134 -0.9603 -0.7762 -1.3322
 4760TIP3    H235772   4.444   5.654   1.000  0.6255  0.7879 -0.4112
 4761TIP3   OH235773   0.134   0.868   0.180  0.3101  0.4128  0.3678
 4761TIP3    H135774   0.139   0.851   0.274  0.9722  0.0392  0.2680
 4761TIP3    H235775   0.058   0.925   0.170 -0.4693 -0.4913  1.0040
 4762TIP3   OH235776   1.642   4.624   5.981 -0.0255 -0.1611 -0.9001
 4762TIP3    H135777   1.690   4.545   5.956  0.7245 -0.1897  0.5452
 4762TIP3    H235778   1.709   4.693   5.986  0.1832 -0.4826  2.4088
 4763TIP3   OH235779   3.984   3.891  17.252 -0.4442 -0.1709  0.0180
 4763TIP3    H135780   3.992   3.843  17.334 -0.8623  2.7557  1.8228
 4763TIP3    H235781   4.073   3.919  17.232 -0.4267 -0.4038 -0.2270
 4764TIP3   OH235782   6.688   1.128  16.951 -0.0137  0.3180 -0.0242
 4764TIP3    H135783   6.643   1.109  16.869  0.7160  0.3094 -0.4347
 4764TIP3    H235784   6.693   1.043  16.996 -2.2851  0.7125  1.0030
 4765TIP3   OH235785   3.928   5.275   2.523 -0.3646 -0.3138  0.3773
 4765TIP3    H135786   3.980   5.334   2.576 -1.0212  1.5773 -1.0373
 4765TIP3    H235787   3.843   5.273   2.566 -0.2017 -0.6131  0.6905
 4766TIP3   OH235788   6.228   3.599  12.649 -0.0058 -0.1130  0.9844
 4766TIP3    H135789   6.148   3.636  12.687 -0.8117 -0.5881 -0.2300
 4766TIP3    H235790   6.216   3.504  12.656  0.9275 -0.1842  1.7603
 4767TIP3   OH235791   2.771   3.244  17.081 -0.1142  0.1015 -0.4491
 4767TIP3    H135792   2.734   3.202  17.004 -2.3546  1.6209 -0.2606
 4767TIP3    H235793   2.770   3.176  17.149 -0.8354 -0.4068 -0.9636
 4768TIP3   OH235794   1.464   1.265   6.232  0.2526  0.0615  0.0091
 4768TIP3    H135795   1.529   1.329   6.204  0.2212  0.4421  0.7963
 4768TIP3    H235796   1.508   1.180   6.225  0.0771  0.0994 -1.6829
 4769TIP3   OH235797   2.807   5.532  14.629 -0.1544 -0.1550  0.5492
 4769TIP3    H135798   2.779   5.611  14.675  0.5356  0.4791 -0.1138
 4769TIP3    H235799   2.852   5.480  14.696 -0.0575  0.3007  0.8419
 4770TIP3   OH235800   6.294   4.673   4.258 -0.1459  0.2291 -0.0348
 4770TIP3    H135801   6.370   4.708   4.304  0.2136  0.5052 -0.8424
 4770TIP3    H235802   6.329   4.641   4.175 -0.6597 -0.9911  0.2077
 4771TIP3   OH235803   1.881   0.776  14.599 -0.3694  0.4252 -0.0768
 4771TIP3    H135804   1.889   0.817  14.685 -0.9859  0.2741  0.0638
 4771TIP3    H235805   1.815   0.828  14.553  1.5284  1.8246 -1.2826
 4772TIP3   OH235806   2.585   1.424  11.279 -0.0742  0.5860 -0.7700
 4772TIP3    H135807   2.560   1.497  11.222 -1.3663  0.6175 -0.1904
 4772TIP3    H235808   2.659   1.457  11.329 -1.1663  1.8251  0.0878
 4773TIP3   OH235809   4.498   2.284  16.324 -0.2034  0.5829 -0.7144
 4773TIP3    H135810   4.574   2.336  16.299  2.8215 -1.6729  3.2332
 4773TIP3    H235811   4.518   2.195  16.296 -1.0539 -0.1433  0.8697
 4774TIP3   OH235812   4.703   4.645  13.439 -0.5373 -0.4115  0.0168
 4774TIP3    H135813   4.751   4.721  13.472  0.3040  0.4343 -2.9803
 4774TIP3    H235814   4.614   4.678  13.423 -0.3249 -0.1727 -0.7246
 4775TIP3   OH235815   3.243   3.977   1.469  0.5024  0.0498  0.1461
 4775TIP3    H135816   3.244   3.957   1.562 -1.0504 -0.1631  0.1216
 4775TIP3    H235817   3.188   4.055   1.461  0.6463  0.0814 -0.5970
 4776TIP3   OH235818   4.946   4.495  14.477  0.4268  0.1563  0.0199
 4776TIP3    H135819   4.981   4.479  14.389  0.3245  1.8398 -0.3565
 4776TIP3    H235820   5.020   4.533  14.525 -0.0884  1.1731  0.0295
 4777TIP3   OH235821   2.315   1.922  15.304 -0.4302  0.0285 -0.1246
 4777TIP3    H135822   2.269   1.873  15.372 -1.2841 -0.8944 -1.3463
 4777TIP3    H235823   2.313   2.013  15.334  2.6506 -0.8192  2.9978
 4778TIP3   OH235824   3.644   1.234   2.897  0.1478 -0.0938 -0.2674
 4778TIP3    H135825   3.603   1.159   2.940  0.3652 -0.7301 -1.1347
 4778TIP3    H235826   3.586   1.254   2.823 -0.2365  0.9929  0.3278
 4779TIP3   OH235827   5.156   0.926   0.020  0.4021 -0.0169  0.1008
 4779TIP3    H135828   5.244   0.892   0.034  0.3307  0.0141  0.6303
 4779TIP3    H235829   5.144   0.924  -0.075  0.9988  0.0449  0.0238
 4780TIP3   OH235830   3.699   1.207  17.084  0.2254  0.1887  0.4654
 4780TIP3    H135831   3.780   1.163  17.108 -0.2968  0.2204  2.3911
 4780TIP3    H235832   3.640   1.137  17.057  0.6130  0.0850 -0.1192
 4781TIP3   OH235833   4.871   0.878   1.240  0.1340  0.0007  0.3546
 4781TIP3    H135834   4.934   0.927   1.293 -0.1510 -0.8344  1.5018
 4781TIP3    H235835   4.801   0.941   1.222  0.0743  0.2205  1.2857
 4782TIP3   OH235836   0.180   6.403   5.494  0.4438  0.1271  0.6676
 4782TIP3    H135837   0.116   6.462   5.534 -0.4789 -0.9644  0.8273
 4782TIP3    H235838   0.175   6.423   5.400  0.7863  0.9297  0.8201
 4783TIP3   OH235839   6.035   4.530   6.618 -0.5961 -0.0369 -0.1960
 4783TIP3    H135840   5.993   4.456   6.575  0.9640 -0.9158 -0.2598
 4783TIP3    H235841   5.990   4.607   6.583  0.7877 -0.6970 -3.6399
 4784TIP3   OH235842   5.259   3.565   1.885 -0.1345  0.2584  0.5115
 4784TIP3    H135843   5.344   3.525   1.902 -0.0997  0.3064  0.4533
 4784TIP3    H235844   5.214   3.563   1.969  0.6743  2.0092  1.0284
 4785TIP3   OH235845   4.561   3.250   3.663 -0.2552  0.2686 -0.1841
 4785TIP3    H135846   4.628   3.242   3.731 -0.4514  2.4062  0.2911
 4785TIP3    H235847   4.597   3.314   3.602 -1.0134 -0.0669 -0.9920
 4786TIP3   OH235848   2.805   2.293  14.756 -0.3229 -0.3958  0.3069
 4786TIP3    H135849   2.764   2.286  14.670  0.2734 -1.0438  0.0674
 4786TIP3    H235850   2.802   2.204  14.792  0.6592 -0.4086  0.3793
 4787TIP3   OH235851   0.656   0.103  17.166 -0.1379 -0.0156  0.3492
 4787TIP3    H135852   0.632   0.024  17.215 -0.4030 -0.1176  0.0537
 4787TIP3    H235853   0.576   0.156  17.164 -0.1063  0.0221  0.0886
 4788TIP3   OH235854   2.033   3.141   3.595 -0.4103  0.3973 -0.0218
 4788TIP3    H135855   1.943   3.107   3.592 -0.4279  0.4464 -0.0587
 4788TIP3    H235856   2.026   3.223   3.643 -0.1521 -0.2967  1.2279
 4789TIP3   OH235857   0.040   3.099   1.424 -0.0807 -0.2516 -0.0363
 4789TIP3    H135858  -0.001   3.070   1.507  0.2580 -1.9814 -0.4457
 4789TIP3    H235859   0.131   3.117   1.447 -0.9483  3.4336  0.8399
 4790TIP3   OH235860   3.413   6.735   3.698  0.3074 -0.3247 -0.0336
 4790TIP3    H135861   3.430   6.708   3.789  1.3542 -2.4473 -0.8322
 4790TIP3    H235862   3.406   6.830   3.703  0.9021 -0.3587  2.1989
 4791TIP3   OH235863   4.815   4.556  16.828  0.3673  0.0570 -0.3791
 4791TIP3    H135864   4.816   4.461  16.820  1.2091  0.0775 -0.5983
 4791TIP3    H235865   4.794   4.587  16.740  1.1128  0.0884 -0.5537
 4792TIP3   OH235866   3.324   0.479  11.884  0.0811 -0.8089  0.1720
 4792TIP3    H135867   3.356   0.537  11.954 -0.1671 -0.2956 -0.1376
 4792TIP3    H235868   3.326   0.391  11.922  0.8563 -0.6475  0.5091
 4793TIP3   OH235869   6.157   3.162   4.282  0.4374  0.2669 -0.1872
 4793TIP3    H135870   6.191   3.076   4.258  2.7559  1.1569 -0.1679
 4793TIP3    H235871   6.164   3.214   4.202  2.0141  1.3346  0.6279
 4794TIP3   OH235872   2.516   3.889   2.341 -0.1681  0.3297 -0.0565
 4794TIP3    H135873   2.565   3.816   2.302  0.8553  1.4973 -0.9900
 4794TIP3    H235874   2.580   3.960   2.347 -1.2861  1.3033  0.3936
 4795TIP3   OH235875   5.283   3.068  11.510 -0.0629 -0.1952 -0.1800
 4795TIP3    H135876   5.212   3.004  11.523  0.9142 -1.4664 -0.9756
 4795TIP3    H235877   5.351   3.019  11.464  1.1248  1.1640  0.1049
 4796TIP3   OH235878   5.470   3.672   6.317  0.2371  0.4753  0.0317
 4796TIP3    H135879   5.386   3.693   6.358  0.1051 -0.1585  0.0871
 4796TIP3    H235880   5.479   3.577   6.326  1.5342  0.6757  1.1360
 4797TIP3   OH235881   4.477   5.315   2.386  0.0330 -0.3342  0.6076
 4797TIP3    H135882   4.410   5.283   2.447 -1.4207 -0.6825 -1.1506
 4797TIP3    H235883   4.470   5.410   2.390 -0.0702 -0.3575  0.9757
 4798TIP3   OH235884   2.527   2.897   2.652  0.0330  0.0928  0.6584
 4798TIP3    H135885   2.461   2.884   2.720 -0.1971  0.2792  0.4721
 4798TIP3    H235886   2.482   2.877   2.571  0.3610 -0.3063  0.5749
 4799TIP3   OH235887   5.296   1.319   1.477 -0.0454 -0.2468 -0.0930
 4799TIP3    H135888   5.279   1.342   1.386 -0.1468  0.3523  0.0758
 4799TIP3    H235889   5.317   1.225   1.475  0.7072 -0.0660 -0.8261
 4800TIP3   OH235890   1.896   6.419  14.778 -0.2854 -0.1612  0.2552
 4800TIP3    H135891   1.816   6.455  14.740 -0.1472 -2.0080 -1.9109
 4800TIP3    H235892   1.905   6.333  14.737  1.1529 -1.2639  2.7934
 4801TIP3   OH235893   2.987   2.411   2.815  0.4106  1.1242  0.2009
 4801TIP3    H135894   2.922   2.447   2.875  0.3494 -0.2122  0.9785
 4801TIP3    H235895   3.029   2.340   2.865  0.2838 -0.0924 -1.3715
 4802TIP3   OH235896   2.239   2.796  14.028  0.1836 -0.7635  0.0860
 4802TIP3    H135897   2.210   2.799  14.120  0.6426  2.1853  0.1801
 4802TIP3    H235898   2.198   2.872  13.988  0.0961 -1.9674 -2.1567
 4803TIP3   OH235899   0.039   3.495  12.655 -0.3246  0.6678 -0.3336
 4803TIP3    H135900   0.126   3.522  12.625 -0.2563 -0.0517 -0.7960
 4803TIP3    H235901   0.036   3.401  12.639 -0.6872  0.4523  0.9421
 4804TIP3   OH235902   5.828   0.210  14.210  0.4110  0.4815  0.8023
 4804TIP3    H135903   5.894   0.163  14.261 -0.2238 -0.5588  0.6844
 4804TIP3    H235904   5.807   0.150  14.138 -1.5502  0.2947  1.5202
 4805TIP3   OH235905   3.597   6.563  16.387  0.1289  0.6509 -0.0285
 4805TIP3    H135906   3.647   6.493  16.345  2.2805  0.9448  1.9313
 4805TIP3    H235907   3.617   6.641  16.336  0.1077  0.3930 -0.4330
 4806TIP3   OH235908   2.750   2.869  13.266 -0.6253  0.4114  0.4141
 4806TIP3    H135909   2.726   2.849  13.357  0.9639 -0.8043  0.5995
 4806TIP3    H235910   2.842   2.895  13.271 -0.5656  0.4543 -0.8257
 4807TIP3   OH235911   5.489   3.370   5.136  0.3856 -0.0992  0.3073
 4807TIP3    H135912   5.549   3.375   5.210  0.5796 -0.6458  0.1930
 4807TIP3    H235913   5.499   3.453   5.091  0.8991 -0.1014  0.4114
 4808TIP3   OH235914   0.611   4.897  14.023  0.0056 -0.4884 -0.1945
 4808TIP3    H135915   0.703   4.881  14.044 -0.0570 -1.3776 -0.5755
 4808TIP3    H235916   0.580   4.952  14.095  0.8519 -0.1182 -0.1039
 4809TIP3   OH235917   4.998   6.634  13.858  0.1062  0.1169 -0.1103
 4809TIP3    H135918   4.912   6.663  13.888 -0.1157 -2.1210  1.6023
 4809TIP3    H235919   5.060   6.695  13.899 -0.5491  0.6229  0.1337
 4810TIP3   OH235920   1.675   4.855   3.269 -0.8764  0.1294 -0.1855
 4810TIP3    H135921   1.675   4.762   3.245  1.4648 -0.6663  2.5828
 4810TIP3    H235922   1.584   4.882   3.256 -1.6703 -2.6214 -0.8387
 4811TIP3   OH235923   5.636   5.951   4.076  0.1172 -0.4180  0.9578
 4811TIP3    H135924   5.704   5.888   4.052  0.0488 -0.0188 -0.3171
 4811TIP3    H235925   5.655   6.029   4.024 -2.2023 -0.8318 -0.6049
 4812TIP3   OH235926   6.169   5.420  17.042  0.9378 -0.0956 -0.5454
 4812TIP3    H135927   6.122   5.483  16.987  1.9198  1.1545  0.0082
 4812TIP3    H235928   6.261   5.445  17.033  1.1581 -0.2641  1.1740
 4813TIP3   OH235929   0.054   1.841  11.800 -0.4419 -0.9773  0.0143
 4813TIP3    H135930   0.113   1.912  11.825  1.0368 -1.9420 -0.6522
 4813TIP3    H235931  -0.029   1.862  11.843 -0.1788  1.4048 -0.5681
 4814TIP3   OH235932   5.285   3.878   3.622  0.6950 -0.0422 -0.2558
 4814TIP3    H135933   5.353   3.848   3.562  0.9232 -1.2773  0.6114
 4814TIP3    H235934   5.333   3.922   3.693  0.6170 -1.1634  0.4997
 4815TIP3   OH235935   3.422   3.950   1.263  0.3305 -0.0801  0.2544
 4815TIP3    H135936   3.365   3.982   1.333  0.6930 -1.0405  0.9918
 4815TIP3    H235937   3.402   4.007   1.189 -2.9773 -1.5882 -0.1011
 4816TIP3   OH235938   1.749   0.223  14.949  0.2133 -0.4516  0.0677
 4816TIP3    H135939   1.667   0.237  14.901 -1.2473 -3.2143  1.6298
 4816TIP3    H235940   1.799   0.162  14.894  1.0713  0.8783 -0.6633
 4817TIP3   OH235941   2.173   2.074   5.916 -0.2532 -0.2140 -0.1486
 4817TIP3    H135942   2.197   2.137   5.849  1.1410  0.5847  1.0697
 4817TIP3    H235943   2.198   2.116   5.999 -1.8546 -1.2144  0.8618
 4818TIP3   OH235944   3.354   0.879   0.088  0.4709 -0.0271 -0.4019
 4818TIP3    H135945   3.426   0.937   0.066  1.6528 -0.0128  3.1877
 4818TIP3    H235946   3.277   0.935   0.091  1.1481  0.8826  0.3520
 4819TIP3   OH235947   4.947   6.577  12.586  0.0837 -0.1256 -0.7202
 4819TIP3    H135948   4.961   6.644  12.653 -0.0222  0.9876 -1.7934
 4819TIP3    H235949   4.862   6.538  12.609  1.3044 -1.6552  1.3689
 4820TIP3   OH235950   4.583   3.745  16.538 -0.2882  0.3906 -0.0262
 4820TIP3    H135951   4.592   3.839  16.554  0.8579  0.0755  1.2805
 4820TIP3    H235952   4.671   3.710  16.547 -0.1522 -0.4061 -3.5692
 4821TIP3   OH235953   3.894   1.015  15.276 -0.1221  0.4728  0.4127
 4821TIP3    H135954   3.933   1.016  15.189 -0.6708  3.0441  0.1494
 4821TIP3    H235955   3.913   0.928  15.310  1.1756 -0.1395 -1.7863
 4822TIP3   OH235956   6.213   0.649   5.659  0.0261 -0.6579 -0.4621
 4822TIP3    H135957   6.144   0.591   5.626 -0.2822 -0.6704  0.1764
 4822TIP3    H235958   6.215   0.631   5.753  0.3497 -0.0721 -0.3563
 4823TIP3   OH235959   1.639   2.784  12.320 -0.0238 -0.4755 -0.4907
 4823TIP3    H135960   1.695   2.706  12.319 -0.0637 -0.5618 -3.7675
 4823TIP3    H235961   1.681   2.843  12.382  2.5594 -1.3789 -1.2809
 4824TIP3   OH235962   3.460   5.539  12.286  0.3405  0.6055  0.3469
 4824TIP3    H135963   3.482   5.549  12.194 -1.6088  0.8377 -0.1037
 4824TIP3    H235964   3.487   5.622  12.327  0.2871  0.8845 -0.1843
 4825TIP3   OH235965   2.835   1.445  11.019 -0.4886  0.1278  0.5728
 4825TIP3    H135966   2.740   1.453  11.004 -0.5070  1.5261  1.3445
 4825TIP3    H235967   2.847   1.353  11.043 -1.5314 -0.2625 -0.3117
 4826TIP3   OH235968   2.223   3.342  12.759 -0.0553 -0.2708  0.8385
 4826TIP3    H135969   2.139   3.341  12.714 -0.4371  0.3387  1.5292
 4826TIP3    H235970   2.281   3.290  12.703 -1.3731 -2.2786  1.2886
 4827TIP3   OH235971   0.935   1.268  14.946  0.4710  0.2230  0.2345
 4827TIP3    H135972   0.942   1.256  15.041  1.3640  2.9001  0.5625
 4827TIP3    H235973   1.006   1.215  14.911 -0.1130 -1.1095  1.0366
 4828TIP3   OH235974   3.711   5.838  14.141  0.0913  0.6991 -0.5399
 4828TIP3    H135975   3.772   5.902  14.103  1.2876 -1.2425 -2.0081
 4828TIP3    H235976   3.643   5.828  14.074  1.4225 -1.6325 -1.6175
 4829TIP3   OH235977   1.609   6.095   5.296  0.5138  0.4850  0.2953
 4829TIP3    H135978   1.580   6.184   5.274 -0.3138  0.0945 -0.1904
 4829TIP3    H235979   1.705   6.098   5.286  0.4717  1.2573  0.0653
 4830TIP3   OH235980   6.424   4.780   1.301  0.4348  1.1932  0.1364
 4830TIP3    H135981   6.387   4.772   1.389  0.1960 -0.2745 -0.0871
 4830TIP3    H235982   6.365   4.731   1.245  0.9200  1.6054 -0.7565
 4831TIP3   OH235983   1.793   0.113  12.467 -0.7878 -0.1052  0.6896
 4831TIP3    H135984   1.859   0.058  12.510  1.1686  1.4737 -0.1781
 4831TIP3    H235985   1.725   0.125  12.533  0.5743 -0.4548  2.2013
 4832TIP3   OH235986   0.417   4.694  14.492  0.2884 -0.5932 -0.8155
 4832TIP3    H135987   0.483   4.735  14.548 -0.9701 -0.4800  0.6578
 4832TIP3    H235988   0.450   4.605  14.476  0.9666 -0.4173 -0.4083
 4833TIP3   OH235989   3.082   0.802   2.700  0.2242 -0.5029 -0.0235
 4833TIP3    H135990   3.143   0.779   2.770  1.3830 -0.7771 -1.1144
 4833TIP3    H235991   3.035   0.720   2.681  1.0931 -0.8480 -0.7153
 4834TIP3   OH235992   4.608   3.817  14.543 -0.0587  0.0021 -0.0466
 4834TIP3    H135993   4.691   3.860  14.523  0.2789 -0.9352 -0.6938
 4834TIP3    H235994   4.590   3.763  14.466 -1.7137  0.8785 -0.3023
 4835TIP3   OH235995   5.046   0.532   1.810  1.0069  0.1565 -0.3190
 4835TIP3    H135996   5.060   0.616   1.766 -2.3353  1.6423  1.2325
 4835TIP3    H235997   5.116   0.526   1.874  2.3667  0.8388 -1.7079
 4836TIP3   OH235998   6.438   0.682   3.806 -0.5052 -0.5061 -0.5483
 4836TIP3    H135999   6.449   0.637   3.890 -0.2005  0.8060  0.1263
 4836TIP3    H236000   6.524   0.720   3.787 -0.6180 -0.6454 -1.3717
 4837TIP3   OH236001   2.669   2.183  12.394 -0.2423 -0.3505  0.0433
 4837TIP3    H136002   2.681   2.088  12.396 -0.1332 -0.3291  0.7759
 4837TIP3    H236003   2.753   2.218  12.422 -0.2742 -0.0381 -0.2622
 4838TIP3   OH236004   3.513   2.675   5.164 -0.7179  0.8197 -0.0656
 4838TIP3    H136005   3.418   2.674   5.158 -0.7968  2.8391  0.3099
 4838TIP3    H236006   3.543   2.635   5.082 -1.8799  0.1070 -0.1533
 4839TIP3   OH236007   6.506   0.266   1.420 -0.1148 -0.1082 -0.2863
 4839TIP3    H136008   6.480   0.231   1.335 -0.3666  1.0147 -0.6749
 4839TIP3    H236009   6.493   0.361   1.413 -0.8949 -0.0838  1.2665
 4840TIP3   OH236010   2.119   6.671  12.140  0.1833  0.1742 -0.4013
 4840TIP3    H136011   2.098   6.611  12.212 -0.6309 -0.6397 -1.3250
 4840TIP3    H236012   2.103   6.758  12.177 -3.3733 -0.3520 -0.5926
 4841TIP3   OH236013   0.609   4.876  13.431  0.0532  0.0291 -0.2531
 4841TIP3    H136014   0.635   4.875  13.523  1.3339 -0.4272 -0.6103
 4841TIP3    H236015   0.514   4.887  13.433  0.3804  2.9270  1.0411
 4842TIP3   OH236016   1.945   2.489   2.981 -0.4501  0.2723 -0.3644
 4842TIP3    H136017   1.934   2.443   2.898 -1.9742  0.3577 -0.2164
 4842TIP3    H236018   1.899   2.436   3.045 -0.0109  0.6536  0.2755
 4843TIP3   OH236019   0.789   6.420  12.229  0.3941  0.1471 -0.6198
 4843TIP3    H136020   0.721   6.474  12.190 -1.1083 -0.6147  0.9069
 4843TIP3    H236021   0.809   6.354  12.162 -1.9205 -0.9587 -0.2429
 4844TIP3   OH236022   3.022   0.022   0.897 -0.3456 -0.2495 -0.2478
 4844TIP3    H136023   3.052  -0.057   0.943  0.5999 -0.2582 -0.8619
 4844TIP3    H236024   2.935  -0.002   0.864 -0.0337 -1.0715 -0.4968
 4845TIP3   OH236025   3.071   6.767  10.817 -0.1514  0.4476 -0.3597
 4845TIP3    H136026   3.088   6.860  10.801 -0.8644  0.8288  1.0369
 4845TIP3    H236027   2.977   6.762  10.833  0.4332  0.0795  3.2827
 4846TIP3   OH236028   3.422   0.584   1.641  0.3463 -0.5629  0.3853
 4846TIP3    H136029   3.421   0.605   1.734  0.0318  0.7361  0.1090
 4846TIP3    H236030   3.385   0.662   1.599 -0.4468 -1.5308 -0.7430
 4847TIP3   OH236031   2.041   2.315   1.681 -0.1495  0.3318  0.3511
 4847TIP3    H136032   2.005   2.227   1.666  0.8184 -0.1430  0.7110
 4847TIP3    H236033   1.985   2.353   1.748  0.0078 -0.3979  0.9059
 4848TIP3   OH236034   5.895   3.394  14.285  0.3921  0.1934 -0.1410
 4848TIP3    H136035   5.961   3.328  14.305  2.1812  2.1994  0.7328
 4848TIP3    H236036   5.861   3.421  14.370  0.4915  1.2064 -0.4164
 4849TIP3   OH236037   4.291   2.754   2.661 -1.0202  0.4654  0.0443
 4849TIP3    H136038   4.333   2.824   2.711 -0.9985  0.4782  0.0086
 4849TIP3    H236039   4.235   2.799   2.598  0.6002  0.5091 -1.4017
 4850TIP3   OH236040   3.429   3.567   5.935  0.1805 -0.1218 -0.0933
 4850TIP3    H136041   3.454   3.549   6.025 -2.7849 -3.0066  0.2595
 4850TIP3    H236042   3.479   3.504   5.883 -1.2713 -1.3912 -0.0019
 4851TIP3   OH236043   0.786   1.574  15.734  0.7078 -0.4448  0.0862
 4851TIP3    H136044   0.741   1.657  15.720  0.8332 -0.2615  0.7647
 4851TIP3    H236045   0.879   1.598  15.740  0.7733 -0.6705 -0.0386
 4852TIP3   OH236046   4.555   5.597  12.596 -0.4751  0.1281 -0.1628
 4852TIP3    H136047   4.481   5.537  12.590 -0.4296  0.1587 -1.1969
 4852TIP3    H236048   4.520   5.675  12.639 -1.1990  0.3822 -1.2057
 4853TIP3   OH236049   3.888   0.265   6.064  0.2519  0.4205  0.0498
 4853TIP3    H136050   3.845   0.223   6.139 -0.3078  1.9125  0.5756
 4853TIP3    H236051   3.974   0.223   6.060  0.1921  0.1331  1.3674
 4854TIP3   OH236052   6.066   4.358   2.815 -0.0931 -0.0480 -0.6376
 4854TIP3    H136053   6.139   4.299   2.831 -0.6339 -0.6690 -0.4222
 4854TIP3    H236054   6.097   4.444   2.844 -0.2883 -0.7313  1.6843
 4855TIP3   OH236055   0.582   5.187   2.781 -0.0172  0.0779 -0.3261
 4855TIP3    H136056   0.610   5.275   2.804  0.4423 -0.1213 -0.1231
 4855TIP3    H236057   0.540   5.153   2.860  0.2940 -0.0841 -0.2286
 4856TIP3   OH236058   0.671   4.068   3.935 -0.5250  0.4290 -0.2489
 4856TIP3    H136059   0.674   3.976   3.907 -0.5744 -0.0653  1.3488
 4856TIP3    H236060   0.763   4.092   3.948 -0.4555  0.8780 -1.5123
 4857TIP3   OH236061   2.165   4.238   3.494  1.2631  0.0855  0.0324
 4857TIP3    H136062   2.145   4.174   3.426 -2.5789 -0.0660  1.2045
 4857TIP3    H236063   2.223   4.191   3.554 -1.1625 -2.2320  0.6668
 4858TIP3   OH236064   1.608   0.199   1.839 -0.2933  0.0159  0.2504
 4858TIP3    H136065   1.526   0.157   1.812 -0.3406  0.8741 -1.0351
 4858TIP3    H236066   1.676   0.135   1.818 -0.7123 -1.1375  2.3367
 4859TIP3   OH236067   2.512   3.621  13.416 -0.6611  0.2564  0.4211
 4859TIP3    H136068   2.432   3.570  13.429  0.7870 -2.3306 -0.3452
 4859TIP3    H236069   2.558   3.615  13.500 -0.4476  0.2106  0.3030
 4860TIP3   OH236070   6.304   4.185   2.466 -0.7851 -0.4398 -0.4109
 4860TIP3    H136071   6.327   4.195   2.374  0.7831 -3.7193 -0.4521
 4860TIP3    H236072   6.272   4.095   2.473 -0.5368 -0.3559  2.2970
 4861TIP3   OH236073   2.219   4.553   1.558  0.2583  0.0884 -0.1932
 4861TIP3    H136074   2.150   4.487   1.573  0.6761 -0.3585 -0.2154
 4861TIP3    H236075   2.300   4.502   1.557  0.6658  0.7230  0.6368
 4862TIP3   OH236076   3.157   3.057   5.680  0.4104  0.2650  0.4713
 4862TIP3    H136077   3.212   3.095   5.749  1.9575 -2.8851  1.0341
 4862TIP3    H236078   3.218   3.038   5.608 -0.6312  0.4377 -0.4692
 4863TIP3   OH236079   5.943   2.353  15.529 -0.5522  0.7686  0.2217
 4863TIP3    H136080   5.890   2.432  15.538 -0.5652  0.7663  0.1688
 4863TIP3    H236081   5.886   2.290  15.484 -0.0530  1.2272 -1.0910
 4864TIP3   OH236082   3.356   5.878   5.214 -0.2946  0.0604 -0.1170
 4864TIP3    H136083   3.394   5.791   5.224 -1.2774 -0.3051  0.6184
 4864TIP3    H236084   3.261   5.862   5.208 -0.4207  1.0130 -0.8415
 4865TIP3   OH236085   3.207   4.942  11.225 -0.5565  0.7838 -0.4057
 4865TIP3    H136086   3.112   4.937  11.223 -0.5917  1.5721 -0.7521
 4865TIP3    H236087   3.226   5.026  11.267  0.0015 -0.3899  1.7644
 4866TIP3   OH236088   0.518   6.169  12.707  0.0693 -0.6558  0.7006
 4866TIP3    H136089   0.444   6.120  12.669 -1.2938 -0.1249  2.5868
 4866TIP3    H236090   0.585   6.167  12.639 -1.5734 -1.4168 -0.9609
 4867TIP3   OH236091   2.054   3.381   5.425  0.1158  0.5981  0.9440
 4867TIP3    H136092   2.109   3.345   5.355 -1.6275  0.2318 -0.2786
 4867TIP3    H236093   2.002   3.306   5.455 -1.1302  1.3524  0.7088
 4868TIP3   OH236094   0.785   4.171  13.410 -0.0418 -0.2782 -0.2928
 4868TIP3    H136095   0.866   4.195  13.364 -0.3147 -0.5255 -0.9065
 4868TIP3    H236096   0.767   4.082  13.382 -1.2639  0.2470 -1.2113
 4869TIP3   OH236097   0.858   3.678  10.973 -0.0250 -0.1597  0.3781
 4869TIP3    H136098   0.801   3.673  10.897 -0.2715 -3.6576  0.7532
 4869TIP3    H236099   0.940   3.715  10.939 -0.4080 -0.9421 -1.4280
 4870TIP3   OH236100   5.958   3.109   3.217 -0.0034 -0.3079  0.7844
 4870TIP3    H136101   6.008   3.059   3.282 -1.6339 -1.6803  1.0167
 4870TIP3    H236102   5.871   3.116   3.254  0.0176  2.1615  0.4159
 4871TIP3   OH236103   2.244   3.245  11.362 -0.8266  0.8438 -0.1235
 4871TIP3    H136104   2.221   3.160  11.401  0.7653  1.1841  1.6606
 4871TIP3    H236105   2.230   3.234  11.268 -1.1565 -1.2262  0.1530
 4872TIP3   OH236106   3.227   2.882   3.310 -0.5301  0.4424  0.0244
 4872TIP3    H136107   3.279   2.939   3.254  1.4565 -1.5663 -0.2661
 4872TIP3    H236108   3.182   2.823   3.249  0.9324 -1.1618  0.4493
 4873TIP3   OH236109   6.716   6.395   2.153  0.5685  0.3682  0.0068
 4873TIP3    H136110   6.781   6.430   2.092 -0.1873 -0.1902 -1.1449
 4873TIP3    H236111   6.683   6.471   2.200  1.3058  0.7798 -0.1238
 4874TIP3   OH236112   6.118   3.830   5.848  0.3891 -0.2233  0.8286
 4874TIP3    H136113   6.147   3.741   5.869 -1.4215 -0.5311  2.1497
 4874TIP3    H236114   6.055   3.819   5.778  1.1146  0.1611  0.1015
 4875TIP3   OH236115   6.677   1.423  16.906 -0.4885  0.6664  0.0497
 4875TIP3    H136116   6.594   1.463  16.932 -2.0471 -1.4156 -1.6069
 4875TIP3    H236117   6.681   1.340  16.953  0.1984  0.3071 -0.6187
 4876TIP3   OH236118   1.071   0.950   6.295  0.0713  0.2650 -0.1258
 4876TIP3    H136119   1.070   0.886   6.366  0.2253 -0.8363 -1.1045
 4876TIP3    H236120   1.164   0.958   6.272  0.1345  1.3933  0.4682
 4877TIP3   OH236121   5.465   5.889   3.807 -0.3779 -0.0262 -1.0435
 4877TIP3    H136122   5.520   5.818   3.839 -0.2010  0.2252 -0.7862
 4877TIP3    H236123   5.396   5.898   3.873  0.0851  0.6080 -0.6442
 4878TIP3   OH236124   5.388   0.018  12.894 -0.1818 -0.1350 -0.2139
 4878TIP3    H136125   5.349   0.099  12.927  0.1270  1.1381 -2.8355
 4878TIP3    H236126   5.313  -0.037  12.871 -0.3890 -0.2316  0.6707
 4879TIP3   OH236127   5.186   2.502   2.065  0.2884 -0.7698 -0.2857
 4879TIP3    H136128   5.183   2.413   2.101 -1.0950 -0.3913  0.5684
 4879TIP3    H236129   5.101   2.539   2.087  0.7891  0.7078 -0.8128
 4880TIP3   OH236130   0.952   3.153  14.360  0.7431  0.0885 -0.2009
 4880TIP3    H136131   0.908   3.081  14.315  2.6490 -1.4020  0.2515
 4880TIP3    H236132   0.967   3.121  14.449  0.5594  1.5109  0.3727
 4881TIP3   OH236133   5.361   1.687   5.456 -0.5138 -0.0423  0.6403
 4881TIP3    H136134   5.327   1.635   5.529 -1.7126 -0.1054  0.0465
 4881TIP3    H236135   5.356   1.778   5.486 -1.8066 -0.0058  0.3145
 4882TIP3   OH236136   3.533   4.663  14.753 -0.2838 -0.3184  0.3653
 4882TIP3    H136137   3.611   4.710  14.721 -1.0319  2.0996  2.0146
 4882TIP3    H236138   3.483   4.728  14.802 -2.8630 -2.1070  0.2212
 4883TIP3   OH236139   6.689   1.114  15.158  0.0905 -0.0004  0.4654
 4883TIP3    H136140   6.739   1.147  15.232  1.3931  0.6215 -0.6847
 4883TIP3    H236141   6.610   1.168  15.156  0.0916  0.0406  1.3351
 4884TIP3   OH236142   4.721   0.573   5.203 -0.0866 -0.5992  0.4289
 4884TIP3    H136143   4.647   0.586   5.261 -0.5286 -0.3999 -0.1718
 4884TIP3    H236144   4.796   0.610   5.249 -0.8217  1.5915 -0.0750
 4885TIP3   OH236145   6.503   5.498  13.586  0.1245  0.0923  0.6786
 4885TIP3    H136146   6.525   5.415  13.543  1.4134  0.9736 -0.3979
 4885TIP3    H236147   6.460   5.472  13.667  0.2275 -1.6313  0.2052
 4886TIP3   OH236148   2.235   0.003  13.880  0.3380  0.6271 -0.3388
 4886TIP3    H136149   2.257  -0.006  13.973  0.7441 -0.0326 -0.4938
 4886TIP3    H236150   2.142   0.023  13.878  0.0734 -0.5542  0.1589
 4887TIP3   OH236151   1.868   3.948  15.975  0.2842  0.2991 -0.1823
 4887TIP3    H136152   1.902   3.997  15.901 -2.2245  2.3189 -0.0842
 4887TIP3    H236153   1.934   3.957  16.044  0.2205  2.8989 -0.4389
 4888TIP3   OH236154   0.666   5.766   0.806  0.5558  0.2873 -0.1017
 4888TIP3    H136155   0.626   5.743   0.890 -1.1119  1.4101 -0.5638
 4888TIP3    H236156   0.747   5.810   0.831  0.4032  0.0227  0.9166
 4889TIP3   OH236157   3.338   6.112   0.912  0.0245 -0.0934  0.0700
 4889TIP3    H136158   3.253   6.105   0.955  0.8683 -1.7700  1.5383
 4889TIP3    H236159   3.377   6.025   0.923  2.4035  0.9941  0.4146
 4890TIP3   OH236160   4.422   4.942  11.547 -0.1197 -1.0540  0.4440
 4890TIP3    H136161   4.379   4.856  11.542 -4.2041  0.8067  1.0831
 4890TIP3    H236162   4.397   4.975  11.633 -0.6855  1.7656 -0.7633
 4891TIP3   OH236163   4.188   6.058   2.796 -0.3573  0.4312  0.4959
 4891TIP3    H136164   4.215   6.148   2.814  0.3181  0.6415 -1.4624
 4891TIP3    H236165   4.226   6.007   2.868  1.7970  1.2884 -0.0117
 4892TIP3   OH236166   0.008   4.977  15.034  0.5103 -0.4473 -0.1611
 4892TIP3    H136167  -0.074   4.929  15.023 -1.3091  2.4381  0.2336
 4892TIP3    H236168   0.012   5.035  14.959  2.5168 -0.9473 -0.4726
 4893TIP3   OH236169   4.065   4.603   6.319 -0.2459  0.5397 -0.1249
 4893TIP3    H136170   3.978   4.631   6.347 -0.0542 -1.5344  2.8958
 4893TIP3    H236171   4.118   4.607   6.399  1.4984 -1.5894 -1.1024
 4894TIP3   OH236172   1.730   5.804  11.564  0.0296  0.5304 -0.2525
 4894TIP3    H136173   1.703   5.895  11.577 -2.7266 -0.2102 -0.4437
 4894TIP3    H236174   1.778   5.805  11.481 -1.6563  1.5146 -1.2477
 4895TIP3   OH236175   4.308   2.133   0.745  0.2160  0.3066  0.9859
 4895TIP3    H136176   4.241   2.113   0.810  1.4932 -0.7884  1.9982
 4895TIP3    H236177   4.259   2.155   0.666 -1.3239 -2.7862  1.0015
 4896TIP3   OH236178   5.453   0.410   3.432  0.0903 -0.0401  0.0204
 4896TIP3    H136179   5.403   0.396   3.352 -1.5046 -0.6413  1.1112
 4896TIP3    H236180   5.441   0.330   3.483  2.0405 -0.1351  0.3775
 4897TIP3   OH236181   0.794   3.594   5.339 -0.7403  0.2083 -0.2689
 4897TIP3    H136182   0.829   3.621   5.254  1.3617 -1.0336  0.1726
 4897TIP3    H236183   0.718   3.540   5.317 -0.3191  0.0408 -1.3601
 4898TIP3   OH236184   1.452   1.672   2.140  0.2373 -0.3803  0.0742
 4898TIP3    H136185   1.363   1.673   2.103 -0.8603  2.2297  2.6120
 4898TIP3    H236186   1.469   1.579   2.158 -2.9035 -0.7340  1.6084
 4899TIP3   OH236187   6.650   4.425   1.332 -0.5055  0.0375 -0.3970
 4899TIP3    H136188   6.677   4.365   1.402 -2.3902 -1.4435 -0.9075
 4899TIP3    H236189   6.604   4.369   1.269 -1.1155  1.8007 -1.5530
 4900TIP3   OH236190   3.468   4.308   4.976  0.5933 -0.1043 -0.8137
 4900TIP3    H136191   3.434   4.249   5.043 -1.9525 -0.0528 -2.0037
 4900TIP3    H236192   3.505   4.381   5.025  0.0093 -0.7102  0.5571
 4901TIP3   OH236193   3.578   2.611   4.895 -0.2752  0.4232  0.2813
 4901TIP3    H136194   3.528   2.532   4.876  0.7196 -0.3274  0.7227
 4901TIP3    H236195   3.523   2.683   4.864 -0.9237 -0.4781 -0.6876
 4902TIP3   OH236196   5.812   2.193   3.405 -1.0172 -0.4916  0.1818
 4902TIP3    H136197   5.783   2.283   3.416 -0.4928 -0.5476  2.1991
 4902TIP3    H236198   5.754   2.141   3.461  1.1005 -0.9228  2.0818
 4903TIP3   OH236199   6.258   3.828   1.943  0.9702 -0.1680 -0.3785
 4903TIP3    H136200   6.317   3.876   2.002  1.2531 -0.1734 -0.6543
 4903TIP3    H236201   6.314   3.762   1.903  1.0067  0.4623 -1.3857
 4904TIP3   OH236202   2.136   4.414  14.079 -0.4566  0.1027 -0.0949
 4904TIP3    H136203   2.188   4.436  14.156  1.0299 -0.2107 -0.9955
 4904TIP3    H236204   2.111   4.322  14.093  1.0710 -0.4165 -0.6768
 4905TIP3   OH236205   6.267   5.770  13.210 -0.3770 -0.2108  0.3872
 4905TIP3    H136206   6.297   5.679  13.207 -0.5772 -0.2540 -0.7327
 4905TIP3    H236207   6.348   5.822  13.210 -0.2729 -0.3486 -1.5435
 4906TIP3   OH236208   1.486   4.732   4.308  0.5308 -0.1722 -0.5457
 4906TIP3    H136209   1.459   4.802   4.367  1.0267 -1.6904  1.5605
 4906TIP3    H236210   1.523   4.777   4.233 -1.0129  1.8320 -0.1486
 4907TIP3   OH236211   4.087   4.101   0.934  0.3895 -0.0854 -0.0769
 4907TIP3    H136212   4.094   4.161   1.008  0.5333 -0.1441 -0.0433
 4907TIP3    H236213   3.993   4.085   0.926  0.4594 -0.9697  0.8122
 4908TIP3   OH236214   0.978   4.080   3.924 -0.2917  0.2032  0.2426
 4908TIP3    H136215   1.073   4.087   3.920 -0.2723 -0.0806  0.1697
 4908TIP3    H236216   0.952   4.049   3.837 -0.2465 -1.8256  0.9255
 4909TIP3   OH236217   2.521   5.294  16.882 -0.4752  0.0910  0.0637
 4909TIP3    H136218   2.579   5.283  16.806 -2.1999 -0.8553 -1.1429
 4909TIP3    H236219   2.530   5.387  16.905  0.8259  0.1671 -0.6532
 4910TIP3   OH236220   6.752   5.931  15.913 -0.3555 -0.0294 -0.9785
 4910TIP3    H136221   6.800   5.871  15.970 -1.6205 -1.3281 -1.2513
 4910TIP3    H236222   6.666   5.940  15.955 -0.5341  0.7765 -1.5012
 4911TIP3   OH236223   5.508   3.708  14.763 -0.5898  0.4845 -0.7613
 4911TIP3    H136224   5.424   3.689  14.804 -0.1469  1.8094  0.8146
 4911TIP3    H236225   5.573   3.668  14.822  0.0379  2.1806 -0.2620
 4912TIP3   OH236226   1.304   0.362   4.236 -0.1892  0.0806  0.5338
 4912TIP3    H136227   1.323   0.350   4.329  0.3129  0.5147  0.4925
 4912TIP3    H236228   1.291   0.456   4.225 -1.2562 -0.0831  0.3426
 4913TIP3   OH236229   1.397   1.543   3.909 -0.1234 -0.4818 -0.2408
 4913TIP3    H136230   1.337   1.492   3.963  0.0170  0.0116  0.3911
 4913TIP3    H236231   1.385   1.508   3.820 -2.7163  0.8914 -0.4702
 4914TIP3   OH236232   5.576   0.102   5.034  0.0441 -0.7787 -0.1379
 4914TIP3    H136233   5.658   0.053   5.045 -0.1091 -1.5945 -2.3473
 4914TIP3    H236234   5.559   0.099   4.940 -2.1169  0.0591  0.1992
 4915TIP3   OH236235   2.546   5.766   0.378  0.2717 -0.3580  0.2134
 4915TIP3    H136236   2.620   5.724   0.334  1.9097 -0.2990  2.8510
 4915TIP3    H236237   2.530   5.846   0.327  0.0885 -1.8263 -2.1039
 4916TIP3   OH236238   4.532   2.723   5.224  0.2913  0.1989  0.3772
 4916TIP3    H136239   4.569   2.646   5.267  1.5584  0.1843 -0.6835
 4916TIP3    H236240   4.609   2.778   5.204 -0.2534  0.2029 -1.8213
 4917TIP3   OH236241   5.218   5.085   3.173 -0.5557  0.2778  0.1042
 4917TIP3    H136242   5.232   5.052   3.261  0.5704  0.4360 -0.0102
 4917TIP3    H236243   5.125   5.071   3.157 -0.4900 -1.0563  0.7865
 4918TIP3   OH236244   1.780   0.727   0.548 -0.2577 -0.5770  0.5701
 4918TIP3    H136245   1.691   0.709   0.577 -0.6284  0.0698 -0.1457
 4918TIP3    H236246   1.799   0.658   0.484 -0.3425 -0.5519  0.5184
 4919TIP3   OH236247   1.107   3.296   3.460 -0.0051 -0.1359  0.5938
 4919TIP3    H136248   1.181   3.242   3.487  1.2903  0.6922 -1.1935
 4919TIP3    H236249   1.098   3.280   3.367  0.2945  2.5619  0.0675
 4920TIP3   OH236250   1.395   5.519   3.871  0.3375  0.2167 -0.0181
 4920TIP3    H136251   1.336   5.577   3.919 -0.7638 -0.1461 -0.8992
 4920TIP3    H236252   1.434   5.575   3.804 -0.0965  0.1244 -0.3460
 4921TIP3   OH236253   2.521   2.307  16.227 -0.2165  0.0132  0.2522
 4921TIP3    H136254   2.557   2.242  16.167  0.5345 -1.1079  1.8793
 4921TIP3    H236255   2.595   2.362  16.251 -0.6632  0.9235 -0.3949
 4922TIP3   OH236256   6.564   6.805   2.222 -0.5003 -0.7993 -0.7222
 4922TIP3    H136257   6.470   6.818   2.234 -0.4911 -0.5167 -0.9366
 4922TIP3    H236258   6.598   6.893   2.203  0.0754 -0.5989  1.1089
 4923TIP3   OH236259   4.509   3.037  12.304  0.3337  0.2438  0.1351
 4923TIP3    H136260   4.469   3.114  12.343 -1.5933 -0.0081 -1.2662
 4923TIP3    H236261   4.598   3.064  12.282 -0.6295  2.3953 -1.2415
 4924TIP3   OH236262   0.700   4.148   2.703 -0.0965 -0.4641 -0.8990
 4924TIP3    H136263   0.669   4.109   2.621 -2.4349 -0.7367  0.1030
 4924TIP3    H236264   0.728   4.236   2.678  0.7711 -1.1074 -2.2799
 4925TIP3   OH236265   5.738   5.915   2.495  0.4598 -0.2078  0.1261
 4925TIP3    H136266   5.650   5.881   2.478  0.6365 -1.2267  1.1968
 4925TIP3    H236267   5.797   5.843   2.471  1.0008  0.4401 -0.5047
 4926TIP3   OH236268   2.895   1.138   2.195  0.1569 -0.9170  0.3096
 4926TIP3    H136269   2.938   1.175   2.117 -0.9617 -0.5000 -0.1312
 4926TIP3    H236270   2.937   1.053   2.207  1.7249 -0.1444  0.4350
 4927TIP3   OH236271   0.257   0.449   0.561 -0.0268  0.4272 -0.0651
 4927TIP3    H136272   0.314   0.416   0.493 -0.5972 -1.7828  0.4833
 4927TIP3    H236273   0.188   0.497   0.514  0.7151  0.6904 -0.8882
 4928TIP3   OH236274   0.025   0.430   2.258 -0.3828  0.0522  0.3090
 4928TIP3    H136275  -0.023   0.504   2.221 -0.8940  0.3977  1.6410
 4928TIP3    H236276   0.116   0.444   2.230 -0.3362  1.5852  1.1717
 4929TIP3   OH236277   3.081   0.890   6.079  0.4447 -0.0923 -0.3758
 4929TIP3    H136278   3.147   0.942   6.126 -2.4253  0.3299  3.3508
 4929TIP3    H236279   3.093   0.801   6.111 -0.5184 -0.0842  0.0089
 4930TIP3   OH236280   4.681   0.720  11.554  0.0931 -0.0805  0.2124
 4930TIP3    H136281   4.680   0.733  11.459 -1.8707 -0.2862  0.1829
 4930TIP3    H236282   4.691   0.808  11.591 -1.3236  0.2489 -0.1654
 4931TIP3   OH236283   4.194   5.250   4.435  0.5704 -0.2499 -0.6689
 4931TIP3    H136284   4.106   5.221   4.410  1.0508 -0.4698 -2.1103
 4931TIP3    H236285   4.234   5.172   4.474  0.3506 -0.3209 -0.5837
 4932TIP3   OH236286   6.362   5.935   3.522  0.2090  0.5034 -1.0289
 4932TIP3    H136287   6.290   5.950   3.583  2.0139 -0.6964  1.4644
 4932TIP3    H236288   6.354   5.842   3.497  0.5704  0.5082 -1.1698
 4933TIP3   OH236289   3.437   1.423  17.278  0.3136  0.3200 -0.0998
 4933TIP3    H136290   3.464   1.493  17.337 -2.9788  1.2274  0.4381
 4933TIP3    H236291   3.477   1.445  17.194  1.1952  1.5605  0.6348
 4934TIP3   OH236292   3.766   2.010   1.202 -0.3245 -0.0728 -0.6258
 4934TIP3    H136293   3.701   1.962   1.152 -1.4126 -1.1468  1.7683
 4934TIP3    H236294   3.844   1.955   1.200 -0.5981 -0.4625 -0.5085
 4935TIP3   OH236295   1.716   6.246   1.733  0.2077  0.0565  0.0014
 4935TIP3    H136296   1.705   6.245   1.828 -0.1460 -0.7485 -0.0443
 4935TIP3    H236297   1.630   6.270   1.699  0.1960 -0.1743 -0.1346
 4936TIP3   OH236298   1.702   5.140  11.844  0.0561 -0.3385 -0.4048
 4936TIP3    H136299   1.761   5.110  11.913 -0.2950 -0.2620 -0.0649
 4936TIP3    H236300   1.736   5.226  11.819 -0.8216  0.4192  0.9034
 4937TIP3   OH236301   4.862   2.780   3.920  0.5633  0.5063  0.4173
 4937TIP3    H136302   4.931   2.747   3.862 -0.3045  2.2424 -1.6719
 4937TIP3    H236303   4.908   2.832   3.985  1.3892  0.1174  0.1478
 4938TIP3   OH236304   3.228   3.333   0.597  0.9037  0.6252 -0.2708
 4938TIP3    H136305   3.269   3.311   0.680  0.0949 -1.8850 -0.5084
 4938TIP3    H236306   3.267   3.417   0.573  2.8158  0.2879  1.5248
 4939TIP3   OH236307   2.846   4.716   1.149  0.3437  0.0369  0.0740
 4939TIP3    H136308   2.887   4.649   1.204  2.5890  0.9656 -0.3951
 4939TIP3    H236309   2.846   4.795   1.204 -0.5029  0.1407 -0.0680
 4940TIP3   OH236310   3.103   5.473  15.853  0.1425 -0.0018 -0.1648
 4940TIP3    H136311   3.025   5.420  15.836  0.3774 -0.3894 -0.0236
 4940TIP3    H236312   3.147   5.429  15.926  0.5394  0.1740 -0.2989
 4941TIP3   OH236313   2.319   0.755  14.342 -0.0389  0.2621 -0.1212
 4941TIP3    H136314   2.226   0.777  14.346 -0.1266  0.1567 -1.5330
 4941TIP3    H236315   2.334   0.726  14.252  1.2229 -0.3425  0.2648
 4942TIP3   OH236316   5.799   2.216  11.612 -0.0698 -0.2956  0.5542
 4942TIP3    H136317   5.862   2.195  11.681  0.8740  1.6320  0.3369
 4942TIP3    H236318   5.714   2.209  11.654  0.1874 -3.7138  0.6518
 4943TIP3   OH236319   5.154   4.254  15.815 -0.2765  0.0808 -0.1528
 4943TIP3    H136320   5.169   4.284  15.726 -0.4670  1.8025  0.3740
 4943TIP3    H236321   5.102   4.323  15.856  0.4817 -0.2985  1.5196
 4944TIP3   OH236322   1.878   3.623   4.428  0.3661  0.0969 -0.3965
 4944TIP3    H136323   1.833   3.632   4.512  1.5326  2.7524  0.0108
 4944TIP3    H236324   1.968   3.601   4.452 -0.0797 -2.5488 -1.1014
 4945TIP3   OH236325   5.312   4.012  14.116  0.4646 -0.4400  0.0959
 4945TIP3    H136326   5.357   4.095  14.100  0.0823 -0.4844 -1.2847
 4945TIP3    H236327   5.247   4.006  14.046  0.6539 -2.0287  0.0416
 4946TIP3   OH236328   2.419   0.854  16.321  0.5407  0.0794 -0.0143
 4946TIP3    H136329   2.368   0.795  16.266 -0.4496  0.3664  0.5996
 4946TIP3    H236330   2.410   0.940  16.280  1.0063  0.0301 -0.2277
 4947TIP3   OH236331   5.961   5.899   3.222  0.0219 -0.2319  0.5929
 4947TIP3    H136332   5.987   5.852   3.301 -0.8326  3.6035  3.2762
 4947TIP3    H236333   6.031   5.963   3.208 -0.6279  0.1902 -0.7988
 4948TIP3   OH236334   3.844   2.219   5.206 -0.1815 -0.0148 -0.0776
 4948TIP3    H136335   3.832   2.179   5.292 -0.1599 -1.2117 -0.6172
 4948TIP3    H236336   3.937   2.240   5.202  0.0364 -0.9575 -0.2168
 4949TIP3   OH236337   2.440   4.876   2.306  0.0491 -0.2996  0.0659
 4949TIP3    H136338   2.416   4.868   2.398 -0.9568 -0.0736 -0.1692
 4949TIP3    H236339   2.382   4.945   2.272  1.5582  0.8052 -0.3428
 4950TIP3   OH236340   0.832   2.926  14.256  0.1705  0.1221  0.5981
 4950TIP3    H136341   0.744   2.896  14.232  0.0315  0.6202  0.4883
 4950TIP3    H236342   0.875   2.847  14.289  0.4212 -0.6371 -1.4363
 4951TIP3   OH236343   2.161   2.310  12.682 -0.2212  0.0646 -0.7825
 4951TIP3    H136344   2.096   2.279  12.619  0.1057 -2.3303  0.0267
 4951TIP3    H236345   2.239   2.327  12.630 -0.9189  1.2296 -1.4822
 4952TIP3   OH236346   1.744   2.568   6.692  0.7413  0.2472  0.0737
 4952TIP3    H136347   1.741   2.537   6.783  1.1551  0.3444  0.1239
 4952TIP3    H236348   1.684   2.642   6.689  1.1687  0.6111  0.4127
 4953TIP3   OH236349   2.901   5.396  14.841  0.1795  0.4189 -0.2475
 4953TIP3    H136350   2.854   5.398  14.925 -0.9554 -0.7271 -0.8318
 4953TIP3    H236351   2.921   5.303  14.828 -1.8469  0.2382 -2.4179
 4954TIP3   OH236352   0.340   3.120  15.329 -0.1998  0.1320  0.0219
 4954TIP3    H136353   0.339   3.207  15.292  1.3879 -0.1205 -0.6621
 4954TIP3    H236354   0.286   3.067  15.271 -1.5565  0.7528  0.7072
 4955TIP3   OH236355   2.383   4.788   0.210 -0.3067 -0.4850  0.8044
 4955TIP3    H136356   2.454   4.758   0.266 -0.5187 -1.1261  0.7341
 4955TIP3    H236357   2.330   4.710   0.193 -0.0147 -0.3937 -0.6301
 4956TIP3   OH236358   2.067   3.939  14.001 -0.0937 -0.6333 -0.0441
 4956TIP3    H136359   2.159   3.965  13.997 -0.6658  1.1934 -2.3289
 4956TIP3    H236360   2.068   3.852  14.041  2.6091 -0.5772  0.0700
 4957TIP3   OH236361   6.243   4.885  16.020 -0.2157 -0.5220 -0.7527
 4957TIP3    H136362   6.317   4.862  16.077 -0.1566 -0.5982 -0.8631
 4957TIP3    H236363   6.271   4.965  15.975 -1.8180  1.8907  2.3049
 4958TIP3   OH236364   4.504   5.102   1.002 -0.6228  0.1464 -0.4443
 4958TIP3    H136365   4.574   5.063   0.951  0.4964  1.7550 -0.1602
 4958TIP3    H236366   4.451   5.150   0.939 -0.3101  0.5859 -0.3764
 4959TIP3   OH236367   1.527   3.076   4.174  0.2494 -0.0684  0.3970
 4959TIP3    H136368   1.522   3.102   4.082 -3.7336  0.7461  0.7775
 4959TIP3    H236369   1.568   3.152   4.218 -2.8168  1.8382  0.0839
 4960TIP3   OH236370   5.032   2.138  14.995 -0.3608 -0.2796  0.0110
 4960TIP3    H136371   5.067   2.050  15.010  0.5218  0.1854  0.7108
 4960TIP3    H236372   5.037   2.180  15.080 -0.0051  0.7236 -0.5019
 4961TIP3   OH236373   3.750   4.378  11.075  0.4060 -0.5148 -0.1118
 4961TIP3    H136374   3.708   4.452  11.118 -0.6704 -1.7863  1.0659
 4961TIP3    H236375   3.831   4.363  11.125  0.3417 -0.4883 -0.0009
 4962TIP3   OH236376   5.087   1.949  16.793  0.3159  0.2550  0.1960
 4962TIP3    H136377   5.040   1.971  16.713  0.5109 -0.2372 -0.0575
 4962TIP3    H236378   5.159   2.013  16.797 -0.2366  0.8617  0.4631
 4963TIP3   OH236379   1.182   1.881  14.445  0.3775 -0.4722  0.6537
 4963TIP3    H136380   1.144   1.849  14.528 -0.5666 -2.2959 -0.4452
 4963TIP3    H236381   1.180   1.805  14.387  1.2250  0.7364 -0.9961
 4964TIP3   OH236382   1.777   1.876   4.968 -0.1356  0.2423  0.6427
 4964TIP3    H136383   1.709   1.810   4.959 -0.1531  0.2040  1.0189
 4964TIP3    H236384   1.744   1.952   4.920  0.0545 -0.1510 -0.1049
 4965TIP3   OH236385   1.568   1.570   5.404  0.1864  0.1914  0.0662
 4965TIP3    H136386   1.551   1.504   5.471 -0.2921 -0.8109 -1.0214
 4965TIP3    H236387   1.502   1.637   5.420  0.3542  0.1722  0.8657
 4966TIP3   OH236388   0.605   1.807   0.605 -0.5247  0.0224 -0.8187
 4966TIP3    H136389   0.563   1.760   0.532  0.2429 -0.3147 -1.0407
 4966TIP3    H236390   0.656   1.876   0.563 -1.7330  1.1446 -0.4888
 4967TIP3   OH236391   4.146   5.466  10.059 -0.1289 -0.5438  0.6863
 4967TIP3    H136392   4.083   5.522  10.104  0.8170  0.0610  1.2897
 4967TIP3    H236393   4.142   5.493   9.967 -0.2341 -0.0118  0.8498
 4968TIP3   OH236394   4.874   4.647  12.974 -1.0102 -0.1917 -0.7689
 4968TIP3    H136395   4.793   4.598  12.989  0.6473 -2.4182  1.3088
 4968TIP3    H236396   4.868   4.721  13.033 -3.3406  2.0479 -3.6193
 4969TIP3   OH236397   2.371   3.837   6.826  0.2226 -0.2382  0.1104
 4969TIP3    H136398   2.350   3.757   6.777 -0.4464 -0.0630  0.1066
 4969TIP3    H236399   2.466   3.835   6.834  0.4386  0.2158 -2.0244
 4970TIP3   OH236400   5.669   3.475  13.255  0.1334  0.0383 -0.1892
 4970TIP3    H136401   5.574   3.484  13.264  0.0479  1.1485 -1.9570
 4970TIP3    H236402   5.698   3.559  13.219  1.6005 -0.7678 -0.9406
 4971TIP3   OH236403   5.990   5.248  12.599  0.3824  0.1944 -0.0682
 4971TIP3    H136404   6.048   5.199  12.540 -0.1557  1.3782 -1.6057
 4971TIP3    H236405   5.902   5.217  12.577  0.3593 -1.2829  1.9613
 4972TIP3   OH236406   3.238   6.188  16.418 -0.2090 -0.1566  0.3964
 4972TIP3    H136407   3.268   6.098  16.403  0.9696  0.1584  0.9013
 4972TIP3    H236408   3.306   6.228  16.471 -0.4641  1.2094 -0.2869
 4973TIP3   OH236409   1.896   1.457  12.260  0.1057  0.0480  0.3230
 4973TIP3    H136410   1.816   1.408  12.282 -0.4538  0.4486 -0.7626
 4973TIP3    H236411   1.873   1.549  12.274  0.6183  0.1152  0.7358
 4974TIP3   OH236412   5.868   0.271  15.652 -0.5167 -0.4334 -0.0901
 4974TIP3    H136413   5.904   0.346  15.699 -0.4273 -0.3701 -0.2623
 4974TIP3    H236414   5.941   0.236  15.601  0.2033 -2.3435  2.1162
 4975TIP3   OH236415   4.609   6.819   1.675  0.5717  0.3382 -0.1077
 4975TIP3    H136416   4.593   6.733   1.716  1.8224  0.3502  0.4344
 4975TIP3    H236417   4.591   6.882   1.745  0.7105  0.4619 -0.1837
 4976TIP3   OH236418   5.631   1.359  11.610  0.0461 -0.2441 -0.2008
 4976TIP3    H136419   5.661   1.426  11.548 -0.7967  1.4701  1.2027
 4976TIP3    H236420   5.554   1.321  11.569  0.4930 -0.3336 -0.9814
 4977TIP3   OH236421   1.703   4.457   5.661  0.6268  0.1605  0.4477
 4977TIP3    H136422   1.679   4.549   5.652  1.1144  0.1690 -0.9009
 4977TIP3    H236423   1.687   4.437   5.753 -1.4155  1.0342  0.3049
 4978TIP3   OH236424   5.550   0.751   1.621  0.2371 -0.6108 -0.5365
 4978TIP3    H136425   5.485   0.704   1.674  0.8520 -2.2017 -1.1653
 4978TIP3    H236426   5.622   0.770   1.681 -0.3104  0.1771 -0.1110
 4979TIP3   OH236427   2.873   4.542  13.898  0.2449  0.5705  0.6954
 4979TIP3    H136428   2.880   4.634  13.926 -0.1736  0.6074  0.6867
 4979TIP3    H236429   2.783   4.534  13.866 -0.1354 -0.1785  1.8999
 4980TIP3   OH236430   2.541   3.182   0.181  0.1036 -0.1692 -0.3058
 4980TIP3    H136431   2.491   3.201   0.260  0.7375  0.1460  0.0154
 4980TIP3    H236432   2.627   3.156   0.212  0.5040  0.4104 -0.9140
 4981TIP3   OH236433   0.839   3.500  11.572 -0.3130 -0.7023 -0.0986
 4981TIP3    H136434   0.870   3.438  11.506 -0.4119  0.5864 -1.3829
 4981TIP3    H236435   0.748   3.517  11.549 -0.1343  0.3335 -0.0823
 4982TIP3   OH236436   5.866   5.704  15.443 -0.5840  0.2356  0.4940
 4982TIP3    H136437   5.832   5.792  15.463 -0.2720  0.5698 -0.4280
 4982TIP3    H236438   5.789   5.648  15.445 -1.2068  0.9807 -1.5289
 4983TIP3   OH236439   4.319   2.564  13.486  1.2085  0.1973 -0.4904
 4983TIP3    H136440   4.350   2.631  13.547  1.6085 -0.1602 -0.2962
 4983TIP3    H236441   4.389   2.556  13.422  0.8949  0.3950 -0.8541
 4984TIP3   OH236442   6.286   1.534  11.026  0.0871 -0.6869 -0.1222
 4984TIP3    H136443   6.332   1.577  10.954  0.9602  1.3484  1.5982
 4984TIP3    H236444   6.194   1.558  11.012  0.0369 -1.5427 -1.3744
 4985TIP3   OH236445   0.545   4.121   2.260 -0.3064  0.3434 -0.2420
 4985TIP3    H136446   0.635   4.118   2.228  0.7538  1.4024  2.4770
 4985TIP3    H236447   0.513   4.207   2.234  0.3172  0.9235  0.8448
 4986TIP3   OH236448   0.272   5.760  14.098  0.1326  0.0621 -0.4616
 4986TIP3    H136449   0.218   5.681  14.098 -0.4392  0.4432 -1.4100
 4986TIP3    H236450   0.249   5.806  14.178  0.4270 -0.6999  0.0661
 4987TIP3   OH236451   5.771   6.625  17.215 -0.2850 -0.0048  0.3162
 4987TIP3    H136452   5.710   6.586  17.152 -1.5692 -0.3853  1.7587
 4987TIP3    H236453   5.852   6.577  17.203 -0.9258 -0.9904 -0.1226
 4988TIP3   OH236454   2.603   6.739  14.052  0.3498  0.5282  0.2773
 4988TIP3    H136455   2.585   6.645  14.051 -0.7143  0.7071  1.1918
 4988TIP3    H236456   2.597   6.766  13.960  2.0021 -0.5304 -0.1500
 4989TIP3   OH236457   0.803   5.904  16.487  0.5487 -0.3662  0.5918
 4989TIP3    H136458   0.796   5.814  16.519 -0.9055 -0.0157  1.3231
 4989TIP3    H236459   0.717   5.923  16.449  0.7333  0.8151  0.7352
 4990TIP3   OH236460   0.738   1.063   1.621 -0.1123 -0.3392 -0.6959
 4990TIP3    H136461   0.833   1.055   1.607  0.1849  0.5647  0.7907
 4990TIP3    H236462   0.710   1.128   1.557  0.2910 -0.4446 -0.9855
 4991TIP3   OH236463   5.924   3.204   6.607  0.6119  0.0519  0.4659
 4991TIP3    H136464   5.834   3.178   6.627  0.3252 -0.5254 -1.4508
 4991TIP3    H236465   5.915   3.278   6.547  1.3974 -0.8879 -0.8410
 4992TIP3   OH236466   0.029   2.305   3.968  0.4938 -0.1411  0.0812
 4992TIP3    H136467   0.081   2.371   3.922  0.4382 -0.8345 -0.9969
 4992TIP3    H236468  -0.055   2.304   3.921  0.5249 -1.0322  0.0532
 4993TIP3   OH236469   6.045   2.016   0.933 -0.4310  0.3930 -0.1754
 4993TIP3    H136470   6.012   1.957   0.866 -0.7545  1.1344 -0.6765
 4993TIP3    H236471   6.038   1.966   1.015 -1.4972  0.0382 -0.4750
 4994TIP3   OH236472   5.663   4.031  14.228  0.0078 -0.0751  0.2405
 4994TIP3    H136473   5.583   4.078  14.205 -0.8099 -1.5660 -0.0674
 4994TIP3    H236474   5.708   4.018  14.145 -0.6002 -1.2665  0.0711
 4995TIP3   OH236475   4.137   1.238  12.716  0.4761 -0.3622  0.1433
 4995TIP3    H136476   4.096   1.170  12.663  0.6643  0.3958 -0.9920
 4995TIP3    H236477   4.154   1.309  12.655  0.3231  0.6973  1.3082
 4996TIP3   OH236478   2.108   1.304  12.401  0.0865 -0.2828  0.3546
 4996TIP3    H136479   2.050   1.230  12.383  1.5291 -0.8517 -2.1740
 4996TIP3    H236480   2.072   1.376  12.349 -0.0019  0.1615  1.0250
 4997TIP3   OH236481   2.450   3.083   4.739  0.1999  0.3230  0.1418
 4997TIP3    H136482   2.417   3.142   4.807 -1.2404 -1.1373  0.7336
 4997TIP3    H236483   2.382   3.084   4.672  0.9990  0.7113 -0.6638
 4998TIP3   OH236484   1.885   1.687   5.919 -0.6630  0.1731 -0.0808
 4998TIP3    H136485   1.814   1.663   5.978  0.4523 -0.3566  1.0914
 4998TIP3    H236486   1.958   1.632   5.947 -0.1291 -0.1227 -2.0141
 4999TIP3   OH236487   1.716   3.986  15.288  0.1997 -0.3992 -0.3391
 4999TIP3    H136488   1.741   4.078  15.283  0.5031 -0.5786 -2.9681
 4999TIP3    H236489   1.782   3.945  15.344 -0.8599  1.2492  2.1812
 5000TIP3   OH236490   3.334   5.092  12.322  0.7618 -0.0857  0.0361
 5000TIP3    H136491   3.314   5.102  12.415  2.0341 -1.7118  0.5126
 5000TIP3    H236492   3.262   5.136  12.277 -0.3964 -0.1648  1.7647
 5001TIP3   OH236493   4.481   6.238   5.789 -0.0397  0.2265  0.6069
 5001TIP3    H136494   4.412   6.276   5.735  0.7537 -0.8130 -1.1818
 5001TIP3    H236495   4.442   6.159   5.827 -0.2014  0.2722  0.5346
 5002TIP3   OH236496   2.014   1.498  16.106 -0.6381  0.6043  0.0002
 5002TIP3    H136497   2.073   1.500  16.181  1.4515  0.0572 -1.5666
 5002TIP3    H236498   2.041   1.421  16.055 -2.7946  0.2658 -0.7111
 5003TIP3   OH236499   4.661   4.582  16.094  0.7614 -0.2491 -0.7409
 5003TIP3    H136500   4.620   4.528  16.161  0.0130  0.3748 -0.6849
 5003TIP3    H236501   4.755   4.579  16.113  0.4984  0.4348  0.7075
 5004TIP3   OH236502   5.141   3.509   2.121 -0.5863 -0.3476  0.2125
 5004TIP3    H136503   5.052   3.483   2.096 -1.4420  1.5062  1.2077
 5004TIP3    H236504   5.145   3.492   2.216  0.7454 -2.1077 -0.1276
 5005TIP3   OH236505   3.849   5.121   5.051 -0.5063  0.5198  0.2018
 5005TIP3    H136506   3.885   5.170   4.977  0.2147  0.7462  0.6993
 5005TIP3    H236507   3.763   5.090   5.020 -0.2574  0.7057 -0.6852
 5006TIP3   OH236508   1.579   0.230  16.529 -0.0752 -0.3595  0.2049
 5006TIP3    H136509   1.508   0.286  16.559 -1.8402 -1.5610 -1.6116
 5006TIP3    H236510   1.557   0.143  16.564  1.7185 -0.3051  1.5413
 5007TIP3   OH236511   6.774   2.737  13.089  0.4881 -0.2587 -1.2472
 5007TIP3    H136512   6.775   2.832  13.079  0.1812  0.1114  1.6413
 5007TIP3    H236513   6.857   2.716  13.130  0.1893 -1.1275 -1.0757
 5008TIP3   OH236514   4.043   3.753  13.884 -0.3877 -0.1294  0.3421
 5008TIP3    H136515   4.009   3.665  13.865  2.2110 -0.8385 -1.3648
 5008TIP3    H236516   4.045   3.758  13.979  0.2205 -2.2518  0.4665
 5009TIP3   OH236517   0.529   1.381  14.459  0.3743  0.3731 -0.2137
 5009TIP3    H136518   0.542   1.321  14.386  2.0797 -0.1628  0.5110
 5009TIP3    H236519   0.594   1.451  14.445  1.0581  0.0116  1.0298
 5010TIP3   OH236520   5.885   4.405   5.696 -0.0772 -0.1087 -0.0866
 5010TIP3    H136521   5.962   4.406   5.752  0.0406  1.0645 -0.2678
 5010TIP3    H236522   5.895   4.326   5.643 -0.7888 -1.9235  2.3625
 5011TIP3   OH236523   1.669   5.909   2.339  0.3280  0.7480  0.4727
 5011TIP3    H136524   1.691   5.906   2.246 -1.0197  0.0535  0.1606
 5011TIP3    H236525   1.653   5.818   2.363 -1.6482  1.1716  0.8113
 5012TIP3   OH236526   1.485   5.549   1.343  0.6447  0.2667 -0.2969
 5012TIP3    H136527   1.573   5.587   1.338  0.8390 -0.0296  0.8528
 5012TIP3    H236528   1.462   5.533   1.251  1.8280  0.2631 -0.6098
 5013TIP3   OH236529   1.447   4.031  14.048 -0.1348  0.0837 -0.0622
 5013TIP3    H136530   1.501   3.975  14.102 -0.6804 -0.3754  0.0189
 5013TIP3    H236531   1.454   3.994  13.960 -0.4928 -0.1145 -0.0092
 5014TIP3   OH236532   2.207   0.734  12.943  0.5134 -0.2026 -0.4080
 5014TIP3    H136533   2.202   0.749  12.849 -1.9037 -2.7195 -0.7186
 5014TIP3    H236534   2.128   0.776  12.978  0.3345 -1.0565  0.2315
 5015TIP3   OH236535   3.774   3.354   0.152  0.3742  0.3732 -0.2822
 5015TIP3    H136536   3.797   3.284   0.091 -1.3669  1.6119 -2.4346
 5015TIP3    H236537   3.829   3.428   0.124  0.5764  0.5299  0.5321
 5016TIP3   OH236538   1.769   1.555   4.440  0.3106 -0.3434 -0.7108
 5016TIP3    H136539   1.727   1.542   4.525  1.4646 -1.2534 -0.2671
 5016TIP3    H236540   1.697   1.581   4.382 -0.0833  3.1413  1.1475
 5017TIP3   OH236541   2.130   6.353  14.323  0.4044  0.0826  0.5343
 5017TIP3    H136542   2.107   6.393  14.238 -1.1067  0.8192  1.2562
 5017TIP3    H236543   2.224   6.367  14.331  0.8519 -1.3009 -1.6789
 5018TIP3   OH236544   2.858   5.161  11.292 -0.0504  0.3179  0.0362
 5018TIP3    H136545   2.891   5.114  11.368 -0.4168 -1.9533 -1.1391
 5018TIP3    H236546   2.934   5.206  11.256  0.9072 -1.5350 -0.3049
 5019TIP3   OH236547   4.593   6.466   4.227 -0.2618 -0.1964 -0.1672
 5019TIP3    H136548   4.543   6.476   4.308  0.5294  2.1404  0.0728
 5019TIP3    H236549   4.638   6.550   4.216  0.9412 -1.0668 -2.1606
 5020TIP3   OH236550   3.357   5.778   3.219  0.5876  0.6167 -0.2221
 5020TIP3    H136551   3.313   5.764   3.135  1.2238 -0.1671 -0.4340
 5020TIP3    H236552   3.430   5.836   3.199  0.7544  0.4092 -0.2131
 5021TIP3   OH236553   1.897   1.917   3.169 -0.1583 -0.1509  0.3847
 5021TIP3    H136554   1.847   1.845   3.204 -0.4002 -0.1735 -0.0040
 5021TIP3    H236555   1.866   1.927   3.079  1.7756 -1.3204 -0.4382
 5022TIP3   OH236556   5.720   6.447  16.813  0.2397  0.4003 -0.2148
 5022TIP3    H136557   5.780   6.374  16.795  0.9580  1.0936 -0.6838
 5022TIP3    H236558   5.754   6.519  16.760 -0.0335  1.2934  0.8236
 5023TIP3   OH236559   6.330   0.585   0.886  0.3631 -0.3314 -0.2747
 5023TIP3    H136560   6.273   0.640   0.833 -0.1402 -0.7261 -0.1467
 5023TIP3    H236561   6.396   0.645   0.921 -0.0173  0.1349 -0.3586
 5024TIP3   OH236562   4.619   4.789   5.387  0.3269  0.2620 -0.4841
 5024TIP3    H136563   4.656   4.820   5.469  1.6685  0.7335 -1.2702
 5024TIP3    H236564   4.687   4.802   5.322 -1.1593  1.0202 -1.9286
 5025TIP3   OH236565   6.324   4.389   6.083  0.5072  0.8279 -0.8653
 5025TIP3    H136566   6.340   4.302   6.120  0.5294  1.9003  1.7014
 5025TIP3    H236567   6.379   4.448   6.134 -5.1002  3.4241  2.6407
 5026TIP3   OH236568   0.311   5.451   0.143  0.5309  0.1869 -0.1069
 5026TIP3    H136569   0.351   5.367   0.164  1.8113  0.6318 -0.6846
 5026TIP3    H236570   0.283   5.442   0.052 -2.3582 -0.7406  0.8396
 5027TIP3   OH236571   6.161   4.082   5.902  0.1364 -0.5590  0.2376
 5027TIP3    H136572   6.221   4.129   5.843 -1.0033 -0.7039 -1.0763
 5027TIP3    H236573   6.166   3.991   5.873 -2.8984 -0.1294 -1.8643
 5028TIP3   OH236574   3.722   1.691   3.038 -0.2965  0.6320  0.0320
 5028TIP3    H136575   3.715   1.663   3.129  0.4050  1.6697  0.4114
 5028TIP3    H236576   3.638   1.667   2.999 -0.3076 -0.5343  0.7404
 5029TIP3   OH236577   1.031   1.133  12.091 -0.3728 -0.4110 -0.0703
 5029TIP3    H136578   1.096   1.130  12.021 -0.3498 -1.4996 -0.0114
 5029TIP3    H236579   0.947   1.115  12.047 -0.4723 -0.2323  0.0464
 5030TIP3   OH236580   0.039   2.953  12.462  0.4858 -0.1020  0.3651
 5030TIP3    H136581  -0.046   2.971  12.424  0.1694 -1.6925  0.2921
 5030TIP3    H236582   0.099   2.950  12.387  0.7223  1.5528  0.4645
 5031TIP3   OH236583   4.206   6.245  17.006  0.1673 -0.5113  0.2071
 5031TIP3    H136584   4.118   6.231  17.043  0.3400 -2.1639  0.0472
 5031TIP3    H236585   4.190   6.268  16.915 -0.1244  0.0502  0.3956
 5032TIP3   OH236586   1.829   0.810   5.582 -0.5950  0.1411  0.2165
 5032TIP3    H136587   1.924   0.809   5.577 -0.6265 -1.6971 -0.1551
 5032TIP3    H236588   1.807   0.903   5.589  1.0908  0.7839 -2.1786
 5033TIP3   OH236589   2.889   3.480   2.524 -0.0976  0.6344 -0.3800
 5033TIP3    H136590   2.921   3.514   2.607 -0.8389 -1.0261  0.6042
 5033TIP3    H236591   2.821   3.542   2.498 -2.2764 -0.6477  1.9957
 5034TIP3   OH236592   3.336   3.072  17.156 -0.1861 -0.7921 -0.2990
 5034TIP3    H136593   3.261   3.051  17.210 -0.0175 -0.3907  0.0957
 5034TIP3    H236594   3.299   3.089  17.069 -0.7769  1.1626  0.2972
 5035TIP3   OH236595   0.915   3.448   5.733  0.1014  0.9815  0.1360
 5035TIP3    H136596   0.973   3.522   5.713 -0.1852  1.7223  1.9320
 5035TIP3    H236597   0.839   3.489   5.775  0.4579 -0.4314  2.2180
 5036TIP3   OH236598   4.588   1.248  12.536  0.0172  0.3725  0.2574
 5036TIP3    H136599   4.580   1.184  12.607 -0.8967 -1.0973 -1.1205
 5036TIP3    H236600   4.679   1.241  12.508 -0.3312 -1.1123 -0.5669
 5037TIP3   OH236601   3.036   2.424   0.235  0.2409 -0.4331 -0.8845
 5037TIP3    H136602   3.093   2.446   0.308  0.7002  0.0243 -1.3754
 5037TIP3    H236603   2.957   2.477   0.249  0.8576  0.6618 -1.4156
 5038TIP3   OH236604   6.778   1.640  12.940  0.1538  0.3245 -0.5182
 5038TIP3    H136605   6.838   1.580  12.985 -0.0426  0.9938  0.6805
 5038TIP3    H236606   6.692   1.599  12.949  0.3341 -0.3202 -1.6765
 5039TIP3   OH236607   4.711   6.791  17.160  0.2919 -0.2705  0.7150
 5039TIP3    H136608   4.626   6.776  17.119  0.3009  0.2778  0.4919
 5039TIP3    H236609   4.693   6.852  17.232  0.1392 -1.8728  2.0604
 5040TIP3   OH236610   2.443   6.106   4.405  0.0975 -0.3759 -0.0272
 5040TIP3    H136611   2.414   6.038   4.466  0.2841 -0.2939  0.1553
 5040TIP3    H236612   2.423   6.071   4.318  0.1343 -0.6364  0.0689
 5041TIP3   OH236613   4.830   0.957  12.471  0.1112 -0.4927  0.6657
 5041TIP3    H136614   4.841   1.050  12.448 -0.2588 -0.2013  1.6539
 5041TIP3    H236615   4.741   0.951  12.506  0.6554 -0.9284  1.9965
 5042TIP3   OH236616   6.696   4.625  13.910  0.2263 -0.0777  0.1848
 5042TIP3    H136617   6.725   4.626  14.001  0.2384  1.3495  0.1748
 5042TIP3    H236618   6.776   4.632  13.858  0.1224  0.4276  0.0914
 5043TIP3   OH236619   6.735   3.716  12.254 -0.1127  0.4979  0.8674
 5043TIP3    H136620   6.648   3.746  12.281  0.7242  1.9092  2.0523
 5043TIP3    H236621   6.744   3.629  12.294 -1.6193 -0.3973 -0.6554
 5044TIP3   OH236622   5.567   5.509   5.674  0.4675 -0.0370 -0.3910
 5044TIP3    H136623   5.486   5.550   5.643  0.0063  0.2056  1.0775
 5044TIP3    H236624   5.612   5.579   5.722 -0.4808 -1.2896  2.4217
 5045TIP3   OH236625   2.404   1.953  11.598 -0.1204  0.6154 -0.4400
 5045TIP3    H136626   2.458   2.007  11.655 -0.8579  1.0765 -0.1719
 5045TIP3    H236627   2.429   1.978  11.509  0.6665  0.2566 -0.3216
 5046TIP3   OH236628   5.773   2.160  15.427 -0.0867  0.4298 -0.2410
 5046TIP3    H136629   5.813   2.110  15.356  3.6173 -0.1396  2.1058
 5046TIP3    H236630   5.736   2.094  15.486 -0.5915  0.7439 -0.2021
 5047TIP3   OH236631   0.605   1.560   4.423 -0.5010  0.1466 -0.4847
 5047TIP3    H136632   0.625   1.604   4.340 -0.8608 -2.3369 -1.9373
 5047TIP3    H236633   0.675   1.588   4.482  0.8024  0.5079 -2.1628
 5048TIP3   OH236634   1.391   0.885  16.699 -0.3492  0.3002  0.4202
 5048TIP3    H136635   1.457   0.880  16.767 -2.3076 -1.2230  2.3012
 5048TIP3    H236636   1.339   0.962  16.722  0.8167  1.5843 -1.1379
 5049TIP3   OH236637   5.681   5.602  15.997  0.4520  0.0260  0.1429
 5049TIP3    H136638   5.730   5.626  15.919  1.2936 -0.0761  0.6343
 5049TIP3    H236639   5.599   5.566  15.964  0.0304  1.6812 -0.6641
 5050TIP3   OH236640   0.070   3.442  12.159 -0.3889  0.9015 -0.2349
 5050TIP3    H136641   0.014   3.417  12.232 -1.4902  1.4567 -0.8871
 5050TIP3    H236642   0.129   3.368  12.147 -1.8505 -0.2538 -0.4065
 5051TIP3   OH236643   4.022   2.058  17.281  0.0654 -0.1371 -0.1885
 5051TIP3    H136644   3.931   2.061  17.310  0.0323  0.1876 -0.3262
 5051TIP3    H236645   4.022   1.998  17.207 -0.1047  0.1552 -0.4275
 5052TIP3   OH236646   2.832   5.032  15.907  0.2809 -0.5471  0.1868
 5052TIP3    H136647   2.843   5.127  15.905 -1.9938 -0.2832 -0.2631
 5052TIP3    H236648   2.806   5.009  15.818  0.5288 -1.5620  0.3738
 5053TIP3   OH236649   4.083   3.024  16.271 -0.2765  0.7998  0.1239
 5053TIP3    H136650   4.058   3.023  16.363 -0.1081  1.9487  0.1969
 5053TIP3    H236651   4.047   3.106  16.237  0.0681  0.6158 -0.7121
 5054TIP3   OH236652   3.370   2.029   5.783 -0.6693 -0.4467  0.0526
 5054TIP3    H136653   3.377   2.048   5.876 -0.8013 -1.1370  0.2089
 5054TIP3    H236654   3.450   1.980   5.763  0.3696  1.4619 -0.6513
 5055TIP3   OH236655   2.807   6.380  14.788  0.4642  0.5106  0.9153
 5055TIP3    H136656   2.775   6.290  14.779 -1.9439  1.5808 -2.7730
 5055TIP3    H236657   2.845   6.384  14.876 -1.0009 -3.5789  1.8526
 5056TIP3   OH236658   5.099   6.791   6.651 -0.3441 -0.7292 -0.2976
 5056TIP3    H136659   5.009   6.808   6.680 -0.4477 -0.4613 -0.7595
 5056TIP3    H236660   5.091   6.779   6.556  0.2799  0.5891 -0.5413
 5057TIP3   OH236661   6.223   0.793  12.455 -0.2354  0.3043 -0.0242
 5057TIP3    H136662   6.230   0.882  12.421  1.0129  0.6062  0.9632
 5057TIP3    H236663   6.210   0.804  12.549 -0.2152 -0.5491  0.0824
 5058TIP3   OH236664   0.272   4.765   0.382 -0.2552  0.0320  0.5078
 5058TIP3    H136665   0.276   4.767   0.286 -1.5112  1.0681  0.4676
 5058TIP3    H236666   0.274   4.671   0.404 -0.2445 -0.2223 -0.5350
 5059TIP3   OH236667   3.139   5.315  12.951  0.9201  0.2344  0.0948
 5059TIP3    H136668   3.143   5.371  12.873 -0.7924 -0.0682 -0.2110
 5059TIP3    H236669   3.112   5.230  12.918  0.6513 -0.0176  0.9644
 5060TIP3   OH236670   3.320   2.799  13.801  0.2581 -0.4363 -0.2258
 5060TIP3    H136671   3.358   2.730  13.746  1.7781 -1.2465  1.8079
 5060TIP3    H236672   3.227   2.776  13.806  0.1757 -0.5924 -2.0842
 5061TIP3   OH236673   4.005   0.257   3.596  0.1559 -0.0941  0.3684
 5061TIP3    H136674   4.064   0.186   3.572  0.2666  0.3558 -0.7174
 5061TIP3    H236675   3.922   0.234   3.553 -0.2570 -0.3362  1.2672
 5062TIP3   OH236676   4.320   4.058   0.817  0.1505 -0.2819  1.1034
 5062TIP3    H136677   4.237   4.082   0.859 -0.5150  0.4989 -0.5907
 5062TIP3    H236678   4.307   3.968   0.787 -0.6435  0.3094 -0.4156
 5063TIP3   OH236679   0.698   0.416  10.758  0.5415 -0.4550 -0.3833
 5063TIP3    H136680   0.717   0.336  10.808 -0.2155 -1.7797 -2.1326
 5063TIP3    H236681   0.605   0.410  10.739  0.1956  1.5667  0.6299
 5064TIP3   OH236682   0.823   0.410  16.415  0.6916 -0.2506  0.0191
 5064TIP3    H136683   0.870   0.486  16.450  1.7432 -1.1138  0.5268
 5064TIP3    H236684   0.781   0.370  16.491  0.5352 -0.4413 -0.1649
 5065TIP3   OH236685   0.153   0.740   1.479  0.0321 -0.3152  0.1971
 5065TIP3    H136686   0.247   0.731   1.495 -0.0071 -1.2797 -0.0971
 5065TIP3    H236687   0.132   0.669   1.418 -0.7011  0.4923 -0.5021
 5066TIP3   OH236688   1.106   2.655  12.189  0.0652  0.4308  0.0582
 5066TIP3    H136689   1.191   2.656  12.232 -0.9521  1.4462  2.0973
 5066TIP3    H236690   1.121   2.697  12.104  2.1762 -1.9659 -0.8093
 5067TIP3   OH236691   0.650   5.769  12.585 -0.2396 -0.5376 -0.3830
 5067TIP3    H136692   0.732   5.736  12.621 -0.9286 -1.4609  0.3538
 5067TIP3    H236693   0.582   5.737  12.644 -1.1862 -0.2461 -1.2827
 5068TIP3   OH236694   5.292   2.937  16.026 -0.0620  0.1771  0.6124
 5068TIP3    H136695   5.246   2.886  15.959 -0.5995 -0.5426  1.5224
 5068TIP3    H236696   5.267   3.027  16.009  0.7145  0.1350 -0.8766
 5069TIP3   OH236697   4.564   0.985  12.621 -0.4079  0.0480  0.1853
 5069TIP3    H136698   4.506   1.030  12.683 -0.1198 -0.3929  0.7912
 5069TIP3    H236699   4.505   0.937  12.563 -0.6541 -1.0177  1.2803
 5070TIP3   OH236700   3.688   1.943   3.337 -0.5941 -0.1925  0.0134
 5070TIP3    H136701   3.685   1.899   3.252 -3.3843 -1.7066  0.8172
 5070TIP3    H236702   3.596   1.958   3.359  0.1589  2.2706  1.7314
 5071TIP3   OH236703   4.631   3.133  13.188  0.2653  0.3166  0.1350
 5071TIP3    H136704   4.685   3.070  13.141  0.0646  0.8917 -0.8933
 5071TIP3    H236705   4.542   3.118  13.155  0.3924  1.8855 -0.9727
 5072TIP3   OH236706   0.528   6.811   3.474 -0.3608 -0.0740  0.6388
 5072TIP3    H136707   0.556   6.877   3.410 -0.5525 -1.8137 -1.2659
 5072TIP3    H236708   0.596   6.743   3.469 -2.4188 -2.0796 -0.5732
 5073TIP3   OH236709   1.885   4.538   5.403  0.5301  0.7388  0.0162
 5073TIP3    H136710   1.822   4.516   5.472  1.0064 -1.5687 -0.2629
 5073TIP3    H236711   1.966   4.558   5.450  0.1460  1.7811  0.2574
 5074TIP3   OH236712   1.616   2.873   4.977 -0.2102 -0.0916  0.5513
 5074TIP3    H136713   1.588   2.929   4.905 -0.4977  0.6424  1.2207
 5074TIP3    H236714   1.535   2.839   5.014 -0.1356  0.5753  1.3399
 5075TIP3   OH236715   4.063   5.821  11.880 -0.6848  0.1825  0.0030
 5075TIP3    H136716   4.069   5.812  11.785 -0.3094 -0.4444  0.0792
 5075TIP3    H236717   4.050   5.732  11.912  1.5070  0.0772  0.7014
 5076TIP3   OH236718   5.395   2.825  16.774 -0.0641 -0.3088  0.8576
 5076TIP3    H136719   5.468   2.878  16.741 -2.2057  1.1926 -1.6887
 5076TIP3    H236720   5.357   2.877  16.844  1.5690 -1.3120  2.5156
 5077TIP3   OH236721   6.029   4.971  16.991 -0.3462  0.2585  0.3680
 5077TIP3    H136722   6.054   4.900  16.931  0.0614  0.5789  0.1553
 5077TIP3    H236723   6.067   4.946  17.075 -1.4591 -0.5131  0.6596
 5078TIP3   OH236724   0.282   3.170  12.282 -0.2814 -0.0707  0.1293
 5078TIP3    H136725   0.323   3.252  12.311  4.0585 -1.2689 -2.3091
 5078TIP3    H236726   0.309   3.106  12.348 -0.7291 -0.2971  0.0929
 5079TIP3   OH236727   1.282   4.349   1.373  0.8217 -0.1293  0.1722
 5079TIP3    H136728   1.360   4.403   1.387  1.2056  0.1972 -2.9782
 5079TIP3    H236729   1.317   4.259   1.370  0.8102 -0.1510  0.5862
 5080TIP3   OH236730   1.777   3.943   0.013 -0.0881 -0.0665  0.6575
 5080TIP3    H136731   1.857   3.904   0.050  0.2709  0.3693  0.3446
 5080TIP3    H236732   1.706   3.897   0.057  0.3374 -0.3743  1.0338
 5081TIP3   OH236733   4.925   0.106  15.633  0.7739 -0.2846  0.2008
 5081TIP3    H136734   4.849   0.082  15.579  0.0569  0.6298  0.7908
 5081TIP3    H236735   4.907   0.195  15.661  2.2055  0.0296  0.1398
 5082TIP3   OH236736   5.249   3.455  16.038 -0.2523 -0.2165 -0.3127
 5082TIP3    H136737   5.320   3.468  15.975 -0.6377  1.3465 -0.4638
 5082TIP3    H236738   5.288   3.402  16.108  0.1249 -2.1232 -1.9303
 5083TIP3   OH236739   4.952   4.310  16.270  0.4866 -0.4099 -0.2421
 5083TIP3    H136740   4.983   4.225  16.241 -1.3658 -0.4876 -2.0341
 5083TIP3    H236741   4.936   4.359  16.190 -2.4799  0.1802  0.6574
 5084TIP3   OH236742   1.393   3.155   3.801 -0.5279 -0.2672  0.0204
 5084TIP3    H136743   1.478   3.197   3.816  0.2811 -2.0002  0.4539
 5084TIP3    H236744   1.404   3.066   3.835 -2.4678 -0.5724 -0.0944
 5085TIP3   OH236745   5.731   2.522   4.751 -0.5485  0.2952  0.5120
 5085TIP3    H136746   5.782   2.604   4.753 -0.5860  0.3104  1.5067
 5085TIP3    H236747   5.654   2.543   4.699 -0.7550  1.0311  1.0894
 5086TIP3   OH236748   0.237   4.655  15.275 -0.3354 -0.2687  0.0916
 5086TIP3    H136749   0.252   4.587  15.209 -4.1842 -0.5839 -0.5619
 5086TIP3    H236750   0.159   4.625  15.322  0.4725  1.5776  2.6765
 5087TIP3   OH236751   2.767   5.086   0.627  0.3538  0.1925 -0.1832
 5087TIP3    H136752   2.840   5.046   0.674  0.7719  0.4322 -0.6283
 5087TIP3    H236753   2.781   5.063   0.536  0.1891  0.7133 -0.3446
 5088TIP3   OH236754   5.197   6.374   4.249  0.1214 -0.1258  0.1711
 5088TIP3    H136755   5.129   6.368   4.181  0.8688 -0.1664 -0.5792
 5088TIP3    H236756   5.175   6.454   4.297 -0.2831  0.0256 -0.2573
 5089TIP3   OH236757   6.741   0.403  11.107 -0.0567 -0.6025 -0.2056
 5089TIP3    H136758   6.773   0.339  11.043 -0.0619  0.3138 -1.1382
 5089TIP3    H236759   6.649   0.416  11.085  0.0952  0.1813 -0.4231
 5090TIP3   OH236760   1.845   0.665  12.793 -0.0219 -0.2441 -0.0225
 5090TIP3    H136761   1.809   0.685  12.880  1.1514 -0.7706  0.5861
 5090TIP3    H236762   1.811   0.577  12.773 -0.1835 -0.1766 -0.0508
 5091TIP3   OH236763   3.263   1.851  17.172 -0.4983  0.1039 -0.6797
 5091TIP3    H136764   3.229   1.917  17.112 -0.6105 -0.1372 -0.8810
 5091TIP3    H236765   3.294   1.780  17.115 -1.4294 -0.5238 -0.4170
 5092TIP3   OH236766   5.185   6.119   5.731 -0.5508  0.1775 -0.7428
 5092TIP3    H136767   5.262   6.131   5.785 -0.0587 -1.1084 -1.1479
 5092TIP3    H236768   5.128   6.193   5.753  0.9711  1.3640 -0.7588
 5093TIP3   OH236769   5.018   0.473   4.706 -0.0507 -0.2601  0.0042
 5093TIP3    H136770   4.984   0.503   4.621  1.2237  2.4688  0.4004
 5093TIP3    H236771   4.945   0.487   4.767 -1.0668 -2.4901 -0.6514
 5094TIP3   OH236772   1.959   1.630   2.638 -0.0406 -0.0408  0.3259
 5094TIP3    H136773   1.900   1.676   2.579 -1.3393 -0.5490  1.2029
 5094TIP3    H236774   2.044   1.674   2.627 -0.1992 -0.2838 -2.0590
 5095TIP3   OH236775   1.187   0.368  11.766 -0.1063  0.5791 -0.2750
 5095TIP3    H136776   1.183   0.406  11.679  1.6339  2.4935  0.4448
 5095TIP3    H236777   1.121   0.416  11.816 -1.9489 -1.3350 -0.8048
 5096TIP3   OH236778   5.081   3.312   5.047 -0.0337  0.3670  0.3701
 5096TIP3    H136779   5.118   3.283   4.963  1.3968  2.1504  0.3465
 5096TIP3    H236780   4.988   3.326   5.029 -0.4505 -2.5707 -0.0073
 5097TIP3   OH236781   5.608   5.370   3.031  0.4080 -0.0596 -0.4037
 5097TIP3    H136782   5.676   5.420   2.987  1.3727 -2.0068 -1.1366
 5097TIP3    H236783   5.651   5.332   3.108  0.0698 -0.9930 -0.6669
 5098TIP3   OH236784   1.747   5.440   0.507 -0.3328 -0.0582  0.4893
 5098TIP3    H136785   1.723   5.370   0.567 -0.4510 -0.4642 -0.0257
 5098TIP3    H236786   1.683   5.510   0.524 -0.7928 -0.4418  0.3600
 5099TIP3   OH236787   6.412   5.524  17.010 -0.0988 -0.5527 -0.5009
 5099TIP3    H136788   6.456   5.486  17.087 -0.7842 -0.8513 -0.2580
 5099TIP3    H236789   6.413   5.618  17.027  1.9068 -0.4152 -1.2639
 5100TIP3   OH236790   6.104   2.765  13.916  0.0583 -0.4940  0.1798
 5100TIP3    H136791   6.143   2.810  13.990  1.9326 -1.0365 -0.4458
 5100TIP3    H236792   6.114   2.826  13.843  1.0132 -1.2014 -0.2879
 5101TIP3   OH236793   5.814   2.079  13.697  0.4650 -0.2509 -0.2162
 5101TIP3    H136794   5.890   2.082  13.639  1.6011  1.0833  1.2619
 5101TIP3    H236795   5.773   2.165  13.687 -0.1045 -0.4978 -0.0436
 5102TIP3   OH236796   1.512   4.412   0.931  0.3434 -0.0814 -0.0219
 5102TIP3    H136797   1.572   4.433   1.002  0.7509 -0.7283 -0.1727
 5102TIP3    H236798   1.425   4.414   0.971  0.6385 -1.2736  0.6923
 5103TIP3   OH236799   3.107   0.646   0.611  0.0979  0.2928  0.1422
 5103TIP3    H136800   3.189   0.635   0.562  0.2914  1.5805  0.1513
 5103TIP3    H236801   3.066   0.560   0.609  1.1957 -0.2279 -0.3367
 5104TIP3   OH236802   0.911   4.952   3.850  0.4978 -0.2581 -0.4430
 5104TIP3    H136803   0.985   5.011   3.847 -0.6134  1.2535  1.0633
 5104TIP3    H236804   0.941   4.878   3.904  0.5675  0.8661  1.0985
 5105TIP3   OH236805   0.731   4.988  10.705 -0.0747  0.6962 -0.5101
 5105TIP3    H136806   0.727   4.982  10.801  1.2235  1.1640 -0.4189
 5105TIP3    H236807   0.640   4.983  10.677 -0.5141  1.2391  0.7959
 5106TIP3   OH236808   3.659   4.965   4.365  0.4513 -0.7576 -0.2696
 5106TIP3    H136809   3.723   4.939   4.431 -1.4465 -1.0252  1.5070
 5106TIP3    H236810   3.600   4.890   4.358 -3.3497  1.7465  2.7578
 5107TIP3   OH236811   2.477   3.713  17.174  0.0595 -0.5076 -0.0668
 5107TIP3    H136812   2.507   3.794  17.133  1.9034 -0.3670  1.4648
 5107TIP3    H236813   2.557   3.661  17.184 -0.9755 -2.1662 -0.2497
 5108TIP3   OH236814   4.020   6.769   4.769  0.3512 -0.0077 -0.6577
 5108TIP3    H136815   4.003   6.675   4.768  0.8765 -0.0966 -1.6510
 5108TIP3    H236816   4.084   6.783   4.700 -0.1336  1.1622 -0.8868
 5109TIP3   OH236817   4.842   4.643   1.383  0.0333 -0.5905  0.4681
 5109TIP3    H136818   4.840   4.718   1.443  0.9271  0.0292 -0.2535
 5109TIP3    H236819   4.754   4.606   1.387  0.0675 -0.5466  2.1391
 5110TIP3   OH236820   4.565   5.262  13.326  0.2425 -0.3881  0.0970
 5110TIP3    H136821   4.552   5.309  13.244 -0.7417 -1.2970 -0.2804
 5110TIP3    H236822   4.478   5.231  13.350  0.8448 -1.8893  0.4115
 5111TIP3   OH236823   5.130   6.752   4.620  0.0189 -0.4056 -0.7448
 5111TIP3    H136824   5.130   6.829   4.675  0.2235 -1.1314  0.2873
 5111TIP3    H236825   5.058   6.698   4.654 -0.3548 -0.5059 -1.6814
 5112TIP3   OH236826   0.050   1.733   4.126 -0.4528  0.6046  0.5139
 5112TIP3    H136827  -0.031   1.772   4.091 -0.6296 -0.7034 -0.5882
 5112TIP3    H236828   0.120   1.783   4.084 -0.6884  0.8337  0.3879
 5113TIP3   OH236829   3.802   6.210   2.926  0.3157  0.0617  0.0079
 5113TIP3    H136830   3.773   6.120   2.912  0.8257 -0.3596  1.5973
 5113TIP3    H236831   3.845   6.234   2.843 -2.4731 -0.0776 -1.5410
 5114TIP3   OH236832   4.084   2.134  16.387 -0.1823  0.1908 -0.4796
 5114TIP3    H136833   4.023   2.165  16.320 -2.1728 -1.7465  0.3556
 5114TIP3    H236834   4.030   2.119  16.464  1.9488  1.6155  1.3704
 5115TIP3   OH236835   2.601   3.518   2.485 -0.8945  0.2149 -0.4423
 5115TIP3    H136836   2.635   3.607   2.470  1.2093 -0.4644  0.1974
 5115TIP3    H236837   2.506   3.529   2.480 -0.6443  2.2918 -1.5667
 5116TIP3   OH236838   5.430   0.934   1.242 -0.9178 -0.0959 -0.5084
 5116TIP3    H136839   5.383   0.862   1.200 -0.5434 -0.1035 -0.9168
 5116TIP3    H236840   5.408   1.011   1.189  0.4188 -0.2949 -1.3697
 5117TIP3   OH236841   6.378   5.518   4.177  0.6683  0.5188 -0.4517
 5117TIP3    H136842   6.457   5.488   4.132  0.9054  2.0705 -1.0884
 5117TIP3    H236843   6.386   5.613   4.178 -0.8623  0.6464  0.1131
 5118TIP3   OH236844   2.132   6.637  13.524 -0.4149 -0.3560  0.1548
 5118TIP3    H136845   2.177   6.568  13.475 -1.1347 -1.0918  0.5160
 5118TIP3    H236846   2.177   6.641  13.608  0.1633  0.2023 -0.1742
 5119TIP3   OH236847   1.279   6.306   5.148  0.0607 -0.4725  0.1311
 5119TIP3    H136848   1.341   6.346   5.209 -0.3023  0.2192  0.0570
 5119TIP3    H236849   1.251   6.226   5.191  1.0240 -0.8008  0.1572
 5120TIP3   OH236850   1.780   2.261   0.393  0.2804 -0.2587  0.1532
 5120TIP3    H136851   1.685   2.258   0.384  0.4568  0.0146 -2.0382
 5120TIP3    H236852   1.796   2.329   0.458 -0.8883  2.7294 -2.5787
 5121TIP3   OH236853   2.300   4.048  16.689 -0.6628  0.2900 -0.7002
 5121TIP3    H136854   2.290   4.003  16.773 -0.9578 -0.8821 -1.3509
 5121TIP3    H236855   2.301   3.978  16.624  0.4476  1.1207 -1.6108
 5122TIP3   OH236856   2.232   4.724   1.321 -0.3876 -0.4101  0.0485
 5122TIP3    H136857   2.271   4.674   1.250  2.5204  0.3666  1.0166
 5122TIP3    H236858   2.207   4.658   1.386 -0.4960 -0.9004 -0.4891
 5123TIP3   OH236859   2.272   5.742   1.412 -0.3557  0.5882  0.2911
 5123TIP3    H136860   2.212   5.695   1.469  0.6417 -0.1753  0.7308
 5123TIP3    H236861   2.336   5.676   1.385  0.1591  1.3341 -0.3414
 5124TIP3   OH236862   6.296   5.203   1.986  0.1585  0.3166  0.2412
 5124TIP3    H136863   6.217   5.214   1.932 -0.1547 -0.3108  0.5765
 5124TIP3    H236864   6.290   5.273   2.051  0.7248  1.3108 -0.7621
 5125TIP3   OH236865   4.389   3.644  15.619  0.0091 -0.1630  0.0518
 5125TIP3    H136866   4.465   3.612  15.571  0.2059  0.9144 -0.3659
 5125TIP3    H236867   4.410   3.629  15.711 -0.0129 -1.4564 -0.1529
 5126TIP3   OH236868   3.553   6.504   0.296  0.4714 -0.8682 -0.8268
 5126TIP3    H136869   3.520   6.436   0.355  0.4634 -0.4820 -0.3850
 5126TIP3    H236870   3.641   6.524   0.329  1.1083 -1.7908 -1.9115
 5127TIP3   OH236871   2.341   2.378  17.124  0.4499  0.1096 -0.4520
 5127TIP3    H136872   2.376   2.294  17.153  1.1207  0.5777  0.1061
 5127TIP3    H236873   2.358   2.380  17.030  2.3474  0.5126 -0.1258
 5128TIP3   OH236874   3.301   5.066   2.843 -0.2637  0.0529  0.3953
 5128TIP3    H136875   3.388   5.049   2.879  0.3928  0.0892 -1.1304
 5128TIP3    H236876   3.304   5.158   2.815 -0.8158  0.0721  0.3869
 5129TIP3   OH236877   3.107   2.231   2.972 -0.4381  0.1235  0.3572
 5129TIP3    H136878   3.172   2.269   3.031 -0.8338 -0.9522  1.5181
 5129TIP3    H236879   3.046   2.185   3.030 -1.7285  0.3482 -0.7739
 5130TIP3   OH236880   0.100   2.285  10.916 -0.0717 -0.5403 -0.5190
 5130TIP3    H136881   0.049   2.275  10.835 -0.0109  2.4268 -0.9798
 5130TIP3    H236882   0.036   2.276  10.986 -0.1783 -2.8132 -0.8499
 5131TIP3   OH236883   3.331   0.454   2.508 -0.4651 -0.0458  0.1422
 5131TIP3    H136884   3.303   0.375   2.463 -0.7244 -0.9808  1.8840
 5131TIP3    H236885   3.286   0.451   2.592  0.7127  1.1660  0.8444
 5132TIP3   OH236886   0.980   5.353   5.850 -0.0419 -0.1940  0.6120
 5132TIP3    H136887   1.036   5.350   5.927 -1.8342  1.7922  2.0575
 5132TIP3    H236888   0.892   5.339   5.883 -1.1680  3.3705 -0.6439
 5133TIP3   OH236889   4.117   4.514  14.025 -0.2247 -0.2520  0.1627
 5133TIP3    H136890   4.035   4.505  13.977  0.0178 -0.6094 -0.1911
 5133TIP3    H236891   4.095   4.490  14.115 -0.8328  1.1108  0.3766
 5134TIP3   OH236892   0.336   3.760  10.693  0.1078  0.2760 -0.0573
 5134TIP3    H136893   0.252   3.806  10.694 -0.5961 -0.9955  0.8602
 5134TIP3    H236894   0.369   3.766  10.783  0.3255 -0.4358 -0.0855
 5135TIP3   OH236895   0.520   4.279  16.030  0.2509 -0.0035  0.7659
 5135TIP3    H136896   0.454   4.221  16.068 -0.0631 -0.9442 -1.1691
 5135TIP3    H236897   0.479   4.313  15.951  0.8374  2.0449  1.3138
 5136TIP3   OH236898   4.266   5.771  15.649  0.0756 -0.2926  0.3621
 5136TIP3    H136899   4.174   5.768  15.676  0.5817 -2.2331  1.9932
 5136TIP3    H236900   4.282   5.686  15.608  0.9859  0.2940 -0.5362
 5137TIP3   OH236901   5.973   4.409   1.588 -0.2650 -0.4821  0.6901
 5137TIP3    H136902   5.890   4.381   1.550  0.1592  0.0479 -0.6520
 5137TIP3    H236903   6.031   4.335   1.575  0.1454  0.0495 -0.5725
 5138TIP3   OH236904   3.379   0.996  15.440 -0.5035  0.1943 -0.0357
 5138TIP3    H136905   3.317   1.019  15.371 -0.3229  0.5985 -0.0712
 5138TIP3    H236906   3.465   1.017  15.402 -0.5330  2.7646  1.1714
 5139TIP3   OH236907   6.769   6.645   1.004  0.4682  0.1694 -0.0286
 5139TIP3    H136908   6.773   6.582   0.932  0.3548  1.1155 -0.8753
 5139TIP3    H236909   6.713   6.716   0.971 -0.2606  0.2381  1.2886
 5140TIP3   OH236910   3.334   4.851  17.006 -0.3844 -0.3661  0.4077
 5140TIP3    H136911   3.289   4.886  17.083 -1.5980 -1.8132  0.3864
 5140TIP3    H236912   3.427   4.857  17.027 -0.6434  0.9651  1.2150
 5141TIP3   OH236913   4.457   4.821  15.895 -0.3064 -0.3741 -0.0024
 5141TIP3    H136914   4.461   4.777  15.810  0.7108  1.5214 -0.9551
 5141TIP3    H236915   4.538   4.795  15.940 -0.5216 -0.8316  0.1212
 5142TIP3   OH236916   0.002   4.590   5.380 -0.6092 -0.2898 -0.3552
 5142TIP3    H136917   0.055   4.586   5.300  0.7362  1.6505  0.3895
 5142TIP3    H236918   0.042   4.525   5.438  1.7105  1.8741  0.5805
 5143TIP3   OH236919   0.855   2.538   5.592 -0.2585 -0.1257 -0.1418
 5143TIP3    H136920   0.811   2.456   5.569  0.0379 -0.3363  0.0483
 5143TIP3    H236921   0.810   2.568   5.671  1.1083 -1.2561  1.0868
 5144TIP3   OH236922   1.404   3.831  17.037  0.0200  0.0192 -0.0507
 5144TIP3    H136923   1.369   3.897  17.097  1.4005  0.6502  0.0845
 5144TIP3    H236924   1.457   3.881  16.974 -0.4937 -0.7525 -1.1262
 5145TIP3   OH236925   5.322   6.766  12.521  0.0717  0.8180 -0.7022
 5145TIP3    H136926   5.245   6.775  12.465  0.4712  0.4684 -1.3092
 5145TIP3    H236927   5.286   6.741  12.606 -0.4881  0.6167 -0.9930
 5146TIP3   OH236928   4.284   0.996  14.165  0.1492  0.4591 -0.0321
 5146TIP3    H136929   4.354   1.010  14.102  2.9539  0.8502  3.0411
 5146TIP3    H236930   4.321   1.023  14.249 -2.9492 -1.4163  2.0509
 5147TIP3   OH236931   4.533   4.744   3.351  0.0994  0.2507  0.1894
 5147TIP3    H136932   4.578   4.660   3.345  0.8443  0.5844  0.9531
 5147TIP3    H236933   4.470   4.732   3.422 -1.1202 -0.2519 -0.9551
 5148TIP3   OH236934   3.879   1.130  13.914  0.6992 -0.5931 -0.0712
 5148TIP3    H136935   3.950   1.073  13.942  1.2669  0.2981  0.3565
 5148TIP3    H236936   3.804   1.105  13.969  1.5197  0.4587  1.5922
 5149TIP3   OH236937   0.456   1.582  16.891  0.2787  0.4825 -0.7538
 5149TIP3    H136938   0.441   1.665  16.935  0.8226 -0.5793  1.4905
 5149TIP3    H236939   0.386   1.576  16.826 -2.3235  0.7522  1.9114
 5150TIP3   OH236940   5.824   1.116  16.712  0.2229 -0.1425  0.3068
 5150TIP3    H136941   5.916   1.142  16.711  0.3274 -0.5349 -0.3770
 5150TIP3    H236942   5.776   1.197  16.697  0.4964 -0.1178 -0.4261
 5151TIP3   OH236943   1.310   0.506  12.368 -0.6426  0.1607 -0.1282
 5151TIP3    H136944   1.225   0.466  12.385 -0.5168 -0.7029 -1.4851
 5151TIP3    H236945   1.290   0.599  12.357 -1.2139  0.1802  0.9508
 5152TIP3   OH236946   1.889   1.745   4.019 -0.2561  0.0531 -0.0603
 5152TIP3    H136947   1.813   1.691   4.036 -0.7155  0.6465 -0.1906
 5152TIP3    H236948   1.960   1.704   4.068 -0.5562 -0.7552 -0.2974
 5153TIP3   OH236949   3.411   2.774  15.426  0.4659  0.0979  0.2036
 5153TIP3    H136950   3.333   2.724  15.402 -0.0869  1.5302 -1.0786
 5153TIP3    H236951   3.392   2.864  15.397  2.5134  0.4973  0.0309
 5154TIP3   OH236952   0.955   2.504  17.221  0.1818  0.0683  0.0212
 5154TIP3    H136953   1.027   2.517  17.160 -0.0879  0.7130 -0.1678
 5154TIP3    H236954   0.882   2.473  17.167 -0.0854  0.7303 -0.0136
 5155TIP3   OH236955   3.255   2.623   5.068  0.5635 -0.0940  0.1837
 5155TIP3    H136956   3.274   2.631   4.974 -0.7452 -0.7048 -0.1418
 5155TIP3    H236957   3.268   2.531   5.087 -0.4880 -0.2218  0.3006
 5156TIP3   OH236958   0.979   1.513   3.494  0.3021  0.1212 -0.6502
 5156TIP3    H136959   1.037   1.577   3.453 -0.3142  0.3340 -1.1967
 5156TIP3    H236960   0.979   1.439   3.434  1.5939 -0.7024  0.3404
 5157TIP3   OH236961   5.235   3.421   5.248  0.5466 -0.0289 -1.1877
 5157TIP3    H136962   5.305   3.428   5.184  0.5651 -2.1183 -1.4262
 5157TIP3    H236963   5.170   3.365   5.207 -0.3783  0.2781 -0.1783
 5158TIP3   OH236964   3.137   0.952  14.783 -0.4725  0.4616 -0.2244
 5158TIP3    H136965   3.165   0.870  14.743  0.0956  0.1385  0.8221
 5158TIP3    H236966   3.043   0.941  14.797 -0.6491  0.5216 -1.3232
 5159TIP3   OH236967   2.353   6.229  15.862 -0.5927  0.5040 -0.7470
 5159TIP3    H136968   2.405   6.274  15.929  1.2437  0.5422 -2.1601
 5159TIP3    H236969   2.318   6.153  15.907  0.1862  0.8109  0.4212
 5160TIP3   OH236970   6.489   5.283   0.236  0.3095  0.4302 -0.4054
 5160TIP3    H136971   6.456   5.193   0.229 -1.8758  1.2721 -1.3988
 5160TIP3    H236972   6.469   5.308   0.326  0.3322  0.1421 -0.3178
 5161TIP3   OH236973   2.244   6.211   2.912  0.0864  0.2002 -0.1371
 5161TIP3    H136974   2.229   6.148   2.983  0.8873 -1.6962 -1.6185
 5161TIP3    H236975   2.167   6.268   2.913 -1.6845 -2.1679 -0.1902
 5162TIP3   OH236976   1.376   4.995  15.941 -0.1430 -0.3070 -0.3250
 5162TIP3    H136977   1.388   4.957  16.028  0.4537  0.1664 -0.1924
 5162TIP3    H236978   1.430   4.940  15.884  0.1798 -0.0782 -0.2443
 5163TIP3   OH236979   2.266   1.793   5.041  0.4490 -0.3377  0.2979
 5163TIP3    H136980   2.352   1.825   5.067  0.0427  0.7528  0.2928
 5163TIP3    H236981   2.218   1.783   5.124 -0.3216  1.6420  0.1004
 5164TIP3   OH236982   2.882   1.397   1.748 -0.4849  0.1494  0.0739
 5164TIP3    H136983   2.849   1.479   1.785 -0.7496 -0.6641  1.6512
 5164TIP3    H236984   2.821   1.377   1.677 -0.8241  0.9447  0.1318
 5165TIP3   OH236985   4.410   0.848  12.399 -0.1774  0.0055  0.5314
 5165TIP3    H136986   4.428   0.754  12.405  1.6577  0.4371  2.0342
 5165TIP3    H236987   4.314   0.854  12.399 -0.3309 -1.6524  4.0820
 5166TIP3   OH236988   5.291   5.012  14.924  0.1282  0.4472 -0.6917
 5166TIP3    H136989   5.211   5.057  14.954  0.1490 -0.8292  1.3407
 5166TIP3    H236990   5.275   4.997  14.831 -1.7086  0.8411 -0.4767
 5167TIP3   OH236991   3.557   1.401  11.110  0.6011  0.7885  0.1253
 5167TIP3    H136992   3.541   1.352  11.191  0.7994  1.4041  0.5395
 5167TIP3    H236993   3.577   1.334  11.045  0.7518  0.3122  0.6591
 5168TIP3   OH236994   1.221   5.312  16.315  0.7902 -0.4393  0.6514
 5168TIP3    H136995   1.263   5.391  16.280  1.2472 -0.8516  0.2472
 5168TIP3    H236996   1.186   5.339  16.400  0.4703  0.3385  0.2784
 5169TIP3   OH236997   2.044   6.700  16.268  0.6611 -0.0188  0.2684
 5169TIP3    H136998   1.994   6.699  16.349  1.2725 -0.7918  0.6475
 5169TIP3    H236999   1.981   6.677  16.200  0.7951 -2.3380  0.9127
 5170TIP3   OH237000   6.485   0.567   2.767  0.4693 -0.0498  0.0121
 5170TIP3    H137001   6.531   0.550   2.849 -0.4752 -1.4004  0.2732
 5170TIP3    H237002   6.497   0.487   2.716 -0.0461  0.2945 -0.6549
 5171TIP3   OH237003   5.421   2.308   4.237  0.0688  0.2288  0.6558
 5171TIP3    H137004   5.383   2.327   4.151  0.0132  0.7668  0.7993
 5171TIP3    H237005   5.353   2.334   4.300 -0.1603 -0.7977  0.8426
 5172TIP3   OH237006   3.102   0.385  12.741 -0.1982  0.0413 -0.2359
 5172TIP3    H137007   3.008   0.397  12.753 -0.1178 -0.4707  1.0076
 5172TIP3    H237008   3.116   0.291  12.755  0.3361 -0.1043 -1.6081
 5173TIP3   OH237009   0.991   2.919   6.189 -0.0671  0.2247 -0.2486
 5173TIP3    H137010   1.067   2.866   6.164  1.7494  1.8567  1.7103
 5173TIP3    H237011   0.950   2.870   6.260  0.1601  0.2191 -0.1229
 5174TIP3   OH237012   1.990   0.177   4.804  0.1822 -0.4844 -0.0364
 5174TIP3    H137013   1.908   0.141   4.769 -0.7239  0.3129  1.2393
 5174TIP3    H237014   2.048   0.181   4.728 -0.7327 -1.6885 -0.8258
 5175TIP3   OH237015   5.553   0.198  16.984  0.0736 -0.2748 -0.0187
 5175TIP3    H137016   5.613   0.201  17.059 -0.6836 -1.2746  0.6341
 5175TIP3    H237017   5.592   0.133  16.926 -0.9389 -1.7349  0.9061
 5176TIP3   OH237018   0.501   6.588   3.010 -0.0926  0.0726 -0.2038
 5176TIP3    H137019   0.423   6.553   2.967  1.3204 -1.9666 -1.1359
 5176TIP3    H237020   0.503   6.545   3.095  0.4751 -0.5336 -0.5183
 5177TIP3   OH237021   5.872   0.244  12.249  0.1376 -0.3162  0.2053
 5177TIP3    H137022   5.782   0.236  12.216  0.1756 -1.1765  0.2918
 5177TIP3    H237023   5.902   0.329  12.217 -0.2526 -0.5999 -0.9611
 5178TIP3   OH237024   4.073   3.835  16.873  0.6144  0.0139  0.1436
 5178TIP3    H137025   4.003   3.830  16.939  0.2687 -1.8070 -0.3416
 5178TIP3    H237026   4.035   3.795  16.795  2.2926 -1.2423 -0.0364
 5179TIP3   OH237027   4.814   3.514   1.731 -0.5587 -0.1401  0.4607
 5179TIP3    H137028   4.822   3.503   1.825 -0.2502 -2.6832  0.1624
 5179TIP3    H237029   4.904   3.521   1.700 -0.6004 -0.7723  0.1952
 5180TIP3   OH237030   5.984   0.933  16.087 -0.2089 -0.3041 -0.2562
 5180TIP3    H137031   5.932   0.973  16.017  1.6441 -1.5699 -2.4466
 5180TIP3    H237032   5.991   0.841  16.063  0.7752 -0.6953  1.4097
 5181TIP3   OH237033   2.369   6.516   2.359 -0.0543 -0.3240  0.2672
 5181TIP3    H137034   2.324   6.434   2.380 -0.9248  0.2361  0.6152
 5181TIP3    H237035   2.446   6.516   2.416 -0.8037 -0.2389  1.2902
 5182TIP3   OH237036   4.861   1.676   3.843  0.0327  0.1374 -0.5735
 5182TIP3    H137037   4.787   1.703   3.897 -2.6981 -0.7355 -3.7410
 5182TIP3    H237038   4.859   1.581   3.846 -0.2401  0.0784 -2.2821
 5183TIP3   OH237039   0.590   5.414   2.905 -0.0672 -0.1949 -0.2397
 5183TIP3    H137040   0.520   5.419   2.971 -0.0532 -1.1564 -0.1534
 5183TIP3    H237041   0.612   5.506   2.887 -0.4195  0.0813  0.7189
 5184TIP3   OH237042   1.257   2.656   0.342  0.1053  0.1216 -0.3038
 5184TIP3    H137043   1.319   2.600   0.388 -0.2459 -0.7667 -0.9132
 5184TIP3    H237044   1.273   2.641   0.249 -0.0166  1.0020 -0.4799
 5185TIP3   OH237045   0.965   0.623  11.483 -0.0514  0.3115  0.6895
 5185TIP3    H137046   1.039   0.564  11.491  0.0411  0.6373  2.5412
 5185TIP3    H237047   0.974   0.683  11.558 -0.4090  2.3549 -0.8587
 5186TIP3   OH237048   3.774   2.208  12.443  0.4631  0.1158 -0.1326
 5186TIP3    H137049   3.706   2.165  12.392  0.1844  1.2330 -0.7169
 5186TIP3    H237050   3.727   2.264  12.505  0.8225  2.0851 -1.5700
 5187TIP3   OH237051   1.138   3.674   4.849  0.3508 -0.5188 -0.5500
 5187TIP3    H137052   1.074   3.663   4.779  0.3304 -0.1598 -0.5861
 5187TIP3    H237053   1.135   3.767   4.870 -0.0021 -0.7143  0.2688
 5188TIP3   OH237054   5.655   3.448  16.676 -0.2794 -0.7632  0.0730
 5188TIP3    H137055   5.692   3.490  16.754  0.0018 -0.7980 -0.0395
 5188TIP3    H237056   5.614   3.520  16.628 -2.9506 -1.1594  1.6308
 5189TIP3   OH237057   1.580   3.193   2.488 -0.1724  0.0061  0.3905
 5189TIP3    H137058   1.615   3.105   2.500  0.0210 -0.0686 -0.6356
 5189TIP3    H237059   1.548   3.194   2.397 -1.3458  0.5841  0.7988
 5190TIP3   OH237060   3.745   3.457  15.796 -0.1132  0.4233 -0.1275
 5190TIP3    H137061   3.693   3.402  15.854  0.7794 -2.3206 -1.8533
 5190TIP3    H237062   3.682   3.487  15.730 -0.0812 -0.7154 -0.6899
 5191TIP3   OH237063   1.454   3.646  15.783  0.0374 -0.6558 -0.0390
 5191TIP3    H137064   1.393   3.608  15.719  0.1985 -0.4220 -0.3326
 5191TIP3    H237065   1.494   3.570  15.825  1.1117 -0.8452 -1.3422
 5192TIP3   OH237066   4.360   1.796   4.549 -0.0737  0.2493 -0.2886
 5192TIP3    H137067   4.330   1.708   4.524  1.0776 -0.3131  0.2762
 5192TIP3    H237068   4.435   1.813   4.492 -0.1623  0.7930 -0.2475
 5193TIP3   OH237069   2.177   6.111   3.789 -0.7414 -0.3800  0.5609
 5193TIP3    H137070   2.236   6.122   3.714  0.3037 -0.6192  1.3270
 5193TIP3    H237071   2.212   6.171   3.855 -0.6116 -1.4510  1.4650
 5194TIP3   OH237072   3.327   1.079  15.745  0.1002 -0.4271  0.0259
 5194TIP3    H137073   3.265   1.152  15.745 -0.3194 -0.7784  0.7976
 5194TIP3    H237074   3.384   1.096  15.669 -1.6433 -0.7153 -1.3768
 5195TIP3   OH237075   6.071   2.358  10.955  0.0111 -0.5197 -0.2040
 5195TIP3    H137076   6.110   2.274  10.980 -0.1821 -0.8648 -1.0508
 5195TIP3    H237077   6.079   2.413  11.033 -0.2093 -1.4493  0.4702
 5196TIP3   OH237078   5.481   5.415  13.763  0.1680 -0.3580  0.1433
 5196TIP3    H137079   5.427   5.338  13.779  0.3344 -0.4224  0.3827
 5196TIP3    H237080   5.568   5.380  13.746  0.2714 -0.2139  0.3803
 5197TIP3   OH237081   4.762   0.435  11.041 -0.1255  0.0233  0.5606
 5197TIP3    H137082   4.728   0.509  10.991 -1.4315 -0.2862  0.9811
 5197TIP3    H237083   4.844   0.412  10.996  1.5027  3.1440  1.7558
 5198TIP3   OH237084   2.869   3.567  10.966  0.4004  0.5513  0.6971
 5198TIP3    H137085   2.932   3.500  10.939  1.7606  1.4477  1.5721
 5198TIP3    H237086   2.822   3.589  10.885  0.8881 -0.4677  0.1283
 5199TIP3   OH237087   5.978   0.719   5.310  0.3657  0.3003 -0.3759
 5199TIP3    H137088   5.927   0.722   5.228  0.8929  0.5197 -0.6951
 5199TIP3    H237089   5.985   0.810   5.338 -0.9373  0.1159  0.6181
 5200TIP3   OH237090   3.392   5.588  12.928  0.2910 -0.4589  0.2137
 5200TIP3    H137091   3.376   5.534  13.005  0.1830  0.2477  0.6869
 5200TIP3    H237092   3.400   5.677  12.962 -1.2419  0.0677 -0.7580
 5201TIP3   OH237093   0.285   1.112   4.486 -0.4356 -0.2332 -0.4266
 5201TIP3    H137094   0.318   1.087   4.572  0.4128 -0.0161 -0.6753
 5201TIP3    H237095   0.279   1.208   4.490 -0.0635 -0.1956 -0.7196
 5202TIP3   OH237096   0.917   6.526  12.480 -0.2016  0.3706 -0.0346
 5202TIP3    H137097   0.856   6.585  12.523 -0.9106  0.0484 -0.5871
 5202TIP3    H237098   0.878   6.510  12.393  0.4889 -0.1019 -0.2623
 5203TIP3   OH237099   5.277   2.367   0.901 -0.5604 -0.7052 -0.1850
 5203TIP3    H137100   5.283   2.368   0.806  0.9601 -0.9371 -0.0924
 5203TIP3    H237101   5.359   2.405   0.932 -1.2331 -0.1962  1.0292
 5204TIP3   OH237102   1.637   4.720  12.837 -0.7140  0.3693  0.0909
 5204TIP3    H137103   1.621   4.812  12.856 -1.1576  0.3191 -0.0254
 5204TIP3    H237104   1.552   4.686  12.809 -0.1286  0.3863 -1.7724
 5205TIP3   OH237105   3.062   1.664   6.185 -0.1245 -1.0091 -0.2593
 5205TIP3    H137106   2.996   1.702   6.126 -0.7195  0.5447  1.3406
 5205TIP3    H237107   3.015   1.598   6.235  0.0608 -1.4023 -0.6010
 5206TIP3   OH237108   6.226   4.485  10.693  0.1954  0.1173  0.3224
 5206TIP3    H137109   6.174   4.565  10.698 -0.0689  0.0026 -0.5123
 5206TIP3    H237110   6.317   4.515  10.694  0.1170  0.5965 -2.0596
 5207TIP3   OH237111   1.340   4.562  11.553  0.2635 -0.0800  0.5984
 5207TIP3    H137112   1.353   4.565  11.648 -0.5818  0.1149  0.7146
 5207TIP3    H237113   1.382   4.481  11.525  1.5591  0.4577  0.9733
 5208TIP3   OH237114   3.347   0.864   3.797  0.6297 -0.0844  0.3155
 5208TIP3    H137115   3.396   0.885   3.717 -1.1492  1.8972 -0.3257
 5208TIP3    H237116   3.294   0.788   3.773 -0.0166  0.5975 -0.4754
 5209TIP3   OH237117   1.624   2.536  17.105 -0.5485  0.2691  0.3608
 5209TIP3    H137118   1.587   2.490  17.181 -2.4902  0.3376 -0.5101
 5209TIP3    H237119   1.646   2.465  17.044  1.2615  0.1971  1.0832
 5210TIP3   OH237120   2.352   4.691   4.674  0.4952  0.0129  0.4779
 5210TIP3    H137121   2.438   4.721   4.644  0.3182  1.1713  1.1216
 5210TIP3    H237122   2.344   4.603   4.637  1.0970  0.6798 -1.3044
 5211TIP3   OH237123   6.630   0.528   5.622  0.5225  0.3002 -0.3445
 5211TIP3    H137124   6.563   0.495   5.562 -0.6100  0.6448  0.7153
 5211TIP3    H237125   6.613   0.622   5.628  1.7131  0.5544 -0.8257
 5212TIP3   OH237126   4.706   6.464   5.615 -0.3381  0.6364 -0.2686
 5212TIP3    H137127   4.624   6.495   5.578 -1.0645  0.6333  1.3154
 5212TIP3    H237128   4.700   6.369   5.613  0.6539  0.5934 -2.3836
 5213TIP3   OH237129   1.908   3.709  12.743  0.0596 -0.0476  0.2593
 5213TIP3    H137130   1.826   3.723  12.790 -0.0344  0.9878 -0.1892
 5213TIP3    H237131   1.968   3.674  12.809 -0.4572  0.1273  0.8245
 5214TIP3   OH237132   5.646   0.313   2.693 -0.1646 -0.3637 -0.1536
 5214TIP3    H137133   5.598   0.352   2.767  1.3975  1.9591 -0.3037
 5214TIP3    H237134   5.713   0.258   2.734  1.1414  1.4586  0.2275
 5215TIP3   OH237135   5.059   0.287   0.422 -0.0846  0.3907  0.0278
 5215TIP3    H137136   5.096   0.344   0.355 -1.8736 -0.0068 -1.3346
 5215TIP3    H237137   5.021   0.348   0.486  0.2450  0.7651 -0.1285
 5216TIP3   OH237138   0.280   5.673   2.784 -0.4101  0.0319 -0.5101
 5216TIP3    H137139   0.361   5.709   2.747  0.0383 -1.9546 -1.5481
 5216TIP3    H237140   0.210   5.718   2.737  0.1105  0.2903 -1.0504
 5217TIP3   OH237141   6.270   6.098  14.518  0.0277 -0.2802  0.0172
 5217TIP3    H137142   6.195   6.157  14.522  0.5273  0.4335 -0.8240
 5217TIP3    H237143   6.304   6.108  14.429 -0.9959 -3.2396 -0.7582
 5218TIP3   OH237144   4.989   5.072  16.418  0.1259 -0.1502  0.4934
 5218TIP3    H137145   4.947   4.986  16.420  0.4811 -0.3309  0.3219
 5218TIP3    H237146   4.950   5.117  16.344  1.2733 -0.8591 -0.5593
 5219TIP3   OH237147   5.365   4.011  14.375  0.7003  0.2739 -0.0784
 5219TIP3    H137148   5.345   3.991  14.284 -0.5398  0.1905  0.2109
 5219TIP3    H237149   5.439   4.071  14.370  3.0039 -2.5225 -1.0192
 5220TIP3   OH237150   4.143   3.429  13.332 -0.0905 -0.1701  0.1839
 5220TIP3    H137151   4.171   3.480  13.408 -1.1115 -1.3506  1.3589
 5220TIP3    H237152   4.063   3.473  13.302 -0.1263 -0.1763  0.2696
 5221TIP3   OH237153   4.885   6.568  15.564  0.2069  0.1919  0.3659
 5221TIP3    H137154   4.839   6.487  15.545 -0.3455  0.0789  2.1022
 5221TIP3    H237155   4.816   6.634  15.568  0.7681  1.0029 -2.2363
 5222TIP3   OH237156   4.405   1.109   4.687  0.4746 -0.0107 -0.2387
 5222TIP3    H137157   4.344   1.047   4.648  0.8690 -0.7492  0.3060
 5222TIP3    H237158   4.359   1.145   4.762  0.0914  0.6617 -0.7962
 5223TIP3   OH237159   1.769   1.222   0.665  0.7451 -0.1765  0.5666
 5223TIP3    H137160   1.761   1.177   0.750  1.8504 -1.5328 -0.0434
 5223TIP3    H237161   1.844   1.280   0.676  0.4451  0.1871  0.7390
 5224TIP3   OH237162   0.384   5.184  12.546  0.4702  0.8963  0.1889
 5224TIP3    H137163   0.375   5.264  12.494  0.9470  1.7632  1.4212
 5224TIP3    H237164   0.478   5.163  12.541  0.3813  0.5208  0.0462
 5225TIP3   OH237165   3.048   3.716   0.957  0.1214 -0.0127  0.0349
 5225TIP3    H137166   3.060   3.628   0.922  0.1395 -0.0576  0.1563
 5225TIP3    H237167   3.077   3.711   1.048  2.0963  0.6095 -0.5387
 5226TIP3   OH237168   2.530   3.579  13.141  0.2926 -0.6493  0.0017
 5226TIP3    H137169   2.612   3.545  13.107  0.0515 -1.0258 -0.2080
 5226TIP3    H237170   2.528   3.552  13.233 -0.6888 -2.7032 -0.5936
 5227TIP3   OH237171   0.311   5.979  14.591 -0.1610 -0.2194  0.0239
 5227TIP3    H137172   0.333   5.892  14.559  0.0034  0.2877 -1.2629
 5227TIP3    H237173   0.293   6.030  14.512  0.5698  1.1356  0.7063
 5228TIP3   OH237174   4.199   2.194   6.266  0.5488  0.5137  0.2207
 5228TIP3    H137175   4.211   2.281   6.303 -0.0819 -0.1026  1.8983
 5228TIP3    H237176   4.286   2.155   6.269 -0.0014 -0.5845  3.7926
 5229TIP3   OH237177   4.260   3.933   1.686  0.1718 -0.1121 -0.1125
 5229TIP3    H137178   4.353   3.954   1.674  0.4087 -1.2246 -0.2642
 5229TIP3    H237179   4.259   3.846   1.726 -0.8156 -0.5975 -1.1424
 5230TIP3   OH237180   6.458   4.004  14.041 -0.6833  0.2125 -0.4838
 5230TIP3    H137181   6.453   4.086  13.992 -1.4264  1.0536  0.9785
 5230TIP3    H237182   6.368   3.970  14.043 -0.7170  0.3319  0.5234
 5231TIP3   OH237183   5.658   4.565  15.486  0.6370  0.1828 -0.3420
 5231TIP3    H137184   5.714   4.495  15.520  0.2500  0.3687  0.6912
 5231TIP3    H237185   5.709   4.603  15.414  1.0741 -0.8154 -0.5675
 5232TIP3   OH237186   4.604   3.092  11.719  0.2724 -0.3271 -0.3352
 5232TIP3    H137187   4.539   3.162  11.724 -0.3387 -0.9272  0.2599
 5232TIP3    H237188   4.637   3.097  11.629 -0.7009 -0.0984 -0.6913
 5233TIP3   OH237189   4.513   2.876   5.845 -0.0219 -0.0256  0.3170
 5233TIP3    H137190   4.479   2.920   5.923  1.1083  0.6592  0.4320
 5233TIP3    H237191   4.499   2.938   5.774 -1.0426 -0.6448 -0.0496
 5234TIP3   OH237192   4.953   6.789   4.837 -0.2847  0.0872  0.2730
 5234TIP3    H137193   5.016   6.776   4.908  0.3089  2.0634  0.1493
 5234TIP3    H237194   4.910   6.872   4.858 -3.3224 -1.5248  0.6875
 5235TIP3   OH237195   5.100   2.524  12.465  0.3734 -0.1274  0.0892
 5235TIP3    H137196   5.022   2.542  12.412  1.2169  1.3684 -0.6972
 5235TIP3    H237197   5.096   2.430  12.483 -0.2006 -0.5888 -2.2453
 5236TIP3   OH237198   0.175   0.298   3.368  0.2173  0.3141  0.3381
 5236TIP3    H137199   0.133   0.223   3.411  1.3599  0.1912  1.2664
 5236TIP3    H237200   0.128   0.308   3.285  0.6123 -1.9774 -0.1975
 5237TIP3   OH237201   3.290   5.255   3.813 -0.2274 -0.7545 -0.3119
 5237TIP3    H137202   3.200   5.225   3.823 -0.8955  1.3089  0.0018
 5237TIP3    H237203   3.313   5.235   3.722 -0.8783 -1.6074 -0.2895
 5238TIP3   OH237204   2.877   2.685   3.415 -0.4236  0.5430 -0.2744
 5238TIP3    H137205   2.789   2.720   3.395 -1.0083 -1.0034 -0.4746
 5238TIP3    H237206   2.878   2.675   3.510 -0.7567 -0.1546 -0.3375
 5239TIP3   OH237207   3.047   2.829   6.373 -0.0867 -0.6438 -0.0055
 5239TIP3    H137208   3.011   2.909   6.412  0.5317 -0.3003 -0.1305
 5239TIP3    H237209   3.130   2.856   6.335 -0.4381 -1.0829 -1.1276
 5240TIP3   OH237210   3.769   6.598   3.805 -0.5321  0.4877 -0.0044
 5240TIP3    H137211   3.730   6.568   3.887 -0.0912  1.4483  0.5618
 5240TIP3    H237212   3.709   6.566   3.737 -2.2509  1.8409  0.8344
 5241TIP3   OH237213   1.148   4.158  13.772  0.6705  0.1451 -0.3406
 5241TIP3    H137214   1.207   4.233  13.779  0.3959  0.4338 -1.1473
 5241TIP3    H237215   1.085   4.182  13.705 -0.6134 -0.0106  0.7831
 5242TIP3   OH237216   0.019   3.585  12.909  0.0503 -0.3588 -0.6259
 5242TIP3    H137217  -0.035   3.518  12.951  0.3035 -0.2038 -0.0548
 5242TIP3    H237218   0.025   3.557  12.817 -0.9744 -0.3932 -0.6909
 5243TIP3   OH237219   2.446   0.004  16.410 -0.0392  0.0019  0.0104
 5243TIP3    H137220   2.426   0.083  16.460 -0.1402 -1.0739  1.7118
 5243TIP3    H237221   2.506  -0.045  16.466 -0.9747 -1.7311 -0.4818
 5244TIP3   OH237222   6.346   1.079  16.074 -0.8598 -0.2211 -0.2411
 5244TIP3    H137223   6.333   1.004  16.017 -0.8347  0.6486 -1.3940
 5244TIP3    H237224   6.262   1.126  16.072 -1.6228 -1.3522  2.1857
 5245TIP3   OH237225   3.575   1.844  14.976 -0.2110  0.1275  0.2115
 5245TIP3    H137226   3.646   1.902  14.949 -0.1341  0.2553  0.6814
 5245TIP3    H237227   3.519   1.899  15.032 -0.2144 -0.2120  0.5429
 5246TIP3   OH237228   2.024   0.653  13.873 -0.1173 -0.5861  0.0472
 5246TIP3    H137229   2.009   0.574  13.823  0.4444 -0.9700  0.4775
 5246TIP3    H237230   2.118   0.651  13.894 -0.8366 -1.7789  3.3772
 5247TIP3   OH237231   2.863   5.971   5.320 -0.1283 -0.3464 -0.5161
 5247TIP3    H137232   2.909   5.929   5.247 -0.7102 -1.0188 -0.5121
 5247TIP3    H237233   2.858   5.903   5.387  1.5183  0.6655  0.6578
 5248TIP3   OH237234   6.268   2.945  14.173  0.5228 -0.2184 -0.1211
 5248TIP3    H137235   6.314   2.877  14.222  0.6442  0.4533  0.7008
 5248TIP3    H237236   6.317   2.953  14.092  0.6797 -0.9084 -0.1031
 5249TIP3   OH237237   4.522   1.689   2.799 -0.0771  0.0238 -0.0415
 5249TIP3    H137238   4.518   1.601   2.836 -0.6631 -0.3587 -0.9988
 5249TIP3    H237239   4.606   1.691   2.753 -0.2545 -0.1932 -0.3842
 5250TIP3   OH237240   4.953   4.681  10.256  0.0406  0.6141 -0.2447
 5250TIP3    H137241   4.955   4.661  10.349  0.2611  2.7396  0.2243
 5250TIP3    H237242   5.044   4.672  10.227  0.0119  0.2034 -0.2142
 5251TIP3   OH237243   0.426   1.450  11.924  0.3952  0.3434 -0.0567
 5251TIP3    H137244   0.410   1.456  11.829  1.3493  0.1348 -0.2307
 5251TIP3    H237245   0.355   1.394  11.956 -0.2027  0.7909 -0.5777
 5252TIP3   OH237246   3.897   0.397   6.556  0.2344 -0.6908 -0.8939
 5252TIP3    H137247   3.984   0.387   6.595 -0.0393  0.1207 -0.0565
 5252TIP3    H237248   3.879   0.491   6.562 -0.5463 -0.8018 -1.4144
 5253TIP3   OH237249   1.878   1.401  14.245  0.1469 -0.7643  0.1857
 5253TIP3    H137250   1.823   1.391  14.168 -1.3894 -0.2981  1.2029
 5253TIP3    H237251   1.948   1.460  14.217 -0.4251 -0.5544 -0.8392
 5254TIP3   OH237252   4.229   4.666  12.621  0.9298 -0.8104 -0.8896
 5254TIP3    H137253   4.307   4.697  12.575  0.2142 -1.5460 -2.6589
 5254TIP3    H237254   4.164   4.735  12.607  1.0443 -0.5119  0.0027
 5255TIP3   OH237255   1.669   3.895   0.709  0.1386  0.6139 -0.0675
 5255TIP3    H137256   1.741   3.956   0.722  0.4198  0.4009 -0.5825
 5255TIP3    H237257   1.684   3.826   0.774 -0.1809  1.0913  0.5141
 5256TIP3   OH237258   4.387   0.732  11.557  0.8140 -0.0856  0.1345
 5256TIP3    H137259   4.471   0.777  11.553  0.4143  0.5981 -0.8151
 5256TIP3    H237260   4.410   0.639  11.562  1.6425  0.0020 -1.5235
 5257TIP3   OH237261   2.901   2.020   6.293 -0.2236  0.0467  0.1590
 5257TIP3    H137262   2.866   1.932   6.283  0.3098 -0.0648 -0.8276
 5257TIP3    H237263   2.941   2.021   6.379  0.4673 -0.9266 -0.1518
 5258TIP3   OH237264   1.659   1.201   0.937  0.1755 -0.3356  0.6182
 5258TIP3    H137265   1.623   1.134   0.996 -1.3009 -0.1453 -0.0453
 5258TIP3    H237266   1.590   1.216   0.872  0.9893  0.9255  0.0168
 5259TIP3   OH237267   5.793   6.268  12.677 -0.6989 -0.0164 -0.6493
 5259TIP3    H137268   5.859   6.328  12.642  1.7298 -0.8283  2.2904
 5259TIP3    H237269   5.774   6.208  12.606  0.3427  1.3956 -2.1454
 5260TIP3   OH237270   1.950   1.286  10.928 -0.0369  0.1289  0.2103
 5260TIP3    H137271   2.016   1.352  10.908 -0.2052  0.5277  0.9523
 5260TIP3    H237272   1.866   1.330  10.915 -0.1496 -0.0437  0.3437
 5261TIP3   OH237273   0.342   1.649  13.451  0.5447 -0.1340 -0.5621
 5261TIP3    H137274   0.395   1.594  13.509 -0.4739 -1.3504 -0.7640
 5261TIP3    H237275   0.360   1.616  13.363  1.6839  1.3697 -0.9162
 5262TIP3   OH237276   2.156   3.956  11.429  0.3660  0.3043  0.2989
 5262TIP3    H137277   2.241   3.959  11.386  1.1116  1.8322  1.8216
 5262TIP3    H237278   2.096   3.997  11.365  1.1450  1.0203  0.0168
 5263TIP3   OH237279   3.506   6.163  14.782 -0.3198  0.0933  0.3855
 5263TIP3    H137280   3.551   6.165  14.867 -1.7091 -0.9725  1.1612
 5263TIP3    H237281   3.459   6.080  14.782 -3.8153  2.0060  0.3799
 5264TIP3   OH237282   0.351   4.921   0.791  0.3760 -0.2844  0.1219
 5264TIP3    H137283   0.382   4.842   0.835 -0.5231  0.3553  1.9372
 5264TIP3    H237284   0.412   4.989   0.819  1.4285 -0.4024 -1.8069
 5265TIP3   OH237285   6.183   2.746   6.098 -0.0743 -0.4802  0.1931
 5265TIP3    H137286   6.107   2.704   6.138  1.1745 -2.0754  0.9856
 5265TIP3    H237287   6.254   2.732   6.162  0.4153  2.8421  0.4645
 5266TIP3   OH237288   1.518   3.218  10.812 -0.1919  0.1968 -0.4642
 5266TIP3    H137289   1.542   3.167  10.890 -0.8156  0.9760  0.2589
 5266TIP3    H237290   1.422   3.217  10.811 -0.1818 -1.8330 -2.6113
 5267TIP3   OH237291   3.665   6.182  10.467 -0.2911  0.5991  0.0041
 5267TIP3    H137292   3.723   6.251  10.434 -0.4046  0.9756  0.5992
 5267TIP3    H237293   3.593   6.229  10.509  0.9570  0.1171  2.7458
 5268TIP3   OH237294   1.430   1.854  11.564  0.0801 -0.3356  0.0118
 5268TIP3    H137295   1.374   1.870  11.639 -1.3216 -0.8630 -0.9012
 5268TIP3    H237296   1.411   1.925  11.503  1.5110  0.3261  0.3064
 5269TIP3   OH237297   1.356   2.772  12.265 -0.2493 -0.0388  0.1045
 5269TIP3    H137298   1.297   2.827  12.317 -0.3259  0.1849 -0.2212
 5269TIP3    H237299   1.443   2.787  12.302 -0.2520  0.3999 -0.0706
 5270TIP3   OH237300   0.188   0.386  13.303 -0.0665 -0.5471 -0.6433
 5270TIP3    H137301   0.274   0.400  13.343  0.0436 -3.2287  0.1369
 5270TIP3    H237302   0.127   0.430  13.362  0.6219  0.1323 -0.4344
 5271TIP3   OH237303   1.783   4.730  11.251 -0.4111 -0.3876 -0.1026
 5271TIP3    H137304   1.779   4.763  11.162 -1.7530 -2.0596 -0.6925
 5271TIP3    H237305   1.876   4.735  11.274 -0.1324  0.5499 -1.3977
 5272TIP3   OH237306   0.634   3.005  13.709 -0.0838 -0.0025 -0.3365
 5272TIP3    H137307   0.709   2.946  13.702 -1.0111 -1.5423  1.8764
 5272TIP3    H237308   0.561   2.957  13.670 -0.8536 -0.3902  1.5006
 5273TIP3   OH237309   3.836   4.444   6.012 -0.1821 -0.5495 -0.0268
 5273TIP3    H137310   3.911   4.422   6.067 -0.9761  0.4054  1.4590
 5273TIP3    H237311   3.761   4.402   6.054 -0.7716  0.0269 -0.4752
 5274TIP3   OH237312   0.859   4.085   4.525  0.8904 -0.7420 -0.5617
 5274TIP3    H137313   0.882   4.095   4.433  0.7855  0.6518 -0.4346
 5274TIP3    H237314   0.935   4.119   4.573 -0.3598  1.5157 -0.1417
 5275TIP3   OH237315   5.225   3.728   6.394 -0.4561  0.4287 -0.1615
 5275TIP3    H137316   5.246   3.748   6.485 -0.9492 -0.8538  0.2428
 5275TIP3    H237317   5.132   3.752   6.385 -0.7976 -0.7490  0.0756
 5276TIP3   OH237318   3.806   6.287  10.751 -0.0064  0.3998  0.5453
 5276TIP3    H137319   3.822   6.270  10.843 -1.0938 -2.3928  0.2921
 5276TIP3    H237320   3.711   6.294  10.744 -0.0765 -1.2147 -0.5734
 5277TIP3   OH237321   5.819   6.596  15.044 -0.8491  0.0362 -0.3830
 5277TIP3    H137322   5.765   6.609  15.122 -0.8246 -1.3277 -0.1304
 5277TIP3    H237323   5.765   6.543  14.985 -0.1204 -0.6189 -0.4752
 5278TIP3   OH237324   0.877   6.320   5.624  0.0297 -0.0424 -0.5353
 5278TIP3    H137325   0.818   6.390   5.654 -1.7304 -1.2463 -1.1082
 5278TIP3    H237326   0.864   6.249   5.687  1.8414  0.1489  0.0706
 5279TIP3   OH237327   0.007   6.742   0.150  0.0824 -0.2171 -0.0308
 5279TIP3    H137328   0.047   6.656   0.138 -1.9968 -1.4003  1.1921
 5279TIP3    H237329   0.061   6.785   0.216  0.5529 -0.9713  0.0766
 5280TIP3   OH237330   0.620   6.334  13.092 -0.2645 -0.1433 -0.1683
 5280TIP3    H137331   0.534   6.374  13.083  0.1315  0.4279 -1.4712
 5280TIP3    H237332   0.613   6.249  13.048 -0.8471 -1.1870  1.8366
 5281TIP3   OH237333   6.569   6.429  14.144  0.1257  0.2321  0.5768
 5281TIP3    H137334   6.556   6.509  14.093  0.4658  0.6083  1.0649
 5281TIP3    H237335   6.528   6.448  14.229  0.4649  0.0000  0.7951
 5282TIP3   OH237336   4.232   5.187  11.417  0.0038  0.1096  0.2470
 5282TIP3    H137337   4.155   5.216  11.466  0.0959 -0.6203  0.8487
 5282TIP3    H237338   4.280   5.133  11.480  0.7696  0.1911 -0.2714
 5283TIP3   OH237339   5.170   3.284  12.755 -0.2883  0.3064  0.1410
 5283TIP3    H137340   5.224   3.361  12.732  0.3869  0.2227  1.4039
 5283TIP3    H237341   5.224   3.209  12.731 -1.0805  0.2109 -1.3944
 5284TIP3   OH237342   6.751   4.041  15.157  0.6961  0.1533  0.7262
 5284TIP3    H137343   6.828   4.005  15.114  0.5277 -0.4641  0.9371
 5284TIP3    H237344   6.678   3.987  15.126  0.1721  1.4392 -0.3657
 5285TIP3   OH237345   4.731   5.294  12.647  0.4290  0.2290  0.2092
 5285TIP3    H137346   4.816   5.317  12.685  0.8738 -1.1331  0.0718
 5285TIP3    H237347   4.726   5.199  12.655  0.3923 -0.0768 -2.8498
 5286TIP3   OH237348   6.086   6.745  11.820  0.0138 -0.4696 -0.0533
 5286TIP3    H137349   6.175   6.775  11.834  0.3780 -0.9628 -1.1952
 5286TIP3    H237350   6.085   6.716  11.728 -1.2569 -0.6578  0.0085
 5287TIP3   OH237351   1.103   0.022   2.050 -0.3778 -0.6586 -0.5899
 5287TIP3    H137352   1.021   0.004   2.005 -0.3678 -0.8725 -0.5227
 5287TIP3    H237353   1.086   0.102   2.100 -0.1725 -0.0241 -1.5226
 5288TIP3   OH237354   0.413   5.054  11.729 -0.3112 -0.0334 -0.3332
 5288TIP3    H137355   0.472   5.121  11.694  0.3181  1.1111  2.7520
 5288TIP3    H237356   0.471   4.993  11.775 -1.2992 -0.1974  0.7233
 5289TIP3   OH237357   2.159   6.203  13.126 -0.1684  0.2078  0.0301
 5289TIP3    H137358   2.205   6.127  13.090 -1.1220 -0.2755 -0.1659
 5289TIP3    H237359   2.156   6.187  13.221  0.9125  0.7083  0.1621
 5290TIP3   OH237360   5.346   2.822  12.251 -0.1148  0.1702 -0.3188
 5290TIP3    H137361   5.254   2.848  12.239 -0.1959  0.0247 -0.0125
 5290TIP3    H237362   5.348   2.779  12.336  0.2859  0.3772 -0.2242
 5291TIP3   OH237363   3.745   6.322  15.727  0.5660  0.8527  0.2002
 5291TIP3    H137364   3.784   6.294  15.810  0.8999 -1.0439 -0.5504
 5291TIP3    H237365   3.813   6.303  15.662 -1.1906 -1.6003 -1.0105
 5292TIP3   OH237366   6.061   4.674  11.828  0.1794 -0.3271 -0.2712
 5292TIP3    H137367   6.140   4.625  11.850 -0.9155 -1.9863  0.0774
 5292TIP3    H237368   6.093   4.756  11.789  2.0480 -0.9386 -0.0566
 5293TIP3   OH237369   1.975   0.522   6.003 -0.4140 -0.4912 -0.1873
 5293TIP3    H137370   1.995   0.585   6.073  0.2461  0.9437 -1.6440
 5293TIP3    H237371   1.990   0.436   6.044  0.6239  0.3382  1.2395
 5294TIP3   OH237372   2.892   4.067  12.692  0.1890  0.0576  0.5781
 5294TIP3    H137373   2.942   4.010  12.633  1.7171 -0.9555  2.8039
 5294TIP3    H237374   2.902   4.155  12.654  1.1613 -0.5625 -0.6457
 5295TIP3   OH237375   6.261   5.416   4.570 -0.3483  0.0420  0.0983
 5295TIP3    H137376   6.297   5.329   4.587  0.7404  0.5276  0.2971
 5295TIP3    H237377   6.168   5.400   4.553 -0.5169 -0.9681  1.8626
 5296TIP3   OH237378   3.800   3.360  11.769  0.1400 -0.2374 -0.3417
 5296TIP3    H137379   3.812   3.344  11.675  2.1367  1.6427 -0.4552
 5296TIP3    H237380   3.889   3.366  11.803 -0.5721  0.0104  1.5160
 5297TIP3   OH237381   3.625   6.561   1.042  0.5813  0.0531  0.5315
 5297TIP3    H137382   3.604   6.634   0.984  5.8722  3.4538  2.5215
 5297TIP3    H237383   3.611   6.483   0.988 -0.4114  2.7533 -3.3419
 5298TIP3   OH237384   2.788   0.511   3.290  0.2912 -0.1947 -0.4282
 5298TIP3    H137385   2.826   0.424   3.300  0.0514 -0.3817 -1.0937
 5298TIP3    H237386   2.694   0.498   3.301  0.4915  0.4629  2.4540
 5299TIP3   OH237387   3.577   3.325   4.558 -0.1387 -0.1792 -0.1229
 5299TIP3    H137388   3.490   3.323   4.597 -0.2407 -1.3369 -0.4064
 5299TIP3    H237389   3.635   3.353   4.630 -0.6121 -0.2925  0.3035
 5300TIP3   OH237390   0.901   1.403   0.056  0.5029  0.1373 -0.0592
 5300TIP3    H137391   0.940   1.386   0.142  0.1473 -0.0864  0.0547
 5300TIP3    H237392   0.833   1.468   0.073  1.0900  0.8368 -0.3205
 5301TIP3   OH237393   5.459   4.353   5.231 -0.1197 -0.3779  0.4793
 5301TIP3    H137394   5.532   4.407   5.201 -0.2600  0.4570  1.6086
 5301TIP3    H237395   5.495   4.264   5.234  0.3380 -0.2401 -0.6220
 5302TIP3   OH237396   6.028   1.086   5.089 -0.4785  0.5250  0.6238
 5302TIP3    H137397   6.077   1.165   5.113 -0.7417  1.4459 -1.7815
 5302TIP3    H237398   5.982   1.110   5.009 -1.8944 -1.5523  0.7932
 5303TIP3   OH237399   4.104   3.250   0.216 -0.0740 -0.2548 -0.0319
 5303TIP3    H137400   4.100   3.163   0.176 -0.7964 -0.3853  0.3225
 5303TIP3    H237401   4.089   3.234   0.310 -0.4143  0.2750  0.0033
 5304TIP3   OH237402   1.721   2.590  11.202  0.0313 -0.1032 -0.1531
 5304TIP3    H137403   1.780   2.556  11.269 -0.5283  2.1913  1.5355
 5304TIP3    H237404   1.778   2.613  11.129  1.2596  2.1656  1.4852
 5305TIP3   OH237405   4.594   2.807  14.778 -0.1411  0.4657  0.0975
 5305TIP3    H137406   4.563   2.865  14.848  0.7687  1.3542 -0.2184
 5305TIP3    H237407   4.516   2.759  14.750 -0.8405  1.3056  0.5876
 5306TIP3   OH237408   4.274   5.606  11.349  0.2646 -0.0748 -0.7262
 5306TIP3    H137409   4.365   5.581  11.367 -0.0860 -0.2698  0.9022
 5306TIP3    H237410   4.279   5.698  11.324  1.0309 -0.3881 -1.7280
 5307TIP3   OH237411   2.085   5.538  14.967 -0.4542  0.1731 -0.1552
 5307TIP3    H137412   2.133   5.499  15.040  0.7154 -0.8927 -1.4597
 5307TIP3    H237413   2.079   5.631  14.988  0.1735 -0.0753  1.1276
 5308TIP3   OH237414   0.111   2.892   0.899  0.8021  0.4817  0.0969
 5308TIP3    H137415   0.059   2.972   0.911 -0.5278 -0.2249 -0.7941
 5308TIP3    H237416   0.132   2.864   0.988 -1.1992  0.2415  0.5316
 5309TIP3   OH237417   5.694   5.805   4.995  0.3029 -0.1857 -0.6402
 5309TIP3    H137418   5.780   5.826   5.030  0.5394 -1.4789 -0.4027
 5309TIP3    H237419   5.691   5.846   4.909  1.2395 -0.3222 -0.7376
 5310TIP3   OH237420   4.612   5.814   0.688 -0.5500  0.3885  0.1713
 5310TIP3    H137421   4.697   5.839   0.652 -0.0061 -0.1503  1.0582
 5310TIP3    H237422   4.632   5.783   0.776 -1.6408  0.0167  0.2909
 5311TIP3   OH237423   1.307   2.219  13.255  0.0540  0.6233  0.3881
 5311TIP3    H137424   1.278   2.282  13.189  1.8695  1.1267  0.0470
 5311TIP3    H237425   1.400   2.237  13.266  0.4671 -1.5971  0.7604
 5312TIP3   OH237426   2.808   0.222  13.505  0.8390 -0.5369  0.0439
 5312TIP3    H137427   2.719   0.192  13.486  1.7015 -3.5018  0.5153
 5312TIP3    H237428   2.805   0.251  13.596  0.1336  0.3350 -0.2469
 5313TIP3   OH237429   5.374   6.217   5.884  0.1856  0.0562 -0.1973
 5313TIP3    H137430   5.464   6.184   5.889 -0.1872 -1.2362 -1.8635
 5313TIP3    H237431   5.370   6.284   5.953  1.7494 -1.4453  1.4078
 5314TIP3   OH237432   5.159   0.097   3.866  0.5482  0.0302 -0.5749
 5314TIP3    H137433   5.147   0.020   3.810  1.6213 -0.5391 -0.0325
 5314TIP3    H237434   5.076   0.144   3.860  0.0723 -0.8904 -1.3305
 5315TIP3   OH237435   5.048   1.396  15.773 -0.1449  0.1939  0.1203
 5315TIP3    H137436   4.953   1.406  15.772 -0.0916  0.8312  1.2171
 5315TIP3    H237437   5.081   1.477  15.810  0.8314 -0.0567 -0.1767
 5316TIP3   OH237438   3.210   4.825  15.063  0.4624 -0.3818  0.1151
 5316TIP3    H137439   3.289   4.847  15.113  1.3643  2.3455 -2.3841
 5316TIP3    H237440   3.141   4.820  15.130  2.3853 -1.0508  2.1293
 5317TIP3   OH237441   2.942   6.512   4.922 -0.0998 -0.2133 -0.5604
 5317TIP3    H137442   2.865   6.477   4.968  0.2265 -0.4671 -0.2046
 5317TIP3    H237443   2.980   6.574   4.983 -1.7118  2.1702 -1.8861
 5318TIP3   OH237444   3.442   0.521  16.414  0.2124 -0.2771 -0.5247
 5318TIP3    H137445   3.501   0.490  16.482  1.2525 -1.2791 -1.8503
 5318TIP3    H237446   3.454   0.459  16.342 -0.4006  1.1035 -1.8452
 5319TIP3   OH237447   0.642   4.869  13.724 -0.2603  0.4386  0.3677
 5319TIP3    H137448   0.673   4.955  13.751  3.1281 -0.8748  1.0040
 5319TIP3    H237449   0.632   4.821  13.806 -2.5042  0.3035  0.0437
 5320TIP3   OH237450   5.790   4.751   3.258 -0.2171  0.0957  0.0130
 5320TIP3    H137451   5.883   4.730   3.253 -0.1229  0.6692 -0.7679
 5320TIP3    H237452   5.785   4.827   3.316 -0.0945  0.6513 -0.6953
 5321TIP3   OH237453   0.049   2.011   0.430 -0.3428  0.6113 -0.5678
 5321TIP3    H137454   0.067   1.940   0.368 -0.3764 -1.5517  1.8344
 5321TIP3    H237455  -0.036   2.045   0.402  0.5104  0.9709 -2.8556
 5322TIP3   OH237456   3.668   3.704   3.065 -0.2112 -0.2158  0.4975
 5322TIP3    H137457   3.648   3.677   3.155 -0.8738 -1.2582  0.0389
 5322TIP3    H237458   3.588   3.687   3.016  0.3737 -0.3134 -0.4356
 5323TIP3   OH237459   0.808   4.405   6.278 -0.3693  0.0305  0.1119
 5323TIP3    H137460   0.848   4.491   6.280 -0.1352 -0.0933  1.1086
 5323TIP3    H237461   0.852   4.356   6.347 -0.3944 -0.9374 -0.5436
 5324TIP3   OH237462   5.926   2.049  15.233 -0.0381 -0.0951 -0.0662
 5324TIP3    H137463   5.993   2.113  15.213 -0.1778  0.1825  0.3491
 5324TIP3    H237464   5.857   2.066  15.169  0.0235  0.0198 -0.1013
 5325TIP3   OH237465   1.730   0.165   0.203 -0.8507 -0.5779 -0.1386
 5325TIP3    H137466   1.705   0.257   0.215 -3.6499 -1.3476  0.4433
 5325TIP3    H237467   1.805   0.153   0.260 -1.0616  1.1251  0.5370
 5326TIP3   OH237468   6.240   6.280  13.996 -0.6754 -0.2179 -0.4818
 5326TIP3    H137469   6.230   6.351  14.059  3.0965 -2.0153  2.3075
 5326TIP3    H237470   6.311   6.308  13.938  0.9649 -1.7337  0.7498
 5327TIP3   OH237471   3.921   6.758   5.897 -0.4353  0.0287 -0.1371
 5327TIP3    H137472   3.924   6.669   5.862 -1.2245 -0.3705  0.8182
 5327TIP3    H237473   4.013   6.782   5.910 -0.2715 -1.0383  0.6332
 5328TIP3   OH237474   0.422   5.269   3.768  0.6692  0.3574 -0.3769
 5328TIP3    H137475   0.486   5.208   3.804 -0.5928 -0.4147  0.6076
 5328TIP3    H237476   0.419   5.341   3.831  0.6914  0.4744 -0.5093
 5329TIP3   OH237477   4.307   0.300   5.318 -0.1471 -0.6745  0.2445
 5329TIP3    H137478   4.250   0.239   5.270  0.0828 -1.0762  0.4807
 5329TIP3    H237479   4.396   0.269   5.301 -0.1343 -1.8574  2.3125
 5330TIP3   OH237480   3.483   1.137   0.015 -0.0228  0.5552 -0.1732
 5330TIP3    H137481   3.483   1.225  -0.023  1.7268  0.7995  0.3545
 5330TIP3    H237482   3.517   1.081  -0.055 -1.4008  0.2205 -0.6107
 5331TIP3   OH237483   6.513   1.774  14.537  0.1405 -0.2175 -0.1331
 5331TIP3    H137484   6.555   1.848  14.581 -0.3720 -0.6856  1.1932
 5331TIP3    H237485   6.581   1.736  14.482  0.4305  1.1925 -0.7577
 5332TIP3   OH237486   1.665   1.290  13.638  0.4768 -0.2419  0.2337
 5332TIP3    H137487   1.695   1.212  13.592  1.1641  0.5461 -0.6835
 5332TIP3    H237488   1.640   1.259  13.725  0.8602 -1.4595 -0.0857
 5333TIP3   OH237489   6.207   3.776  11.436 -0.0318 -0.6437  0.3119
 5333TIP3    H137490   6.274   3.840  11.461  0.4611 -1.7403  1.9326
 5333TIP3    H237491   6.194   3.790  11.343  1.1383  0.8249  0.3466
 5334TIP3   OH237492   2.198   3.783   5.299  0.4498 -0.3360  0.3713
 5334TIP3    H137493   2.176   3.876   5.291 -0.8515 -0.7103 -0.4619
 5334TIP3    H237494   2.250   3.764   5.221  0.1668 -0.4632  0.2136
 5335TIP3   OH237495   2.886   6.817   2.868 -0.4080  0.1507  0.6596
 5335TIP3    H137496   2.971   6.832   2.909  0.1072 -0.2648 -0.2364
 5335TIP3    H237497   2.823   6.841   2.935  0.4049 -1.8871  2.2093
 5336TIP3   OH237498   3.996   1.680  13.763  0.0804 -0.4981 -0.0737
 5336TIP3    H137499   4.024   1.589  13.776 -0.3876 -0.7652 -0.8713
 5336TIP3    H237500   3.911   1.672  13.719  0.2673  0.3369 -0.5864
 5337TIP3   OH237501   0.275   1.690   5.660  0.1376 -0.2075 -0.3228
 5337TIP3    H137502   0.210   1.620   5.666  0.4313 -0.4017  0.7646
 5337TIP3    H237503   0.233   1.758   5.608 -1.3611  0.1354  1.3062
 5338TIP3   OH237504   3.018   3.928   0.667  0.2255  0.2524 -0.0738
 5338TIP3    H137505   3.019   4.014   0.625 -2.3023 -0.0430 -0.8300
 5338TIP3    H237506   2.956   3.937   0.739 -1.0721 -1.2661 -0.9551
 5339TIP3   OH237507   1.397   1.943  15.992  0.3245 -0.2541 -0.7998
 5339TIP3    H137508   1.449   1.973  16.067  0.3709  0.2539 -1.0323
 5339TIP3    H237509   1.376   2.023  15.944 -1.6951 -0.3187 -0.0688
 5340TIP3   OH237510   2.177   2.049   2.661  0.1414  0.8328 -0.0687
 5340TIP3    H137511   2.145   2.054   2.751 -0.5571 -0.5912 -0.2159
 5340TIP3    H237512   2.260   2.002   2.667  0.6174  1.6577 -0.0625
 5341TIP3   OH237513   6.107   5.495  12.964  0.7315  0.0669 -0.0725
 5341TIP3    H137514   6.186   5.490  13.018  0.2601 -1.4276  0.4952
 5341TIP3    H237515   6.081   5.587  12.968  1.3855  0.2000  1.2532
 5342TIP3   OH237516   6.574   0.887   0.623  0.0698 -0.7324 -0.2050
 5342TIP3    H137517   6.491   0.921   0.592 -0.0931 -1.2622 -0.3570
 5342TIP3    H237518   6.610   0.839   0.548 -0.0865 -1.5864  0.2551
 5343TIP3   OH237519   4.098   0.135   5.198 -0.4099  0.1959 -0.4731
 5343TIP3    H137520   4.082   0.168   5.110 -1.0985  0.5130 -0.2349
 5343TIP3    H237521   4.012   0.139   5.241 -0.2528 -0.7538 -0.0549
 5344TIP3   OH237522   0.743   6.760   2.173 -0.0549 -0.3909  0.3081
 5344TIP3    H137523   0.789   6.842   2.154  2.0439 -1.7715 -0.8497
 5344TIP3    H237524   0.707   6.772   2.261  1.4505  1.2356  0.7318
 5345TIP3   OH237525   5.161   5.374   2.144  0.1183  0.3415 -0.1497
 5345TIP3    H137526   5.130   5.294   2.186  0.8470  1.0958  1.9269
 5345TIP3    H237527   5.084   5.408   2.098 -0.7813 -0.4045  0.7786
 5346TIP3   OH237528   3.859   0.423  16.279  0.5934  0.4314  0.0380
 5346TIP3    H137529   3.796   0.492  16.298  1.4332  1.0608  0.5709
 5346TIP3    H237530   3.830   0.386  16.196 -0.6131  0.5566  0.3917
 5347TIP3   OH237531   3.221   2.741  16.554 -0.0206  0.1206  0.2283
 5347TIP3    H137532   3.296   2.798  16.537  1.2847 -1.7708 -0.5647
 5347TIP3    H237533   3.181   2.728  16.468 -0.2307 -0.2767  0.3853
 5348TIP3   OH237534   0.685   2.504  14.626 -0.2662 -0.3188 -0.1542
 5348TIP3    H137535   0.779   2.522  14.630 -0.1596 -0.7773 -0.6384
 5348TIP3    H237536   0.646   2.573  14.680  0.4439 -0.8764  1.1056
 5349TIP3   OH237537   5.762   2.582  11.994  0.0382 -0.0131  0.2999
 5349TIP3    H137538   5.684   2.612  12.042  0.6916 -0.7524  1.8459
 5349TIP3    H237539   5.806   2.522  12.055  0.4913 -1.5503 -1.4999
 5350TIP3   OH237540   5.965   4.075  14.236 -0.2900 -0.3540 -0.1401
 5350TIP3    H137541   5.896   4.101  14.297  0.1218  1.8279 -0.5689
 5350TIP3    H237542   5.919   4.059  14.153 -0.3697  0.4860 -0.2626
 5351TIP3   OH237543   5.419   2.539   0.368 -0.1379  0.0184 -0.2428
 5351TIP3    H137544   5.362   2.615   0.355 -2.0131 -1.3000 -0.0165
 5351TIP3    H237545   5.460   2.555   0.453  0.1593  1.2037 -0.6056
 5352TIP3   OH237546   3.371   5.877   5.624 -0.2997 -0.1522 -0.4293
 5352TIP3    H137547   3.405   5.796   5.661 -1.1673 -0.6444 -0.6754
 5352TIP3    H237548   3.347   5.930   5.700 -0.6516 -0.5363 -0.2688
 5353TIP3   OH237549   3.415   5.778  16.148 -0.2844 -0.0521  0.2820
 5353TIP3    H137550   3.366   5.741  16.075  0.7156  0.5299 -0.6898
 5353TIP3    H237551   3.447   5.702  16.196  1.6009 -0.4784 -1.5946
 5354TIP3   OH237552   0.568   0.379   3.643  0.0082  0.5230 -0.5615
 5354TIP3    H137553   0.495   0.440   3.639 -1.2144 -0.9517 -1.2173
 5354TIP3    H237554   0.568   0.347   3.733 -1.9730 -1.5938 -1.2553
 5355TIP3   OH237555   5.126   1.856  17.239 -0.3314 -0.4036 -0.6612
 5355TIP3    H137556   5.056   1.915  17.266 -0.1758 -0.3841 -0.2922
 5355TIP3    H237557   5.081   1.783  17.196 -0.4870  0.2483 -1.6225
 5356TIP3   OH237558   6.092   1.169  16.077  0.1704 -0.2831 -0.6316
 5356TIP3    H137559   6.075   1.079  16.104  0.3567 -0.6953 -1.8798
 5356TIP3    H237560   6.034   1.184  16.003  0.7105  0.3617 -0.9364
 5357TIP3   OH237561   4.138   6.529   0.820  0.3712 -0.1068  0.2517
 5357TIP3    H137562   4.044   6.530   0.838  0.3890  0.7182  0.3129
 5357TIP3    H237563   4.145   6.499   0.729  0.0949 -0.8908  0.4846
 5358TIP3   OH237564   1.648   4.483  14.070  0.5601 -0.8145  0.4363
 5358TIP3    H137565   1.587   4.552  14.097 -0.5736  0.0021 -3.7799
 5358TIP3    H237566   1.601   4.402  14.086 -0.3770 -0.3351  0.1378
 5359TIP3   OH237567   6.719   3.765  11.445 -0.5534  0.5827 -0.4642
 5359TIP3    H137568   6.788   3.756  11.380 -1.0687 -0.2981 -0.8950
 5359TIP3    H237569   6.743   3.843  11.495  0.8913  0.1222 -0.4264
 5360TIP3   OH237570   3.400   1.309   5.177 -0.4850 -0.0119 -0.4003
 5360TIP3    H137571   3.345   1.235   5.203 -1.3527  1.4790  2.1571
 5360TIP3    H237572   3.463   1.318   5.249 -0.8399  2.1602 -0.3299
 5361TIP3   OH237573   6.182   2.795  11.179  0.1213 -0.3994 -0.1643
 5361TIP3    H137574   6.100   2.799  11.229 -0.2638 -0.2545 -0.7890
 5361TIP3    H237575   6.250   2.781  11.244 -0.2438  0.9672  0.5271
 5362TIP3   OH237576   6.639   3.136   1.229  0.1961 -0.3360  0.4397
 5362TIP3    H137577   6.695   3.108   1.302  0.1640 -1.9615 -0.1357
 5362TIP3    H237578   6.621   3.055   1.182 -1.5997  0.3884 -0.1150
 5363TIP3   OH237579   3.214   0.458   1.408 -0.4836  0.1513  0.1338
 5363TIP3    H137580   3.143   0.510   1.370 -0.4398  0.4168  0.4121
 5363TIP3    H237581   3.291   0.480   1.355 -0.4885  0.2939  0.1849
 5364TIP3   OH237582   4.227   6.681  14.999  0.5152  0.4064  0.3584
 5364TIP3    H137583   4.166   6.731  15.053  0.6010  0.5657  0.3042
 5364TIP3    H237584   4.207   6.706  14.909 -0.4639 -0.7725  0.2201
 5365TIP3   OH237585   3.040   1.746  16.684 -0.3924  0.2672 -0.8345
 5365TIP3    H137586   3.059   1.692  16.761 -2.0994 -1.5092 -1.6070
 5365TIP3    H237587   2.953   1.784  16.702 -1.2012 -0.8675 -2.2308
 5366TIP3   OH237588   5.205   0.098   5.129  0.2923 -0.1380  0.5638
 5366TIP3    H137589   5.260   0.034   5.083  0.8308  0.1774  0.7661
 5366TIP3    H237590   5.137   0.046   5.171  1.1321 -0.6515  1.3085
 5367TIP3   OH237591   4.464   0.155   1.855  0.5917 -0.3615  0.0113
 5367TIP3    H137592   4.376   0.126   1.882  0.2143 -0.8154 -1.6399
 5367TIP3    H237593   4.457   0.251   1.851 -0.0276 -0.4228 -0.6948
 5368TIP3   OH237594   3.561   0.836   2.145 -0.3488  0.0426 -0.7504
 5368TIP3    H137595   3.621   0.788   2.201  0.5305  0.6619 -1.1560
 5368TIP3    H237596   3.615   0.868   2.073 -1.4402 -0.6480 -1.9015
 5369TIP3   OH237597   4.184   4.476   0.876 -0.1233 -0.9858 -0.6449
 5369TIP3    H137598   4.236   4.407   0.834  2.1144  0.2706 -0.0128
 5369TIP3    H237599   4.194   4.458   0.970  0.6316  0.2948 -0.4755
 5370TIP3   OH237600   1.635   1.149   4.892 -0.0100 -0.2770  0.2322
 5370TIP3    H137601   1.693   1.147   4.816 -1.9980 -0.0595 -1.3131
 5370TIP3    H237602   1.620   1.056   4.913 -0.2494 -0.3502 -0.2569
 5371TIP3   OH237603   4.120   6.487   4.520 -0.2589  0.4160  0.2356
 5371TIP3    H137604   4.129   6.546   4.445  0.1367 -0.3365 -0.3121
 5371TIP3    H237605   4.026   6.473   4.528 -0.2155 -0.8221 -1.1685
 5372TIP3   OH237606   3.432   3.369   2.090  0.1881  0.3435 -0.2821
 5372TIP3    H137607   3.417   3.289   2.040  1.4561 -0.1191  0.0624
 5372TIP3    H237608   3.351   3.419   2.081 -0.6503 -1.0216 -0.4193
 5373TIP3   OH237609   3.846   1.390   2.950 -0.6431 -0.0217 -0.3716
 5373TIP3    H137610   3.771   1.330   2.947 -0.1396 -0.5917 -1.9760
 5373TIP3    H237611   3.854   1.423   2.861  2.2629 -1.5156 -0.7102
 5374TIP3   OH237612   3.849   6.598   0.792 -0.0435 -0.2167 -0.3926
 5374TIP3    H137613   3.852   6.551   0.875 -0.6172  0.3808 -0.0270
 5374TIP3    H237614   3.785   6.550   0.739 -0.0810 -0.2836 -0.2875
 5375TIP3   OH237615   6.570   2.672   2.760  0.3804 -0.7990  0.2490
 5375TIP3    H137616   6.553   2.766   2.762  0.3630 -0.8130  0.8631
 5375TIP3    H237617   6.483   2.632   2.754  0.1982 -0.8495  2.7077
 5376TIP3   OH237618   6.398   1.860   1.138  0.8910  0.0961  0.0955
 5376TIP3    H137619   6.350   1.908   1.205 -0.3088 -1.9519  0.7103
 5376TIP3    H237620   6.426   1.779   1.180  0.2083 -1.1905 -1.8375
 5377TIP3   OH237621   1.028   1.372   5.364  0.4661 -0.3260  0.3091
 5377TIP3    H137622   1.032   1.300   5.427 -1.6650  0.4085  1.3109
 5377TIP3    H237623   1.050   1.450   5.415  1.3090 -0.0515 -0.4533
 5378TIP3   OH237624   1.311   0.467  13.765 -0.2748  0.7977  0.0678
 5378TIP3    H137625   1.225   0.447  13.802  0.2233 -0.2588  0.6633
 5378TIP3    H237626   1.313   0.419  13.682 -0.0544  0.3800  0.3109
 5379TIP3   OH237627   6.457   4.661   1.022 -0.4927 -0.1508  0.4594
 5379TIP3    H137628   6.539   4.653   1.072  0.1789  0.8845 -0.4480
 5379TIP3    H237629   6.389   4.671   1.089  0.1945 -0.3775  1.2044
 5380TIP3   OH237630   1.836   4.163   0.702  0.0306  0.4234  0.6159
 5380TIP3    H137631   1.911   4.208   0.741  0.7448 -1.6783  1.7440
 5380TIP3    H237632   1.863   4.147   0.611  0.6869  0.2388  0.8396
 5381TIP3   OH237633   1.487   0.935  12.571  0.2602 -0.3303  0.2489
 5381TIP3    H137634   1.524   0.853  12.603 -2.4780 -1.2078  1.2862
 5381TIP3    H237635   1.562   0.994  12.566  2.0170 -2.4301  0.9648
 5382TIP3   OH237636   3.016   5.745  11.483 -0.4379  0.7617  0.0336
 5382TIP3    H137637   3.046   5.658  11.458 -2.4465  0.1597 -0.3730
 5382TIP3    H237638   2.958   5.731  11.557 -1.9865  1.5584 -0.9787
 5383TIP3   OH237639   2.628   3.090   4.520  0.0282 -0.2682  0.5789
 5383TIP3    H137640   2.714   3.119   4.551 -0.0421  0.0005  0.5241
 5383TIP3    H237641   2.574   3.087   4.599  0.2407 -0.9925  0.7011
 5384TIP3   OH237642   5.124   5.906  13.914  0.5256  0.2022 -0.2521
 5384TIP3    H137643   5.053   5.844  13.899  0.6485  0.2455 -1.0094
 5384TIP3    H237644   5.090   5.966  13.981 -0.7993  1.2675 -1.8593
 5385TIP3   OH237645   1.398   1.643  15.059 -0.7187 -0.2561 -0.4601
 5385TIP3    H137646   1.443   1.718  15.020 -1.9126 -0.5813 -2.4908
 5385TIP3    H237647   1.410   1.656  15.154  0.8737  1.3595 -0.8420
 5386TIP3   OH237648   0.847   0.376  17.251  0.3202 -0.1577 -0.1617
 5386TIP3    H137649   0.876   0.303  17.305 -0.1630  0.2817  0.7007
 5386TIP3    H237650   0.880   0.356  17.163  0.9987 -0.9387  0.2694
 5387TIP3   OH237651   3.311   2.996  16.800 -0.0062 -0.4466 -0.0268
 5387TIP3    H137652   3.329   2.949  16.719 -1.2143 -0.6819 -0.1767
 5387TIP3    H237653   3.390   3.048  16.817  0.2351 -0.3779 -1.3579
 5388TIP3   OH237654   4.550   6.115   0.943  0.7206 -0.0518 -0.0969
 5388TIP3    H137655   4.629   6.120   0.998  0.6249 -0.4053  0.0732
 5388TIP3    H237656   4.491   6.056   0.991  0.1285  0.6511  0.0576
 5389TIP3   OH237657   0.399   5.934   5.013  0.3938  0.5402  0.1291
 5389TIP3    H137658   0.377   5.862   5.073  2.7862 -0.2532  0.1340
 5389TIP3    H237659   0.345   5.920   4.936  0.6766 -1.1666  0.2314
 5390TIP3   OH237660   1.571   3.433  15.914  0.4637 -0.3751  0.1072
 5390TIP3    H137661   1.538   3.345  15.934  0.8570 -0.1325  1.9338
 5390TIP3    H237662   1.631   3.453  15.986 -0.3411  1.7519  0.2368
 5391TIP3   OH237663   5.060   1.188   2.878 -0.2383  0.0549  0.7037
 5391TIP3    H137664   5.150   1.162   2.858  0.6006  1.4338  2.5483
 5391TIP3    H237665   5.026   1.223   2.795  0.7197 -0.9748 -0.1437
 5392TIP3   OH237666   5.829   5.104  10.917  0.3736  0.1117  0.4793
 5392TIP3    H137667   5.741   5.109  10.955  0.4366  0.7289  0.5503
 5392TIP3    H237668   5.839   5.012  10.893  0.6470 -0.4381  2.6645
 5393TIP3   OH237669   3.423   5.809   6.003 -0.0676  0.5894 -0.1218
 5393TIP3    H137670   3.399   5.856   6.083 -0.8436 -1.0299  0.6183
 5393TIP3    H237671   3.517   5.793   6.011 -0.0005  1.0918  0.1125
 5394TIP3   OH237672   2.946   6.253  15.482  0.7542 -0.5156  0.0744
 5394TIP3    H137673   3.009   6.324  15.493 -0.0175  0.1308  0.4248
 5394TIP3    H237674   2.861   6.297  15.483  0.2834 -1.4175  0.0114
 5395TIP3   OH237675   2.200   2.935   0.521 -0.5367  0.0375 -0.1288
 5395TIP3    H137676   2.252   2.985   0.458 -1.7335  1.4908  0.0043
 5395TIP3    H237677   2.149   2.874   0.467  0.7274 -0.8752 -0.3119
 5396TIP3   OH237678   3.025   2.340   6.314  0.2015  0.1469 -0.0557
 5396TIP3    H137679   2.991   2.399   6.382 -1.0655  2.0473 -2.2714
 5396TIP3    H237680   3.093   2.391   6.270  1.6678 -1.4212  0.3375
 5397TIP3   OH237681   5.524   2.047  13.034  0.4237  0.3310  0.1581
 5397TIP3    H137682   5.441   2.035  12.987  0.0414  0.1153  0.8833
 5397TIP3    H237683   5.591   2.046  12.965 -0.1804  0.5697 -0.4372
 5398TIP3   OH237684   2.478   0.805  12.714  0.4265  0.7826  0.5784
 5398TIP3    H137685   2.431   0.867  12.658  1.4611  1.3257  0.2832
 5398TIP3    H237686   2.538   0.860  12.765  3.7380 -0.1920 -2.0370
 5399TIP3   OH237687   0.478   1.596  11.310 -0.0272  0.1768  0.9121
 5399TIP3    H137688   0.499   1.513  11.353 -1.1193 -1.4044 -1.5097
 5399TIP3    H237689   0.553   1.614  11.253 -1.0219 -0.6480 -0.6996
 5400TIP3   OH237690   4.667   3.570  12.531  0.1457 -0.1747 -0.5410
 5400TIP3    H137691   4.646   3.502  12.595 -0.4116 -0.0443 -0.5828
 5400TIP3    H237692   4.696   3.645  12.583 -0.4982 -0.0011 -0.4307
 5401TIP3   OH237693   6.234   0.801  14.161 -0.4170  0.3397 -0.6333
 5401TIP3    H137694   6.316   0.755  14.178 -1.1936 -0.5038  0.9617
 5401TIP3    H237695   6.194   0.754  14.088  0.4138  0.6176 -1.2666
 5402TIP3   OH237696   1.499   1.786  14.250 -0.2388 -0.0524 -0.4265
 5402TIP3    H137697   1.432   1.817  14.190 -0.1589 -0.2350 -0.6105
 5402TIP3    H237698   1.564   1.856  14.251 -0.7439  0.4124  0.2571
 5403TIP3   OH237699   2.957   1.741  11.734  0.5105 -0.3670 -0.0534
 5403TIP3    H137700   2.922   1.710  11.816 -1.6746 -4.2851 -2.3472
 5403TIP3    H237701   2.893   1.805  11.702  0.4791 -0.1750  0.3948
 5404TIP3   OH237702   2.877   4.692  12.834 -0.4645 -0.2320  0.6690
 5404TIP3    H137703   2.906   4.772  12.791 -1.3807 -1.0693 -1.5642
 5404TIP3    H237704   2.890   4.708  12.927  0.8395  1.9076  0.1249
 5405TIP3   OH237705   0.615   3.029   0.925  0.0750  0.2167 -0.7166
 5405TIP3    H137706   0.608   3.109   0.977 -0.8334  0.6854 -1.5541
 5405TIP3    H237707   0.556   3.043   0.851  0.8955 -0.7027 -1.5529
 5406TIP3   OH237708   5.889   3.245   1.680  0.2554 -0.5806 -0.5626
 5406TIP3    H137709   5.972   3.290   1.663 -0.2861  0.7527  0.3099
 5406TIP3    H237710   5.877   3.190   1.603  1.4482 -0.0154 -1.1765
 5407TIP3   OH237711   1.124   0.040   1.034  0.6570 -0.2645  0.0874
 5407TIP3    H137712   1.212   0.071   1.013 -0.6453  2.7508 -1.0946
 5407TIP3    H237713   1.108   0.070   1.123  0.2749  0.4970 -0.2325
 5408TIP3   OH237714   0.849   1.812   3.294 -0.5355 -0.6948  0.4353
 5408TIP3    H137715   0.863   1.907   3.294  0.3912 -0.8228 -0.1509
 5408TIP3    H237716   0.929   1.776   3.256 -1.0095 -1.6963  0.3668
 5409TIP3   OH237717   5.649   0.581  15.648  0.5078 -0.1870  0.5935
 5409TIP3    H137718   5.590   0.509  15.625 -0.1337 -0.1529  2.0953
 5409TIP3    H237719   5.669   0.567  15.740  0.4844  1.4907  0.8686
 5410TIP3   OH237720   5.628   5.206  13.332 -0.0817  0.3730  0.0852
 5410TIP3    H137721   5.618   5.277  13.270  0.8069  0.1273 -0.3387
 5410TIP3    H237722   5.695   5.236  13.393 -1.6473  1.0262  1.5280
 5411TIP3   OH237723   6.373   4.873  14.163 -0.4550 -0.0210  0.6403
 5411TIP3    H137724   6.371   4.871  14.258  0.3423  2.9547  0.7651
 5411TIP3    H237725   6.316   4.946  14.139 -0.8396 -0.8962 -1.1802
 5412TIP3   OH237726   6.685   0.116   5.083  0.0894 -0.1730 -0.2922
 5412TIP3    H137727   6.706   0.024   5.071  2.9249  0.4264 -0.1706
 5412TIP3    H237728   6.633   0.139   5.006 -1.7586 -2.1472  0.2997
 5413TIP3   OH237729   4.339   4.500  17.266  0.0513  0.1097  0.5593
 5413TIP3    H137730   4.348   4.408  17.242  2.8879  0.3094  0.6597
 5413TIP3    H237731   4.303   4.499  17.355 -3.6984 -0.7596 -0.8663
 5414TIP3   OH237732   2.110   3.560  12.922  0.2528 -0.0451 -0.2839
 5414TIP3    H137733   2.167   3.507  12.866 -0.0653 -1.0660  0.3459
 5414TIP3    H237734   2.168   3.628  12.957  1.2407 -1.4127  0.8030
 5415TIP3   OH237735   2.491   5.008  13.228 -0.1567 -0.3954  0.0234
 5415TIP3    H137736   2.428   5.056  13.282  0.9371 -0.2341  1.1922
 5415TIP3    H237737   2.521   5.072  13.164  1.4326  0.5676  1.6890
 5416TIP3   OH237738   1.463   2.524  11.115  0.7126 -0.7205 -0.1337
 5416TIP3    H137739   1.489   2.443  11.159  1.4462 -0.5483 -0.2539
 5416TIP3    H237740   1.522   2.591  11.151  0.9540 -0.4755 -0.9794
 5417TIP3   OH237741   4.202   4.040   2.189  0.2065  0.4769 -0.0009
 5417TIP3    H137742   4.108   4.027   2.181  0.3487 -0.8675  0.4053
 5417TIP3    H237743   4.211   4.129   2.222 -0.9165  0.6413 -0.1160
 5418TIP3   OH237744   4.092   2.860  16.529 -0.3684  0.6022  0.5962
 5418TIP3    H137745   4.157   2.792  16.511  0.4037  1.7025 -0.8075
 5418TIP3    H237746   4.008   2.817  16.511  0.1863  0.4240 -1.6507
 5419TIP3   OH237747   4.072   1.591   0.833 -0.0337  0.5549 -0.1022
 5419TIP3    H137748   3.991   1.594   0.782  0.1733 -0.3182 -0.4747
 5419TIP3    H237749   4.135   1.548   0.776  0.5580  0.7695  0.3860
 5420TIP3   OH237750   0.448   2.973   0.565  0.2252 -0.0857  0.4586
 5420TIP3    H137751   0.398   2.956   0.485  0.1861  0.2499  0.4117
 5420TIP3    H237752   0.384   3.006   0.628  0.2798 -0.2214  0.5870
 5421TIP3   OH237753   0.665   5.158   5.054 -0.5717 -0.5288  0.6891
 5421TIP3    H137754   0.603   5.119   5.116 -1.6478  0.5062  0.2948
 5421TIP3    H237755   0.748   5.159   5.100 -1.1205 -0.7882  1.7004
 5422TIP3   OH237756   1.364   4.431   5.760  0.5523  0.7098  0.0182
 5422TIP3    H137757   1.449   4.394   5.784  0.7007  0.5875 -0.6929
 5422TIP3    H237758   1.309   4.354   5.743  0.2760  0.7879  0.5442
 5423TIP3   OH237759   5.332   1.618   2.261 -0.1629 -0.1763  0.7312
 5423TIP3    H137760   5.259   1.558   2.266  0.9843 -1.4968  1.9777
 5423TIP3    H237761   5.406   1.570   2.297  1.0937  1.4933  0.4711
 5424TIP3   OH237762   1.241   1.929   3.386 -0.3517 -0.2835 -0.1659
 5424TIP3    H137763   1.240   2.010   3.437 -0.3665  0.2842 -1.0408
 5424TIP3    H237764   1.220   1.958   3.297  0.9236 -1.0839 -0.7325
 5425TIP3   OH237765   5.390   3.697  13.636  0.3686 -0.1703 -0.1564
 5425TIP3    H137766   5.447   3.764  13.674 -0.1705 -0.1359  0.5813
 5425TIP3    H237767   5.320   3.746  13.594 -0.2911 -0.2900  0.8057
 5426TIP3   OH237768   3.511   5.436   4.241  0.3424 -0.6813 -0.0991
 5426TIP3    H137769   3.432   5.459   4.289  1.1389  0.1120  0.8731
 5426TIP3    H237770   3.480   5.389   4.164 -1.0650 -0.3920  0.2753
 5427TIP3   OH237771   4.846   5.543   2.362  0.3125 -0.0254 -0.4830
 5427TIP3    H137772   4.776   5.561   2.299 -2.1364 -1.2251  1.7619
 5427TIP3    H237773   4.846   5.447   2.370  0.6114  0.1041  1.2660
 5428TIP3   OH237774   4.159   0.794  15.051  0.8044 -0.1843 -0.1236
 5428TIP3    H137775   4.215   0.753  14.986  1.8525 -1.0309  1.2848
 5428TIP3    H237776   4.130   0.722  15.107 -0.2910  0.4852  0.1907
 5429TIP3   OH237777   5.006   1.239  16.108  0.3962 -0.2712  0.1248
 5429TIP3    H137778   5.020   1.206  16.197  1.8439  1.8522  0.7227
 5429TIP3    H237779   4.956   1.319  16.119 -0.8957 -0.8900 -1.1190
 5430TIP3   OH237780   6.425   5.022  12.494 -0.1700  0.3089 -0.0063
 5430TIP3    H137781   6.392   4.932  12.487 -1.3065  0.8089 -1.4438
 5430TIP3    H237782   6.519   5.014  12.483 -0.5444 -0.4324 -3.2756
 5431TIP3   OH237783   0.757   3.148  16.951 -0.4033 -0.4500 -0.0056
 5431TIP3    H137784   0.717   3.140  17.037 -0.1478  1.0039  0.2670
 5431TIP3    H237785   0.809   3.068  16.940  0.2757 -0.2366  1.5780
 5432TIP3   OH237786   2.605   4.042   4.399 -0.0403  0.0119 -0.2998
 5432TIP3    H137787   2.573   3.976   4.460  0.7195  0.3272  0.4363
 5432TIP3    H237788   2.679   4.082   4.443  0.6192  0.1297 -1.4912
 5433TIP3   OH237789   0.408   2.104   3.177  0.3632  0.5783  0.2655
 5433TIP3    H137790   0.454   2.030   3.137  1.4993  0.7229  1.2764
 5433TIP3    H237791   0.411   2.173   3.111  0.5141  0.1847 -0.1425
 5434TIP3   OH237792   2.908   3.851   6.277 -0.2231  0.1710 -0.2121
 5434TIP3    H137793   2.842   3.861   6.208  0.9680  0.7455 -1.3009
 5434TIP3    H237794   2.859   3.850   6.358 -1.6171  0.0250 -1.0501
 5435TIP3   OH237795   0.276   2.503   1.510  0.6770  0.0656  0.2465
 5435TIP3    H137796   0.220   2.440   1.555 -0.5271  0.1384 -1.1385
 5435TIP3    H237797   0.332   2.449   1.454 -1.3951  0.2800 -2.1012
 5436TIP3   OH237798   6.497   2.050   1.935  0.0772  0.0262 -0.2312
 5436TIP3    H137799   6.567   1.986   1.950 -1.3853 -1.6451 -0.2951
 5436TIP3    H237800   6.500   2.106   2.012  0.6837 -0.7989  0.3633
 5437TIP3   OH237801   0.214   4.806  14.620 -0.1176  0.7521 -0.2404
 5437TIP3    H137802   0.274   4.785  14.549 -1.5259  2.6257 -2.0269
 5437TIP3    H237803   0.271   4.826  14.694  1.3708 -0.9728 -0.8736
 5438TIP3   OH237804   0.287   0.903  12.760  0.4791 -0.2015  0.9239
 5438TIP3    H137805   0.339   0.982  12.753  0.5563 -0.2765  0.6330
 5438TIP3    H237806   0.239   0.899  12.677  1.1144 -0.9100  0.5901
 5439TIP3   OH237807   4.985   2.743   1.611  0.9495 -0.8408 -0.3021
 5439TIP3    H137808   4.921   2.711   1.548  0.8947 -0.6756 -0.3294
 5439TIP3    H237809   4.933   2.773   1.685  0.9220  0.6241 -0.9126
 5440TIP3   OH237810   5.221   3.260  13.031  0.0618  0.1930  0.1632
 5440TIP3    H137811   5.143   3.268  13.086 -0.6155 -2.0295 -0.4274
 5440TIP3    H237812   5.190   3.281  12.943 -0.0804 -1.4288 -0.1961
 5441TIP3   OH237813   1.068   2.064   5.823 -0.3494  0.0645 -0.8436
 5441TIP3    H137814   0.991   2.028   5.865 -1.1371  0.2831 -2.0780
 5441TIP3    H237815   1.038   2.092   5.736  0.9751  0.6777 -1.1247
 5442TIP3   OH237816   4.658   3.743   2.973  0.6089 -0.1241 -0.8592
 5442TIP3    H137817   4.711   3.732   3.053  1.5794  0.0934 -1.4622
 5442TIP3    H237818   4.639   3.836   2.969  1.4534  0.0267 -1.4381
 5443TIP3   OH237819   0.343   0.503   5.156  0.0695  0.4106 -0.3782
 5443TIP3    H137820   0.360   0.564   5.228 -0.0880 -0.6508  0.5633
 5443TIP3    H237821   0.255   0.469   5.173  0.4863 -0.7186 -0.4387
 5444TIP3   OH237822   4.302   5.217   3.142 -0.0055 -0.3105  0.4972
 5444TIP3    H137823   4.246   5.259   3.077  0.0533 -0.6450  0.2301
 5444TIP3    H237824   4.348   5.289   3.184  1.1128 -0.2048 -0.8908
 5445TIP3   OH237825   5.261   2.912   0.175  0.2078 -0.1484  0.6602
 5445TIP3    H137826   5.281   2.981   0.112 -1.8898  0.7287  0.8960
 5445TIP3    H237827   5.280   2.951   0.261 -1.6915  0.4318  0.8388
 5446TIP3   OH237828   5.133   5.135   5.326  0.1742 -0.1773 -0.3095
 5446TIP3    H137829   5.222   5.104   5.310  0.6581  0.9174  0.2146
 5446TIP3    H237830   5.143   5.227   5.350 -1.2509  0.4766 -2.0611
 5447TIP3   OH237831   1.262   5.642  15.304  0.4599  0.0873 -0.4108
 5447TIP3    H137832   1.282   5.735  15.293  0.6916  0.0786 -0.0895
 5447TIP3    H237833   1.246   5.610  15.216  0.8689  0.3242 -0.5738
 5448TIP3   OH237834   5.067   4.313   2.686  1.0431  0.1889 -0.0455
 5448TIP3    H137835   5.045   4.221   2.675 -3.4352  0.9819  1.3150
 5448TIP3    H237836   5.113   4.316   2.770  2.3116 -0.8905 -0.6681
 5449TIP3   OH237837   1.892   5.918   2.910 -0.2856  0.2050  0.0688
 5449TIP3    H137838   1.902   5.832   2.869 -0.4118  0.1583  0.1375
 5449TIP3    H237839   1.979   5.938   2.945 -0.3470 -0.0571  0.3745
 5450TIP3   OH237840   3.451   5.220  12.785  0.4747  0.7068  0.2562
 5450TIP3    H137841   3.424   5.176  12.704  0.3783 -0.2615  0.7968
 5450TIP3    H237842   3.479   5.307  12.757 -0.8284  0.8593 -0.6502
 5451TIP3   OH237843   5.982   0.762   2.245  0.6300 -0.3442  0.0652
 5451TIP3    H137844   5.999   0.845   2.289 -0.0580  0.0854 -0.4672
 5451TIP3    H237845   6.001   0.696   2.311  1.1603  0.2315  0.5035
 5452TIP3   OH237846   3.058   1.851  12.230  0.4577  0.1087 -0.0658
 5452TIP3    H137847   3.103   1.839  12.314 -0.3950  0.8035  0.5048
 5452TIP3    H237848   3.057   1.946  12.218 -2.3214  0.2243  0.7754
 5453TIP3   OH237849   1.687   5.925  16.587 -0.1293  0.6800 -0.1788
 5453TIP3    H137850   1.664   5.835  16.607 -1.8546  1.0854 -0.2885
 5453TIP3    H237851   1.710   5.924  16.494  1.7919  0.0028  0.2686
 5454TIP3   OH237852   2.593   0.784   3.286 -0.1393  0.5767  0.2426
 5454TIP3    H137853   2.687   0.803   3.286  0.1079 -0.5760 -0.2380
 5454TIP3    H237854   2.570   0.777   3.193 -0.4572 -0.2648  0.3773
 5455TIP3   OH237855   5.976   1.535   3.634 -0.6622  0.0199  0.0951
 5455TIP3    H137856   5.935   1.615   3.602  0.9818  0.4597 -0.9323
 5455TIP3    H237857   5.910   1.497   3.693 -1.8974  1.5319 -0.2717
 5456TIP3   OH237858   0.212   5.023   4.687 -0.2747 -0.3176 -0.1143
 5456TIP3    H137859   0.298   5.001   4.723  0.3482  0.0798 -1.3168
 5456TIP3    H237860   0.213   5.118   4.679 -1.5423 -0.1397  1.5857
 5457TIP3   OH237861   4.731   3.947  14.874  0.0631  0.1994 -0.5564
 5457TIP3    H137862   4.678   3.872  14.848  0.5527 -0.8735  1.4012
 5457TIP3    H237863   4.818   3.927  14.839  0.4053 -0.6015  0.7142
 5458TIP3   OH237864   3.050   1.441  12.565  0.1462  0.2871 -0.3197
 5458TIP3    H137865   3.133   1.477  12.534  1.0150 -0.5544  0.9271
 5458TIP3    H237866   3.040   1.479  12.653 -0.9279  0.5931 -0.5752
 5459TIP3   OH237867   4.742   2.458   2.507  0.6307 -0.0108  0.3379
 5459TIP3    H137868   4.649   2.434   2.509  0.8743 -1.1279 -0.6805
 5459TIP3    H237869   4.743   2.544   2.465 -0.0946  0.9364  2.1963
 5460TIP3   OH237870   6.774   6.053  14.415 -0.2125 -0.0107  0.1734
 5460TIP3    H137871   6.764   6.074  14.508 -2.7639  0.3255 -0.1285
 5460TIP3    H237872   6.783   6.139  14.372  0.6111 -0.1461  0.0746
 5461TIP3   OH237873   1.487   4.187   1.250 -0.3418  0.5998 -0.0624
 5461TIP3    H137874   1.467   4.171   1.158 -2.0366  0.3277  0.3295
 5461TIP3    H237875   1.535   4.269   1.251  1.2608 -0.2956 -1.3468
 5462TIP3   OH237876   4.872   1.145   4.582 -0.7109 -0.3230 -0.3863
 5462TIP3    H137877   4.800   1.110   4.634 -1.3499  1.5119  0.0294
 5462TIP3    H237878   4.951   1.125   4.633 -1.1084 -0.6773  0.0960
 5463TIP3   OH237879   0.112   6.122  16.656  0.5480 -0.3596  0.0790
 5463TIP3    H137880   0.162   6.044  16.633 -1.6596 -1.6026 -0.5667
 5463TIP3    H237881   0.113   6.123  16.752  0.5238 -1.1969  0.0869
 5464TIP3   OH237882   2.360   6.367  12.245 -0.3289  0.0054  0.5422
 5464TIP3    H137883   2.285   6.386  12.189 -1.5618 -0.6910  1.9131
 5464TIP3    H237884   2.329   6.296  12.302  1.9182 -1.4222  0.0374
 5465TIP3   OH237885   6.391   2.626  16.779 -0.3266 -0.8711 -0.0665
 5465TIP3    H137886   6.367   2.714  16.808 -0.4188 -0.0492 -2.5282
 5465TIP3    H237887   6.379   2.628  16.684 -5.2529 -5.0527  0.2725
 5466TIP3   OH237888   4.756   5.351  13.752 -0.3636 -0.2039 -0.5867
 5466TIP3    H137889   4.676   5.324  13.797 -0.0249  0.5708  0.5137
 5466TIP3    H237890   4.811   5.387  13.822  0.0713  1.2496 -1.6585
 5467TIP3   OH237891   5.775   5.500   6.605 -0.2892  0.2859  0.2825
 5467TIP3    H137892   5.722   5.457   6.672  1.0178  0.2631  1.3156
 5467TIP3    H237893   5.812   5.576   6.649 -0.0390  0.7037 -0.6420
 5468TIP3   OH237894   1.620   0.244  14.161 -0.2099 -0.0942 -0.1397
 5468TIP3    H137895   1.535   0.247  14.118 -1.0653 -1.0352  1.4252
 5468TIP3    H237896   1.650   0.334  14.162 -1.5735  0.3696  0.0173
 5469TIP3   OH237897   2.170   4.254  11.681 -0.2374  0.6184 -0.0008
 5469TIP3    H137898   2.124   4.222  11.603  1.0020 -1.5105  0.1163
 5469TIP3    H237899   2.100   4.275  11.743 -1.1710  0.8891 -1.1211
 5470TIP3   OH237900   5.370   2.695  15.779 -0.3780  0.0204 -0.5949
 5470TIP3    H137901   5.425   2.686  15.702  0.8350  2.2589 -0.0372
 5470TIP3    H237902   5.424   2.661  15.851  0.3197  2.1661 -0.0578
 5471TIP3   OH237903   0.942   3.149  16.069  0.1059  0.1008  0.4333
 5471TIP3    H137904   1.007   3.132  16.001 -1.1069  0.8721 -0.9617
 5471TIP3    H237905   0.895   3.066  16.078  0.5195 -0.1151  0.6055
 5472TIP3   OH237906   4.084   3.236  14.384  0.7441 -0.0219  0.9855
 5472TIP3    H137907   4.021   3.296  14.345 -0.5606 -1.9308  0.1086
 5472TIP3    H237908   4.041   3.202  14.463  1.1213 -0.4559  1.0104
 5473TIP3   OH237909   5.339   0.674   3.495 -0.2365 -0.3013 -0.1694
 5473TIP3    H137910   5.413   0.637   3.542  0.0452  0.6388  0.1307
 5473TIP3    H237911   5.264   0.623   3.525  0.1015 -0.4139  0.4940
 5474TIP3   OH237912   5.191   1.524   3.878  1.1754 -0.1196  0.3915
 5474TIP3    H137913   5.217   1.606   3.837  0.8854  0.3507  1.1329
 5474TIP3    H237914   5.245   1.519   3.957  0.5148 -0.1755  0.8416
 5475TIP3   OH237915   1.852   5.248  15.475 -0.3083  0.0729 -0.2489
 5475TIP3    H137916   1.792   5.190  15.521  0.6824  0.9690  2.2955
 5475TIP3    H237917   1.800   5.286  15.405 -1.9656 -1.1527  0.2936
 5476TIP3   OH237918   0.501   1.484   3.394 -0.1013 -0.8443 -0.8937
 5476TIP3    H137919   0.503   1.414   3.328 -2.0810 -0.2697 -1.6013
 5476TIP3    H237920   0.516   1.439   3.477  0.7349 -1.8150 -1.5623
 5477TIP3   OH237921   2.148   0.923   0.285  0.8744 -0.3071  0.3642
 5477TIP3    H137922   2.232   0.925   0.239 -0.1583  0.4505 -1.5352
 5477TIP3    H237923   2.095   0.990   0.241 -0.7504 -0.8599  1.4589
 5478TIP3   OH237924   2.762   4.565   2.086 -0.2550  0.0937 -0.5114
 5478TIP3    H137925   2.753   4.644   2.140 -0.1063 -0.0727 -0.2398
 5478TIP3    H237926   2.853   4.538   2.098  0.0471  0.6022 -1.6254
 5479TIP3   OH237927   3.026   3.349   0.403  0.1167 -0.1585 -0.1841
 5479TIP3    H137928   2.965   3.276   0.405  0.1210 -0.1680 -0.3368
 5479TIP3    H237929   3.070   3.347   0.488 -0.7139  0.3892  0.2574
 5480TIP3   OH237930   1.408   6.032   2.188 -0.6886 -0.6089  0.3255
 5480TIP3    H137931   1.472   6.043   2.117 -1.1824 -0.5671 -0.1141
 5480TIP3    H237932   1.439   6.091   2.257  0.6201 -1.7475  0.7308
 5481TIP3   OH237933   2.236   1.508   4.630  0.7270 -0.0698  0.0323
 5481TIP3    H137934   2.304   1.441   4.625  0.0422 -0.9232  1.8250
 5481TIP3    H237935   2.284   1.590   4.646  1.2725 -0.9209  3.0538
 5482TIP3   OH237936   1.486   2.116   1.818  0.2345 -0.4298 -0.1229
 5482TIP3    H137937   1.545   2.191   1.827 -0.6185  0.0293  2.0209
 5482TIP3    H237938   1.490   2.093   1.725  1.7754  1.2303 -0.4956
 5483TIP3   OH237939   3.816   3.383  16.785  1.0646  0.2997 -0.2107
 5483TIP3    H137940   3.907   3.355  16.775  0.4830 -0.9463 -2.3404
 5483TIP3    H237941   3.809   3.410  16.876  4.3294  3.1516 -0.6579
 5484TIP3   OH237942   0.590   0.916   5.390  0.4651 -0.0418 -0.2639
 5484TIP3    H137943   0.525   0.959   5.336 -0.0119 -1.0552 -0.5103
 5484TIP3    H237944   0.656   0.884   5.328  1.4065  1.3315  0.0181
 5485TIP3   OH237945   3.453   6.715  12.784  0.4589  0.4557  0.2484
 5485TIP3    H137946   3.431   6.634  12.829 -1.6876  0.9619  0.1731
 5485TIP3    H237947   3.518   6.757  12.840  2.7124 -1.9736 -0.4432
 5486TIP3   OH237948   0.530   3.834  15.551  0.3335 -0.0770 -0.3077
 5486TIP3    H137949   0.602   3.786  15.591 -1.7237 -1.8618  1.3277
 5486TIP3    H237950   0.513   3.907  15.610 -1.8240 -1.9574  1.4719
 5487TIP3   OH237951   3.883   0.765   5.431 -0.0924  0.2763 -0.5399
 5487TIP3    H137952   3.904   0.754   5.524  1.1368 -0.8087 -0.9308
 5487TIP3    H237953   3.794   0.732   5.422 -0.5293  1.1971  0.4181
 5488TIP3   OH237954   3.828   4.705   5.019 -0.1418  0.3456 -0.2177
 5488TIP3    H137955   3.764   4.762   5.061 -0.3090  0.0791 -0.1125
 5488TIP3    H237956   3.904   4.762   5.003 -0.5727  0.7806 -0.7610
 5489TIP3   OH237957   2.234   4.419   1.241 -0.0123 -0.2092 -0.1921
 5489TIP3    H137958   2.274   4.370   1.313  1.2863 -0.0945 -0.8096
 5489TIP3    H237959   2.157   4.368   1.217  1.3331 -2.0250 -0.8467
 5490TIP3   OH237960   0.428   0.689   0.477  0.0056 -0.0258 -0.3149
 5490TIP3    H137961   0.452   0.663   0.388  0.8696  0.6682 -0.2974
 5490TIP3    H237962   0.377   0.769   0.466 -0.9275 -0.6034 -0.2506
 5491TIP3   OH237963   3.410   2.686  11.533  0.6420 -0.0951  0.0629
 5491TIP3    H137964   3.487   2.676  11.589  0.7311 -1.4202 -0.2764
 5491TIP3    H237965   3.423   2.622  11.463 -0.0794  0.6708 -0.7824
 5492TIP3   OH237966   6.085   4.656   0.442  0.5068  0.3193  0.4817
 5492TIP3    H137967   6.073   4.586   0.506  0.6306  2.1439  2.5626
 5492TIP3    H237968   5.997   4.674   0.410  0.4878 -0.8548 -0.1521
 5493TIP3   OH237969   1.671   5.923  12.978  0.3363  0.2207  0.3973
 5493TIP3    H137970   1.696   5.861  12.909  1.5861 -0.0397  1.0607
 5493TIP3    H237971   1.599   5.973  12.941  0.7005 -0.2261 -0.9297
 5494TIP3   OH237972   2.095   0.120  13.491  0.7257 -0.8161 -0.0293
 5494TIP3    H137973   2.109   0.211  13.515 -1.8485 -0.7550  1.4586
 5494TIP3    H237974   2.163   0.071  13.536  0.9549  0.1827  0.7011
 5495TIP3   OH237975   0.122   5.175   3.261  0.1151 -0.0296 -0.2913
 5495TIP3    H137976   0.215   5.194   3.276  0.1980  0.6336 -1.5838
 5495TIP3    H237977   0.081   5.191   3.346  0.9692  1.0940 -0.0720
 5496TIP3   OH237978   3.162   5.396   1.748 -0.1238 -0.3340  0.1093
 5496TIP3    H137979   3.145   5.302   1.747 -0.6842 -0.2592  1.3409
 5496TIP3    H237980   3.110   5.429   1.821  0.9554  0.7641  0.4008
 5497TIP3   OH237981   0.208   4.946   3.880 -0.0316  0.1277  0.1901
 5497TIP3    H137982   0.261   4.931   3.802 -0.9388  2.0330 -0.8135
 5497TIP3    H237983   0.156   4.866   3.889 -0.9122  0.4366 -1.9642
 5498TIP3   OH237984   5.943   6.336  16.645 -0.2993 -0.6288  0.5496
 5498TIP3    H137985   5.903   6.417  16.615 -2.0488 -1.4283  0.6779
 5498TIP3    H237986   6.037   6.355  16.647 -0.7456  1.6911  1.4937
 5499TIP3   OH237987   5.132   4.968   4.361 -0.3607  0.1033  0.0934
 5499TIP3    H137988   5.067   5.032   4.392 -0.1571  0.2311  0.2515
 5499TIP3    H237989   5.088   4.884   4.372 -0.3007  0.1508  0.7000
 5500TIP3   OH237990   4.108   4.145   6.425  0.2865  0.5654  0.3333
 5500TIP3    H137991   4.034   4.098   6.387  2.6347 -0.8943 -2.6908
 5500TIP3    H237992   4.100   4.131   6.520 -1.5713 -2.1923 -0.1750
 5501TIP3   OH237993   2.637   4.482  17.241  0.1585  0.2634  0.6229
 5501TIP3    H137994   2.650   4.448  17.153 -2.5153 -0.6039  0.5203
 5501TIP3    H237995   2.718   4.459  17.288  0.7801 -1.0308 -1.0369
 5502TIP3   OH237996   3.128   6.249   3.922  0.2035  0.0814 -0.8629
 5502TIP3    H137997   3.179   6.187   3.975  1.9406  1.9550 -0.2674
 5502TIP3    H237998   3.037   6.222   3.935  0.8595 -1.8503  0.0058
 5503TIP3   OH237999   0.514   5.499   3.564 -0.4436  0.3779  0.2933
 5503TIP3    H138000   0.534   5.590   3.544 -0.5865  0.3281 -0.0710
 5503TIP3    H238001   0.419   5.497   3.573 -0.6108 -0.0738 -1.4079
 5504TIP3   OH238002   5.487   0.075   4.769  0.5640  0.1565  0.6694
 5504TIP3    H138003   5.471   0.163   4.734  0.9013  0.1134  0.4023
 5504TIP3    H238004   5.400   0.039   4.783  0.4269  0.0711 -0.4009
 5505TIP3   OH238005   3.778   6.582  16.617 -0.1466 -0.2366 -0.2351
 5505TIP3    H138006   3.728   6.605  16.696  0.6077  0.0824  0.1518
 5505TIP3    H238007   3.727   6.619  16.545 -0.1710  0.5982  0.2020
 5506TIP3   OH238008   5.958   1.297  12.376  0.4219 -0.3183  0.2811
 5506TIP3    H138009   5.930   1.283  12.286  0.9698 -0.7742  0.1845
 5506TIP3    H238010   5.972   1.209  12.411  1.4575 -0.0984  0.4218
 5507TIP3   OH238011   1.153   1.985   5.193 -0.3674 -0.3044 -0.1312
 5507TIP3    H138012   1.198   1.999   5.276 -0.5320 -3.2620  0.5288
 5507TIP3    H238013   1.130   1.892   5.194 -3.9345  0.4732 -1.7287
 5508TIP3   OH238014   0.488   0.718  10.795 -0.3955  0.2287 -0.6161
 5508TIP3    H138015   0.457   0.803  10.763  1.7083  1.1118 -0.3375
 5508TIP3    H238016   0.501   0.731  10.889 -0.0781 -0.4216 -0.5665
 5509TIP3   OH238017   4.563   3.700   1.587 -0.2583 -0.1148 -0.3043
 5509TIP3    H138018   4.487   3.641   1.590  0.2405 -0.7182  0.7513
 5509TIP3    H238019   4.618   3.671   1.659  0.2848  1.2822 -0.1503
 5510TIP3   OH238020   3.716   1.439   4.066  0.0153  0.0554 -0.2033
 5510TIP3    H138021   3.684   1.373   4.128 -1.3989  0.4153 -0.5445
 5510TIP3    H238022   3.693   1.403   3.980  2.1306 -0.5313 -0.5665
 5511TIP3   OH238023   0.957   0.877   1.226 -0.0964  0.5589  0.0188
 5511TIP3    H138024   0.925   0.833   1.305  3.6112 -0.3708  1.1248
 5511TIP3    H238025   0.892   0.944   1.207 -2.7672 -1.4110  1.8873
 5512TIP3   OH238026   0.292   5.638  12.987 -0.3185  0.1766  0.2628
 5512TIP3    H138027   0.373   5.659  13.033 -1.1330 -0.5520  2.0681
 5512TIP3    H238028   0.223   5.678  13.039 -1.1041  1.0622 -1.4360
 5513TIP3   OH238029   6.516   6.407   6.010 -0.6544 -0.4169 -0.6452
 5513TIP3    H138030   6.508   6.451   5.926  0.6765 -1.2106 -1.2094
 5513TIP3    H238031   6.581   6.338   5.994  0.1304 -0.1269  1.2136
 5514TIP3   OH238032   0.092   5.307   2.210  0.2329 -0.3464 -0.6774
 5514TIP3    H138033   0.045   5.250   2.270  0.8171 -0.5933 -0.4548
 5514TIP3    H238034   0.157   5.250   2.169  1.3897  0.3469  0.1716
 5515TIP3   OH238035   6.182   5.630   1.777 -0.3640 -0.5942 -0.2777
 5515TIP3    H138036   6.238   5.687   1.724 -1.6624 -0.7063 -1.8127
 5515TIP3    H238037   6.100   5.678   1.785  0.0952 -0.1993  2.4120
 5516TIP3   OH238038   1.472   2.422  13.553  0.2552 -0.4017 -0.5268
 5516TIP3    H138039   1.386   2.406  13.591  0.1671  1.4810  0.1489
 5516TIP3    H238040   1.535   2.398  13.621  0.2991 -2.2716 -1.2051
 5517TIP3   OH238041   0.424   1.222   4.214 -0.5680  0.3063  0.2329
 5517TIP3    H138042   0.351   1.283   4.212  0.9618  2.3353  3.0386
 5517TIP3    H238043   0.396   1.154   4.276 -0.1349  1.0524  1.2631
 5518TIP3   OH238044   1.125   5.652   3.947  0.1277  0.4882 -0.0035
 5518TIP3    H138045   1.058   5.694   4.001 -1.2501  1.1191 -2.1404
 5518TIP3    H238046   1.119   5.696   3.863  1.5130 -1.1943 -1.0188
 5519TIP3   OH238047   3.151   6.120   2.678 -0.8076  0.4170  0.1213
 5519TIP3    H138048   3.201   6.042   2.704 -1.6150 -0.1633 -0.0606
 5519TIP3    H238049   3.214   6.172   2.628  0.0574  0.3994  1.1587
 5520TIP3   OH238050   2.459   5.221   2.769 -0.0968  0.3571 -0.3039
 5520TIP3    H138051   2.451   5.224   2.673  1.2034  2.1630 -0.3879
 5520TIP3    H238052   2.497   5.135   2.787 -2.4004 -0.9046 -1.2212
 5521TIP3   OH238053   4.760   4.447  15.846 -0.5110  0.0772  0.0326
 5521TIP3    H138054   4.855   4.439  15.851 -0.3651  0.8975 -1.1222
 5521TIP3    H238055   4.737   4.508  15.916 -0.3148 -0.9615  1.0120
 5522TIP3   OH238056   2.387   2.872  16.664  0.2997 -0.3840  0.2879
 5522TIP3    H138057   2.345   2.950  16.700  1.8302 -0.2256  1.7649
 5522TIP3    H238058   2.332   2.848  16.589 -1.1154  1.1390  0.8073
 5523TIP3   OH238059   4.044   6.617   3.087 -0.1537 -0.4181  0.2668
 5523TIP3    H138060   4.069   6.707   3.109  0.4620 -0.8611  1.4667
 5523TIP3    H238061   4.048   6.570   3.171  3.5588 -2.5050 -0.9632
 5524TIP3   OH238062   5.336   6.255  14.617  0.1696 -0.3045  1.3495
 5524TIP3    H138063   5.409   6.195  14.602 -0.9115 -1.2043 -0.4941
 5524TIP3    H238064   5.366   6.313  14.687  1.1757 -3.1523  3.3894
 5525TIP3   OH238065   5.338   1.692   0.027 -0.5964  0.4827 -0.6866
 5525TIP3    H138066   5.268   1.757   0.019 -1.0320  0.1905  0.6233
 5525TIP3    H238067   5.293   1.607   0.026 -0.1400  0.2388 -1.1555
 5526TIP3   OH238068   4.762   3.265  15.759  0.4703  0.2665  0.6504
 5526TIP3    H138069   4.838   3.229  15.806 -0.0189 -0.7767  0.6481
 5526TIP3    H238070   4.794   3.279  15.670  1.1564  1.4607  1.0656
 5527TIP3   OH238071   1.262   4.468  14.415 -0.2407  0.2494 -0.4507
 5527TIP3    H138072   1.213   4.511  14.485  0.7261  0.4860  0.0900
 5527TIP3    H238073   1.337   4.428  14.460  0.7663  0.9893 -1.4494
 5528TIP3   OH238074   2.046   6.327  17.083  0.1332  0.3651 -0.4404
 5528TIP3    H138075   2.093   6.298  17.005  0.3692 -0.1755 -0.0965
 5528TIP3    H238076   2.111   6.377  17.133 -0.5627  2.4190 -1.5500
 5529TIP3   OH238077   1.101   6.114  13.946  0.2276  0.3895 -0.5936
 5529TIP3    H138078   1.017   6.146  13.979  0.3464  1.9901 -1.8038
 5529TIP3    H238079   1.143   6.074  14.022  0.1726  3.3076  1.0380
 5530TIP3   OH238080   3.746   4.947   1.786  0.2782  0.1501 -0.0408
 5530TIP3    H138081   3.667   5.001   1.789  0.4181  0.3266  0.6250
 5530TIP3    H238082   3.754   4.912   1.875  1.0720  0.3159 -0.0426
 5531TIP3   OH238083   0.990   2.999   1.976 -0.0215  0.0270 -0.1159
 5531TIP3    H138084   0.947   2.923   1.938  1.3811 -0.7691 -0.1380
 5531TIP3    H238085   0.965   2.997   2.068 -2.3981  1.2468 -0.6770
 5532TIP3   OH238086   3.903   0.659  15.854  0.3295 -0.0824 -0.3050
 5532TIP3    H138087   3.877   0.574  15.820  0.6136 -0.1631 -0.3230
 5532TIP3    H238088   3.826   0.714  15.843 -1.0451 -1.2333  2.9098
 5533TIP3   OH238089   5.478   0.692   0.583  0.3411 -0.4649  0.4867
 5533TIP3    H138090   5.550   0.630   0.567 -0.2406 -0.3202 -3.1832
 5533TIP3    H238091   5.403   0.653   0.539 -1.2762  0.5162  2.3186
 5534TIP3   OH238092   2.167   1.104  15.761 -0.2106 -0.4965 -0.1106
 5534TIP3    H138093   2.222   1.040  15.806  1.1074  0.5911 -0.1555
 5534TIP3    H238094   2.086   1.056  15.741 -0.3764 -1.3442  2.3455
 5535TIP3   OH238095   4.882   5.750   5.839  0.2353  0.3641 -0.3429
 5535TIP3    H138096   4.917   5.665   5.868 -2.0347 -1.0570 -1.6055
 5535TIP3    H238097   4.877   5.802   5.919  2.2490 -0.4409  0.3553
 5536TIP3   OH238098   4.846   1.848  15.009  0.1934  0.0123  0.3113
 5536TIP3    H138099   4.872   1.803  15.089 -0.7520  0.2124  0.7298
 5536TIP3    H238100   4.758   1.882  15.027 -0.4266 -0.7802 -1.1510
 5537TIP3   OH238101   5.982   2.383   4.528 -0.5668 -0.1117  0.5407
 5537TIP3    H138102   5.888   2.370   4.522 -0.3885 -0.8793 -0.9104
 5537TIP3    H238103   6.004   2.435   4.450  0.4362 -1.4841 -0.1253
 5538TIP3   OH238104   1.555   2.331   5.146  0.2056  0.5068 -0.0184
 5538TIP3    H138105   1.592   2.259   5.198  0.6472 -0.1155 -1.1721
 5538TIP3    H238106   1.463   2.334   5.171  0.2972 -0.1258  0.4093
 5539TIP3   OH238107   4.254   3.164   2.849  0.0993  0.1378  0.0408
 5539TIP3    H138108   4.313   3.231   2.884  0.7078 -0.5947  0.4513
 5539TIP3    H238109   4.173   3.175   2.898 -0.2637  1.4546 -0.8492
 5540TIP3   OH238110   5.084   2.913   4.085  0.0270 -0.2473 -0.1882
 5540TIP3    H138111   5.123   2.998   4.065  0.4357 -0.8435 -2.0869
 5540TIP3    H238112   5.150   2.849   4.057 -0.3665 -1.2000  1.0110
 5541TIP3   OH238113   1.191   0.421   2.395 -0.3241 -0.1805 -0.4392
 5541TIP3    H138114   1.183   0.504   2.442  0.6533  0.5380 -1.5223
 5541TIP3    H238115   1.105   0.380   2.404 -0.2950  0.1150  1.6179
 5542TIP3   OH238116   2.261   0.934   2.365  0.1611 -0.0759 -0.0346
 5542TIP3    H138117   2.303   0.943   2.279 -0.8754  0.5596 -0.4878
 5542TIP3    H238118   2.216   0.850   2.361 -3.1812  1.7187 -1.6000
 5543TIP3   OH238119   5.480   6.735  13.923 -0.0382  0.4384  0.0684
 5543TIP3    H138120   5.386   6.753  13.925 -0.1878 -0.0506 -1.9257
 5543TIP3    H238121   5.517   6.796  13.987 -1.4925  1.8848 -0.4385
 5544TIP3   OH238122   2.262   3.472  13.393 -0.2356 -0.7322  0.3193
 5544TIP3    H138123   2.276   3.399  13.333  0.6920  0.4163 -0.8988
 5544TIP3    H238124   2.245   3.547  13.336 -1.3907 -0.0299  1.5583
 5545TIP3   OH238125   0.363   6.265   0.263 -0.0635  0.3802  0.2300
 5545TIP3    H138126   0.290   6.204   0.267  1.0267 -0.8904  1.1161
 5545TIP3    H238127   0.404   6.250   0.178  0.6089 -0.6243  0.7205
 5546TIP3   OH238128   6.024   3.769   0.283  0.4063  0.1060  0.1598
 5546TIP3    H138129   6.041   3.794   0.192 -0.5973  0.6008  0.1129
 5546TIP3    H238130   5.929   3.775   0.293  0.6683  1.7408  1.7428
 5547TIP3   OH238131   2.995   1.326  11.311 -0.1346  0.0700 -0.2019
 5547TIP3    H138132   2.996   1.271  11.233  0.4223 -0.2567  0.0291
 5547TIP3    H238133   2.950   1.274  11.377  0.7108 -0.2685  0.1231
 5548TIP3   OH238134   2.053   4.100  14.350  0.0591  0.0547 -0.2334
 5548TIP3    H138135   2.127   4.153  14.379  0.8868  0.0338 -2.2453
 5548TIP3    H238136   2.025   4.141  14.268 -1.6792 -0.4086  0.0981
 5549TIP3   OH238137   1.663   0.528  15.525 -0.5561  0.4581  0.2142
 5549TIP3    H138138   1.660   0.460  15.458 -1.5670  1.5149 -0.8298
 5549TIP3    H238139   1.590   0.507  15.584 -1.5364  1.2153 -0.7018
 5550TIP3   OH238140   5.076   3.723  14.242 -0.0901  0.5562 -0.4522
 5550TIP3    H138141   5.153   3.700  14.191 -0.4714  1.1391 -1.3027
 5550TIP3    H238142   5.111   3.765  14.321  0.6151 -2.9697  1.1960
 5551TIP3   OH238143   4.570   4.216  11.011 -0.3809  0.5175  0.3333
 5551TIP3    H138144   4.653   4.194  10.970  0.3297  0.0123  1.9769
 5551TIP3    H238145   4.521   4.262  10.944  2.2290  3.1007  0.1141
 5552TIP3   OH238146   1.674   6.360   5.163  0.5599 -0.2494  0.6556
 5552TIP3    H138147   1.714   6.410   5.234 -0.7714  1.2564  0.3789
 5552TIP3    H238148   1.744   6.304   5.130  2.0193  1.2514  1.1377
 5553TIP3   OH238149   4.632   5.307   0.099  0.3422  0.1683 -0.4404
 5553TIP3    H138150   4.559   5.246   0.107  0.0746  0.6664  0.9953
 5553TIP3    H238151   4.699   5.273   0.158  0.6848  0.5618 -0.5953
 5554TIP3   OH238152   5.821   1.693  16.354 -0.0663  0.0019 -0.1827
 5554TIP3    H138153   5.823   1.599  16.369  0.5040  0.1349  0.6078
 5554TIP3    H238154   5.897   1.726  16.402 -0.8294  0.9820  0.3521
 5555TIP3   OH238155   2.276   1.152   6.514 -0.7405 -0.1064 -0.0530
 5555TIP3    H138156   2.361   1.195   6.513 -0.4999 -0.5765 -0.3972
 5555TIP3    H238157   2.217   1.215   6.555  0.3061 -0.8002  2.6383
 5556TIP3   OH238158   6.499   6.165   0.362  0.3930  0.6616 -0.3923
 5556TIP3    H138159   6.451   6.099   0.412  1.4298  0.8074  0.8130
 5556TIP3    H238160   6.489   6.245   0.414 -0.2765  1.3145 -1.4929
 5557TIP3   OH238161   0.994   2.526  16.850  0.3416  0.0149  0.0420
 5557TIP3    H138162   1.079   2.514  16.807  0.7463  1.0215  0.5258
 5557TIP3    H238163   0.965   2.613  16.821  0.0782  0.2077  0.8734
 5558TIP3   OH238164   1.510   3.886  12.526  0.3298 -0.2514 -0.1454
 5558TIP3    H138165   1.471   3.940  12.595 -0.4315  0.8261 -1.3796
 5558TIP3    H238166   1.462   3.803  12.530 -0.1187  0.0260  0.2477
 5559TIP3   OH238167   3.625   6.104  17.076 -0.4530 -0.1403  0.4176
 5559TIP3    H138168   3.643   6.184  17.027 -2.9144  0.1206 -0.1698
 5559TIP3    H238169   3.578   6.133  17.154 -0.2943 -0.9007  0.8042
 5560TIP3   OH238170   2.286   1.316   2.604 -0.5607  0.3049  0.4975
 5560TIP3    H138171   2.208   1.361   2.639 -0.2061 -0.5867  2.4835
 5560TIP3    H238172   2.359   1.353   2.654  0.1756  0.3270 -0.5819
 5561TIP3   OH238173   4.241   5.839  12.535  0.5429 -0.5829  0.0521
 5561TIP3    H138174   4.155   5.876  12.554  0.2053 -1.0947 -0.4388
 5561TIP3    H238175   4.223   5.764  12.478  1.5749  1.3713 -2.9645
 5562TIP3   OH238176   4.009   0.020  13.132 -0.0730 -0.2019 -0.3665
 5562TIP3    H138177   4.001   0.091  13.069  0.8167 -0.1839 -0.4584
 5562TIP3    H238178   3.922  -0.020  13.134 -0.3097  0.2698 -1.0390
 5563TIP3   OH238179   4.992   6.369  14.778  0.4277  0.6495  0.3498
 5563TIP3    H138180   5.001   6.395  14.686  0.7412 -0.3267  0.1008
 5563TIP3    H238181   4.898   6.356  14.790  0.3913  0.7384  0.1597
 5564TIP3   OH238182   4.042   0.643  14.664 -0.1935  0.4442 -0.2615
 5564TIP3    H138183   4.027   0.715  14.725  3.5021  0.2834  0.9677
 5564TIP3    H238184   4.018   0.565  14.713  1.3412  0.4346  0.5151
 5565TIP3   OH238185   1.883   4.519   4.090 -0.2232  0.0133 -0.1602
 5565TIP3    H138186   1.883   4.594   4.030  1.7103 -0.0608 -0.2691
 5565TIP3    H238187   1.858   4.445   4.035  1.0353  0.0333 -0.7647
 5566TIP3   OH238188   0.604   2.136  11.793  0.0893 -0.3157  0.3608
 5566TIP3    H138189   0.654   2.157  11.714 -0.7822 -0.0692 -0.1371
 5566TIP3    H238190   0.619   2.210  11.852 -1.2319  0.6880 -0.5406
 5567TIP3   OH238191   3.743   2.445  14.840  0.5653 -0.3251 -0.2014
 5567TIP3    H138192   3.696   2.472  14.919 -0.8390  0.4739 -1.2979
 5567TIP3    H238193   3.796   2.370  14.869 -1.9555 -1.7545  0.8805
 5568TIP3   OH238194   4.710   3.651  15.204 -0.4933 -0.0574 -0.7280
 5568TIP3    H138195   4.742   3.673  15.117 -1.3767  2.1303 -0.5293
 5568TIP3    H238196   4.773   3.691  15.264 -1.0025  0.1964 -0.3602
 5569TIP3   OH238197   5.970   2.878  16.034 -0.0276 -0.0443  0.4432
 5569TIP3    H138198   6.027   2.924  16.096  2.6453 -2.2764 -0.2276
 5569TIP3    H238199   5.915   2.823  16.090  0.8241 -0.3771  0.9833
 5570TIP3   OH238200   5.764   1.482   3.827  0.1813  0.6464 -0.0026
 5570TIP3    H138201   5.794   1.567   3.859 -0.3846  0.0611  2.1782
 5570TIP3    H238202   5.671   1.480   3.846 -0.3196  0.5389 -2.3832
 5571TIP3   OH238203   5.661   0.322   1.249  0.0484 -0.6737 -0.4172
 5571TIP3    H138204   5.732   0.325   1.185 -0.2560 -0.5364 -0.7480
 5571TIP3    H238205   5.612   0.402   1.234  0.2338 -0.4201  0.2926
 5572TIP3   OH238206   6.599   3.478   5.066  0.2282  0.0166  0.2592
 5572TIP3    H138207   6.573   3.508   4.979  0.5668 -0.5847 -0.0542
 5572TIP3    H238208   6.527   3.503   5.124 -0.0468  0.3109 -0.2117
 5573TIP3   OH238209   6.277   1.708   0.200 -0.3289  0.5576 -0.1476
 5573TIP3    H138210   6.200   1.749   0.239 -0.2289  1.2267 -0.6394
 5573TIP3    H238211   6.310   1.773   0.139 -0.1294 -0.2377 -0.8945
 5574TIP3   OH238212   1.653   4.500  16.843 -0.0642  0.2990  0.0562
 5574TIP3    H138213   1.618   4.505  16.754  0.4534  0.6901 -0.1202
 5574TIP3    H238214   1.576   4.487  16.898 -0.6689  2.6708 -0.1741
 5575TIP3   OH238215   6.005   1.419  11.251  0.2461 -0.5409 -0.1704
 5575TIP3    H138216   6.085   1.460  11.284  0.6776 -2.1387  0.7936
 5575TIP3    H238217   6.035   1.347  11.196 -0.5176 -0.8661 -0.1730
 5576TIP3   OH238218   2.784   3.010   3.409 -0.2431 -0.0365  0.4558
 5576TIP3    H138219   2.876   3.022   3.432 -0.2443 -1.3821  1.1821
 5576TIP3    H238220   2.772   3.065   3.331  1.2812 -0.2072  0.0803
 5577TIP3   OH238221   0.869   5.668  16.751  0.2905  0.4020 -0.0045
 5577TIP3    H138222   0.932   5.611  16.796  0.0816 -0.8420 -1.2578
 5577TIP3    H238223   0.788   5.660  16.803  0.4648  0.1144  0.2215
 5578TIP3   OH238224   5.397   1.997  14.878  0.1034  0.0454  0.2744
 5578TIP3    H138225   5.310   1.956  14.876  0.7268 -1.3168  0.4764
 5578TIP3    H238226   5.412   2.025  14.788 -1.0928  1.4821  0.5085
 5579TIP3   OH238227   5.486   1.791  14.530  0.3828  0.0751  0.0912
 5579TIP3    H138228   5.470   1.726  14.598 -0.3944 -0.2392 -0.3876
 5579TIP3    H238229   5.399   1.814  14.498  0.6825  1.0117 -0.0599
 5580TIP3   OH238230   4.684   2.636   2.798 -0.1826  0.4007  0.5442
 5580TIP3    H138231   4.629   2.706   2.833 -0.8231  0.7204 -1.0684
 5580TIP3    H238232   4.636   2.555   2.819  0.2670  0.4751  1.8783
 5581TIP3   OH238233   3.124   1.758   2.226 -0.1208 -0.2280  0.1016
 5581TIP3    H138234   3.123   1.846   2.263 -0.6517  0.1502 -0.8141
 5581TIP3    H238235   3.162   1.768   2.139  1.4173 -1.1733  0.6356
 5582TIP3   OH238236   1.924   6.141   2.750 -0.0442  0.4810  0.0443
 5582TIP3    H138237   1.902   6.111   2.662  0.2273 -0.5180  0.3086
 5582TIP3    H238238   1.944   6.060   2.798  1.4915  1.1458  0.5545
 5583TIP3   OH238239   6.738   0.522   1.586 -0.2678  0.0655  0.0134
 5583TIP3    H138240   6.765   0.475   1.507 -0.8693 -0.1479 -0.0663
 5583TIP3    H238241   6.801   0.494   1.653  0.3317  0.3610 -0.4230
 5584TIP3   OH238242   0.230   3.965   5.944 -0.3499  0.2096  0.4532
 5584TIP3    H138243   0.260   3.927   6.026 -3.9810 -1.7138  0.9946
 5584TIP3    H238244   0.217   3.891   5.886 -1.1982  1.2290 -0.6882
 5585TIP3   OH238245   4.944   5.308  16.956 -0.6668  0.0586  0.3050
 5585TIP3    H138246   4.971   5.324  17.046  0.7007 -2.0749  0.3170
 5585TIP3    H238247   5.025   5.283  16.911 -1.3418  1.0326 -1.5126
 5586TIP3   OH238248   5.951   1.613   1.865 -0.5807  0.2312  0.2757
 5586TIP3    H138249   5.982   1.524   1.847 -0.1984  0.4050  0.0577
 5586TIP3    H238250   5.951   1.619   1.960 -0.3483  0.0825  0.2876
 5587TIP3   OH238251   1.801   1.897   4.487 -0.1035 -0.3517  0.8670
 5587TIP3    H138252   1.733   1.836   4.459 -0.1704  0.2928 -0.4054
 5587TIP3    H238253   1.864   1.842   4.533  1.4376 -2.0062 -2.9774
 5588TIP3   OH238254   2.520   3.825  16.371 -0.2011 -0.7150  0.0423
 5588TIP3    H138255   2.497   3.775  16.293  0.9354  0.3332 -0.9929
 5588TIP3    H238256   2.526   3.916  16.340 -0.3787 -0.2026  1.4875
 5589TIP3   OH238257   1.335   0.056   0.231  0.4296 -0.1554 -0.0338
 5589TIP3    H138258   1.401   0.066   0.162  0.4201  0.7328  0.0826
 5589TIP3    H238259   1.375  -0.005   0.293  1.2098  0.4983  0.1167
 5590TIP3   OH238260   3.848   6.578  14.941 -0.5431 -0.2412  0.3213
 5590TIP3    H138261   3.860   6.639  14.868 -0.3691 -1.1763 -0.4295
 5590TIP3    H238262   3.890   6.622  15.015 -0.8099  0.7564 -0.1099
 5591TIP3   OH238263   4.210   1.943  10.797  0.3712 -0.1752  0.1923
 5591TIP3    H138264   4.143   1.945  10.865  1.4720  0.9620  1.2624
 5591TIP3    H238265   4.285   1.987  10.835  1.4509 -0.6451 -1.3127
 5592TIP3   OH238266   2.719   3.316  14.338  0.2296  0.5137  0.2754
 5592TIP3    H138267   2.762   3.240  14.300 -0.5952  0.1502  0.0466
 5592TIP3    H238268   2.626   3.305  14.315 -0.3654  0.0696  2.7173
 5593TIP3   OH238269   6.684   2.463   3.203 -0.5815 -0.3278 -0.8157
 5593TIP3    H138270   6.770   2.422   3.207 -0.8186 -0.6366  1.6162
 5593TIP3    H238271   6.623   2.390   3.191 -0.8512 -0.5435  1.7344
 5594TIP3   OH238272   1.457   5.608  13.180  0.0180 -0.0814 -0.1018
 5594TIP3    H138273   1.506   5.690  13.171 -0.6167  0.3506  0.3160
 5594TIP3    H238274   1.413   5.597  13.096 -0.6041  0.4746  0.1450
 5595TIP3   OH238275   4.405   6.076  15.992  0.4474 -0.1577 -0.1063
 5595TIP3    H138276   4.470   6.090  16.062  1.4793 -0.9143 -0.9064
 5595TIP3    H238277   4.453   6.031  15.923 -0.2535  1.6860 -1.8357
 5596TIP3   OH238278   0.821   4.084  13.870 -0.0680 -1.2483 -0.0635
 5596TIP3    H138279   0.809   4.135  13.951  0.0866  0.0650 -0.8568
 5596TIP3    H238280   0.837   4.150  13.802  1.0201 -2.4122 -0.9549
 5597TIP3   OH238281   4.554   4.284  15.726  0.2179  0.7391  0.1283
 5597TIP3    H138282   4.629   4.312  15.778  0.5273  0.5927 -0.2428
 5597TIP3    H238283   4.581   4.295  15.635 -0.2432  0.7773 -0.0056
 5598TIP3   OH238284   0.277   6.759  14.471 -0.2440 -0.5723 -0.2629
 5598TIP3    H138285   0.298   6.726  14.559 -1.1632 -1.3686 -0.3416
 5598TIP3    H238286   0.194   6.806  14.482  1.3712  2.3550 -0.0095
 5599TIP3   OH238287   1.571   6.633  12.632  0.4000 -0.2247 -0.1401
 5599TIP3    H138288   1.626   6.687  12.689  0.4618  0.7755 -1.1387
 5599TIP3    H238289   1.508   6.593  12.691  0.5220  0.7356  0.6490
 5600TIP3   OH238290   3.889   6.364   0.943 -0.1513  0.2347 -0.4038
 5600TIP3    H138291   3.834   6.332   0.871 -0.7051  1.1125 -0.3832
 5600TIP3    H238292   3.932   6.286   0.977  0.1121 -0.1989 -1.6833
 5601TIP3   OH238293   1.011   6.383   1.471  0.2403 -0.1142 -0.5679
 5601TIP3    H138294   0.924   6.349   1.494  1.0421 -1.5413  0.4066
 5601TIP3    H238295   1.009   6.474   1.502 -1.5676  0.4682 -2.2787
 5602TIP3   OH238296   1.990   4.741  13.793 -0.1173  0.3854  0.1480
 5602TIP3    H138297   1.963   4.705  13.877  0.1791  0.7398  0.3966
 5602TIP3    H238298   1.927   4.811  13.776  1.6249  2.3577  1.5453
 5603TIP3   OH238299   5.112   2.435   3.007  0.1578  0.0900 -0.0350
 5603TIP3    H138300   5.018   2.440   3.025  0.2369  0.7351  0.2199
 5603TIP3    H238301   5.117   2.417   2.913 -0.2366 -1.8749  0.2921
 5604TIP3   OH238302   3.059   6.192  10.747 -0.2313  0.4804 -0.6022
 5604TIP3    H138303   3.044   6.113  10.799 -0.6165  0.5127 -0.6613
 5604TIP3    H238304   3.150   6.185  10.719 -1.1679 -1.5472 -3.2980
 5605TIP3   OH238305   1.766   4.641  12.079 -0.3074  0.1158  0.4298
 5605TIP3    H138306   1.761   4.713  12.016  0.0225  0.1588  0.4534
 5605TIP3    H238307   1.829   4.670  12.144 -0.4675 -0.0312  0.6521
 5606TIP3   OH238308   2.189   6.168   4.897  0.5640  0.0448 -0.6574
 5606TIP3    H138309   2.269   6.117   4.882 -0.6720 -1.7940 -1.1367
 5606TIP3    H238310   2.153   6.181   4.809  0.3249  0.8663 -0.4397
 5607TIP3   OH238311   5.656   5.649   0.116 -0.4925 -0.0686 -0.1227
 5607TIP3    H138312   5.711   5.582   0.075 -1.5384 -0.2605 -1.2346
 5607TIP3    H238313   5.627   5.609   0.198 -1.4647 -1.1535 -0.9775
 5608TIP3   OH238314   5.209   2.241  12.352  0.4959 -0.5880  0.4603
 5608TIP3    H138315   5.279   2.212  12.294  0.1449  0.8059 -0.6806
 5608TIP3    H238316   5.138   2.267  12.294  0.3649  1.4226  1.4862
 5609TIP3   OH238317   4.860   5.755   3.276 -0.2461 -0.2449  0.9224
 5609TIP3    H138318   4.948   5.792   3.279  0.1024 -0.6449 -2.3418
 5609TIP3    H238319   4.874   5.663   3.254 -1.5057 -0.2078 -0.0616
 5610TIP3   OH238320   5.982   4.432  14.897 -0.0728  0.1851  0.4343
 5610TIP3    H138321   6.032   4.510  14.874  0.7089 -0.9716 -1.8745
 5610TIP3    H238322   6.042   4.380  14.951 -0.5901  1.1224  1.9630
 5611TIP3   OH238323   6.110   6.635  13.098  0.3402  0.3876  0.2870
 5611TIP3    H138324   6.120   6.711  13.155 -0.3056 -0.9118  2.1760
 5611TIP3    H238325   6.027   6.595  13.125  0.4555 -0.7453 -0.9611
 5612TIP3   OH238326   1.153   3.234   1.421  0.1361 -0.3791  0.2932
 5612TIP3    H138327   1.119   3.200   1.339 -1.4820  0.7153  0.4776
 5612TIP3    H238328   1.245   3.255   1.403 -0.3185  0.2205 -1.3425
 5613TIP3   OH238329   1.166   3.385   3.964  0.0367 -0.3850  0.2926
 5613TIP3    H138330   1.217   3.386   3.883 -1.5952 -0.8246 -0.7563
 5613TIP3    H238331   1.192   3.305   4.008  0.4600 -0.4703 -0.1092
 5614TIP3   OH238332   2.741   0.759  14.504 -0.3303  0.3485  0.0297
 5614TIP3    H138333   2.801   0.687  14.484 -1.6626 -0.9667  0.6624
 5614TIP3    H238334   2.714   0.792  14.418  0.2498  0.0598 -0.2674
 5615TIP3   OH238335   3.465   4.211   3.438 -0.4299  0.3849 -0.6040
 5615TIP3    H138336   3.501   4.190   3.524  1.5716 -0.2433 -1.5753
 5615TIP3    H238337   3.394   4.148   3.426  0.5127 -0.7638 -0.1988
 5616TIP3   OH238338   1.140   2.512  13.483 -0.0597  0.2181  0.4622
 5616TIP3    H138339   1.113   2.422  13.497  0.8449 -0.3130 -1.1346
 5616TIP3    H238340   1.059   2.563  13.491 -0.8461 -0.9110 -0.2545
 5617TIP3   OH238341   4.287   1.161  12.292  0.0178  0.0871  0.3646
 5617TIP3    H138342   4.330   1.106  12.226 -0.7222  0.2134 -0.2390
 5617TIP3    H238343   4.195   1.162  12.265 -0.0062  1.5029  0.4418
 5618TIP3   OH238344   3.413   1.953   0.292 -0.0051 -0.1018 -0.0750
 5618TIP3    H138345   3.425   1.870   0.339  0.9054  0.1366  0.1391
 5618TIP3    H238346   3.431   1.933   0.201 -2.4841 -0.7237 -0.4620
 5619TIP3   OH238347   5.506   4.230  10.852  0.3085  0.2078 -0.6304
 5619TIP3    H138348   5.477   4.139  10.863  2.3475 -0.5180 -1.1365
 5619TIP3    H238349   5.577   4.241  10.915 -0.5291  1.7459  0.0807
 5620TIP3   OH238350   3.544   0.296  13.549  0.0761  0.1774 -0.1198
 5620TIP3    H138351   3.557   0.230  13.618  1.2107  0.5883  0.0797
 5620TIP3    H238352   3.572   0.378  13.590  0.3751  0.4892 -0.9515
 5621TIP3   OH238353   1.551   3.984   2.238  0.1581 -0.1278  0.1631
 5621TIP3    H138354   1.628   3.951   2.285 -0.7734 -1.1003  1.0577
 5621TIP3    H238355   1.485   3.995   2.307 -0.1313  1.8387 -0.4197
 5622TIP3   OH238356   6.327   1.733  16.698 -0.0227  0.3233  0.0024
 5622TIP3    H138357   6.422   1.724  16.695  0.2857  1.7263  3.3961
 5622TIP3    H238358   6.310   1.821  16.663  0.1593  1.0273  1.6531
 5623TIP3   OH238359   2.653   3.492  16.606 -0.3835 -0.6836  0.0540
 5623TIP3    H138360   2.564   3.468  16.580 -0.5951 -0.0031  0.1200
 5623TIP3    H238361   2.698   3.509  16.523 -0.5933 -0.1042  0.0515
 5624TIP3   OH238362   3.875   6.253   3.380  0.3560  0.2029 -0.0092
 5624TIP3    H138363   3.785   6.261   3.413  0.3853  0.6400 -0.0305
 5624TIP3    H238364   3.917   6.190   3.440 -0.1465 -0.5024 -0.3927
 5625TIP3   OH238365   4.531   5.768  11.971 -0.1575 -0.0891 -0.1888
 5625TIP3    H138366   4.487   5.746  11.888 -1.1170  3.3047 -0.6841
 5625TIP3    H238367   4.577   5.850  11.952 -1.1575  1.2530  2.8416
 5626TIP3   OH238368   5.632   3.337   3.168  0.2553 -0.3870  0.1554
 5626TIP3    H138369   5.698   3.379   3.224 -1.7768  1.5448  1.2321
 5626TIP3    H238370   5.563   3.309   3.229 -1.1684  0.1044 -1.1705
 5627TIP3   OH238371   6.420   0.760   1.097  0.5073  0.0021 -0.0580
 5627TIP3    H138372   6.342   0.774   1.150 -1.1459 -2.2373 -1.8272
 5627TIP3    H238373   6.484   0.823   1.131 -2.3672  2.6012  0.7375
 5628TIP3   OH238374   3.337   5.892   0.655  0.2552 -0.5676 -0.5587
 5628TIP3    H138375   3.251   5.878   0.695  0.9209 -1.9202  0.4231
 5628TIP3    H238376   3.350   5.815   0.599  0.7868 -0.3264 -0.7670
 5629TIP3   OH238377   6.199   1.153  15.022 -0.7606  0.8575 -0.6369
 5629TIP3    H138378   6.267   1.119  14.964 -0.9275 -0.4401 -0.0949
 5629TIP3    H238379   6.123   1.164  14.965 -0.8454 -0.1453 -0.7248
 5630TIP3   OH238380   0.844   3.893  17.024  0.0354  0.0256  0.4092
 5630TIP3    H138381   0.886   3.856  16.947  1.9034 -0.6316  1.6883
 5630TIP3    H238382   0.821   3.818  17.078 -2.3910  0.4107 -0.0415
 5631TIP3   OH238383   0.451   2.305  12.388 -0.0737  0.4786  0.3595
 5631TIP3    H138384   0.361   2.316  12.356 -0.2105  0.1064  0.6085
 5631TIP3    H238385   0.490   2.392  12.380 -0.2207  0.4739 -0.4642
 5632TIP3   OH238386   0.632   5.655   5.648  0.3452 -0.3981 -0.3658
 5632TIP3    H138387   0.542   5.633   5.673 -0.8785 -1.1419 -4.9128
 5632TIP3    H238388   0.665   5.574   5.607  1.6197  1.0747 -2.3518
 5633TIP3   OH238389   1.355   3.766  11.652  0.2228 -0.3283  0.1801
 5633TIP3    H138390   1.390   3.720  11.575  1.2911 -1.4150  1.2819
 5633TIP3    H238391   1.400   3.725  11.726 -1.6592 -0.0993  1.4827
 5634TIP3   OH238392   0.374   6.811   0.271 -0.0860  0.2289 -0.2543
 5634TIP3    H138393   0.331   6.830   0.355 -0.6167  0.4844 -0.5787
 5634TIP3    H238394   0.374   6.716   0.265  0.4602  0.1938  0.2970
 5635TIP3   OH238395   6.268   0.909   3.841  0.2041  0.6971  0.3155
 5635TIP3    H138396   6.173   0.896   3.840  0.1457  1.1295 -0.8702
 5635TIP3    H238397   6.303   0.826   3.874 -0.5476  0.2237 -0.0426
 5636TIP3   OH238398   0.926   3.007   6.965 -0.3137 -0.4101 -0.2813
 5636TIP3    H138399   0.844   2.965   6.940 -0.5049  0.8793 -1.9052
 5636TIP3    H238400   0.899   3.090   7.005  0.1342 -0.8900  1.0376
 5637TIP3   OH238401   3.562   0.625  10.929 -0.3704 -0.1410 -0.0054
 5637TIP3    H138402   3.478   0.606  10.971 -0.6708  2.1378  0.4908
 5637TIP3    H238403   3.583   0.545  10.880 -2.3053 -1.1225  0.7098
 5638TIP3   OH238404   3.106   2.349   3.727 -0.1513 -0.0035  0.0703
 5638TIP3    H138405   3.154   2.419   3.771 -2.1258  0.8240  0.9754
 5638TIP3    H238406   3.123   2.271   3.778 -0.5339  0.4840  0.9471
 5639TIP3   OH238407   5.359   3.695  11.147  0.1119  0.0457  0.4820
 5639TIP3    H138408   5.387   3.701  11.239  2.4516  0.9300 -0.2445
 5639TIP3    H238409   5.441   3.698  11.097 -1.2591  2.2239 -1.7570
 5640TIP3   OH238410   6.056   1.666   1.612  0.0179 -0.6729 -0.0506
 5640TIP3    H138411   6.051   1.761   1.614  1.6244 -0.5544 -1.1115
 5640TIP3    H238412   6.028   1.639   1.699  0.2617  0.7941  0.4968
 5641TIP3   OH238413   6.816   3.994  14.242  0.1142 -0.4952 -0.7441
 5641TIP3    H138414   6.880   4.066  14.248 -0.0232 -0.4764  0.5845
 5641TIP3    H238415   6.870   3.916  14.229  0.3800 -0.4053 -0.2063
 5642TIP3   OH238416   4.389   2.904  11.646  0.1233  0.5039 -0.1810
 5642TIP3    H138417   4.448   2.956  11.701  1.7375  1.3785 -2.6693
 5642TIP3    H238418   4.418   2.814  11.659  0.7749  0.7463  0.0485
 5643TIP3   OH238419   0.199   3.728   2.883 -0.0309  0.2509 -0.2012
 5643TIP3    H138420   0.215   3.676   2.804  0.7479  0.4040 -0.1439
 5643TIP3    H238421   0.109   3.760   2.873 -0.6434 -1.3683 -0.0864
 5644TIP3   OH238422   3.044   2.726   3.184  0.3811  0.2368  0.3704
 5644TIP3    H138423   3.014   2.670   3.113  2.0342  0.5907 -0.6153
 5644TIP3    H238424   2.980   2.711   3.254 -3.0994  2.2796 -2.2475
 5645TIP3   OH238425   3.598   0.708  11.863 -0.6109  0.2665 -0.4019
 5645TIP3    H138426   3.575   0.659  11.784 -2.0937  1.2618 -0.6027
 5645TIP3    H238427   3.515   0.717  11.910 -0.1889  1.8576  0.0442
 5646TIP3   OH238428   0.583   0.141   2.774  0.3240  0.3886 -0.4076
 5646TIP3    H138429   0.611   0.223   2.815  0.9281  0.0627 -0.1634
 5646TIP3    H238430   0.488   0.140   2.786  0.4662  0.4117  0.7953
 5647TIP3   OH238431   6.796   1.751  12.447  0.3131  0.0192  0.6339
 5647TIP3    H138432   6.787   1.755  12.542  0.1291  1.8445  0.5582
 5647TIP3    H238433   6.885   1.719  12.432  0.4486  0.0368  1.4107
 5648TIP3   OH238434   1.815   3.508  15.677 -0.6659  0.5379 -0.5679
 5648TIP3    H138435   1.816   3.602  15.663 -1.2263  0.7537  0.7933
 5648TIP3    H238436   1.844   3.497  15.767 -0.7127 -0.5884 -0.6835
 5649TIP3   OH238437   4.082   2.581   2.678  0.2498  0.3263  0.4425
 5649TIP3    H138438   4.063   2.541   2.763 -0.0832  0.7806  0.5859
 5649TIP3    H238439   4.164   2.629   2.692  0.0542  0.6227  0.5842
 5650TIP3   OH238440   0.511   4.156  11.310 -0.1154  0.4853 -0.1721
 5650TIP3    H138441   0.449   4.131  11.242  0.6169 -1.5184 -0.1463
 5650TIP3    H238442   0.462   4.216  11.366 -1.8926 -0.6934 -0.4211
 5651TIP3   OH238443   1.168   3.561   6.067 -0.5972  0.0606  0.0647
 5651TIP3    H138444   1.172   3.548   6.162  0.1622 -0.0082  0.0262
 5651TIP3    H238445   1.075   3.575   6.049 -0.7611 -0.0302  0.8044
 5652TIP3   OH238446   1.205   6.611   5.249  0.0480 -0.0214  0.6839
 5652TIP3    H138447   1.260   6.678   5.208  0.3424  0.1521  1.3529
 5652TIP3    H238448   1.231   6.529   5.206 -0.4324  0.3035 -0.2559
 5653TIP3   OH238449   4.446   2.564  12.173  0.1109  0.0241  0.3800
 5653TIP3    H138450   4.485   2.558  12.260 -1.3782  0.0812  1.0756
 5653TIP3    H238451   4.438   2.658  12.156 -1.7181  0.0507  1.1986
 5654TIP3   OH238452   0.265   0.495   2.673  0.8329  0.1074 -0.4946
 5654TIP3    H138453   0.214   0.570   2.643 -1.3361 -0.9922  0.3286
 5654TIP3    H238454   0.352   0.531   2.693 -0.4627  2.5739  0.8311
 5655TIP3   OH238455   5.795   6.446  14.394 -0.2597  0.1938 -0.1051
 5655TIP3    H138456   5.801   6.428  14.300  0.3733 -1.2196  0.2067
 5655TIP3    H238457   5.725   6.389  14.425  0.2671 -0.1297  0.4879
 5656TIP3   OH238458   0.967   2.719   2.626  0.2561  0.2054  0.0498
 5656TIP3    H138459   1.042   2.694   2.680  0.9618  2.4209  0.1413
 5656TIP3    H238460   0.950   2.810   2.649 -0.8866  0.4882 -1.8024
 5657TIP3   OH238461   3.432   5.541  16.363  0.2662 -0.5461 -0.7807
 5657TIP3    H138462   3.501   5.474  16.353  0.4155 -0.3918 -0.7835
 5657TIP3    H238463   3.441   5.571  16.453  0.9930  0.3331 -1.1297
 5658TIP3   OH238464   3.168   3.686  16.571 -0.0850  0.1915 -0.1544
 5658TIP3    H138465   3.161   3.626  16.496  2.1048 -1.0246  0.5406
 5658TIP3    H238466   3.248   3.658  16.615  0.1364  2.6784  1.0821
 5659TIP3   OH238467   2.348   4.331  14.259 -0.1137  0.4515  0.2611
 5659TIP3    H138468   2.356   4.352  14.352 -1.3704 -1.8065  0.9098
 5659TIP3    H238469   2.437   4.339  14.224  0.5587  0.2358  1.8894
 5660TIP3   OH238470   0.205   0.795   2.247  0.2526  0.0150 -0.0762
 5660TIP3    H138471   0.121   0.838   2.260  0.3376  0.8017 -2.0279
 5660TIP3    H238472   0.268   0.854   2.288  0.1031  0.5813 -0.6508
 5661TIP3   OH238473   1.997   3.922  15.081  0.0593 -0.2948  0.5129
 5661TIP3    H138474   2.028   3.954  15.166 -1.3339 -0.3344  1.0537
 5661TIP3    H238475   1.903   3.907  15.094 -0.4407  0.9439 -1.4206
 5662TIP3   OH238476   5.363   2.464   0.111 -0.0451  0.2789  0.2618
 5662TIP3    H138477   5.333   2.542   0.065  0.1775  1.5356  2.1930
 5662TIP3    H238478   5.376   2.493   0.201 -1.1119 -2.2697  1.2732
 5663TIP3   OH238479   2.502   4.297   0.292  0.0285  0.2290  0.9228
 5663TIP3    H138480   2.591   4.261   0.294  0.4994  0.9474 -3.2532
 5663TIP3    H238481   2.513   4.389   0.315  0.4046  0.3331  0.3538
 5664TIP3   OH238482   6.267   4.406  13.487 -0.3904 -0.0799  0.5130
 5664TIP3    H138483   6.217   4.452  13.419  0.2308  1.1620  0.8684
 5664TIP3    H238484   6.213   4.415  13.565  0.2486  1.0596  0.8426
 5665TIP3   OH238485   2.885   5.841  12.754  0.0692  0.3355  0.0981
 5665TIP3    H138486   2.934   5.760  12.742  2.3036  1.6810 -0.1833
 5665TIP3    H238487   2.797   5.821  12.722  0.3384 -2.2100  0.8416
 5666TIP3   OH238488   6.007   3.639  14.223 -0.7299  0.4078 -0.4078
 5666TIP3    H138489   6.028   3.692  14.300 -0.2645 -0.5357  0.1252
 5666TIP3    H238490   5.950   3.569  14.257  0.4233 -0.6923 -0.6733
 5667TIP3   OH238491   4.527   2.943  14.997  0.3152 -0.1885 -0.1962
 5667TIP3    H138492   4.565   2.982  15.076  1.0300 -1.4664  0.0972
 5667TIP3    H238493   4.436   2.925  15.021  0.3585  0.0011  0.1228
 5668TIP3   OH238494   1.978   4.318   2.537 -1.1395  0.6806 -0.3536
 5668TIP3    H138495   1.987   4.356   2.624  0.7808 -0.4055 -0.0483
 5668TIP3    H238496   2.001   4.389   2.477  3.1448 -0.1106  0.2278
 5669TIP3   OH238497   5.474   4.799  10.972 -0.7528 -0.0871  0.0907
 5669TIP3    H138498   5.408   4.866  10.963 -0.4094  0.1245 -0.8797
 5669TIP3    H238499   5.484   4.787  11.067 -1.5398  0.4956  0.2439
 5670TIP3   OH238500   2.648   3.732  12.549 -0.5833 -0.3101  0.1714
 5670TIP3    H138501   2.568   3.757  12.502  0.3113 -0.0832 -1.2428
 5670TIP3    H238502   2.664   3.641  12.523 -0.8673 -0.6640  1.1748
 5671TIP3   OH238503   1.138   3.375  17.070 -0.4195 -0.3375 -0.3273
 5671TIP3    H138504   1.183   3.330  17.141  1.2054 -0.7161 -1.5711
 5671TIP3    H238505   1.196   3.447  17.046  0.8023 -2.2933 -3.6009
 5672TIP3   OH238506   0.875   1.163  13.511 -0.1956  0.4275 -0.2472
 5672TIP3    H138507   0.909   1.080  13.477 -1.4375  0.7919 -2.4834
 5672TIP3    H238508   0.903   1.229  13.447 -2.1203  1.2179 -0.3291
 5673TIP3   OH238509   0.720   2.500  16.163  0.0133 -0.6021  0.4549
 5673TIP3    H138510   0.701   2.461  16.078  0.7075 -0.0697  0.0470
 5673TIP3    H238511   0.638   2.543  16.189 -0.0589 -0.3648 -0.1643
 5674TIP3   OH238512   0.759   4.385   0.221 -0.4298 -0.7489  0.0114
 5674TIP3    H138513   0.819   4.459   0.231 -0.8795 -0.4205  0.3079
 5674TIP3    H238514   0.786   4.343   0.140  0.5238 -0.9017  0.4024
 5675TIP3   OH238515   6.441   3.722  15.305 -0.1402 -0.1623  0.4225
 5675TIP3    H138516   6.351   3.698  15.325  0.3789 -1.8606  0.8081
 5675TIP3    H238517   6.449   3.709  15.210 -0.6753  1.2920  0.1726
 5676TIP3   OH238518   0.851   1.819  13.638  0.4931 -0.2507  0.0334
 5676TIP3    H138519   0.803   1.746  13.600 -1.2565  1.7339 -1.6924
 5676TIP3    H238520   0.892   1.863  13.563  0.3913  1.3234  0.8745
 5677TIP3   OH238521   3.532   4.990  11.834 -0.5347  0.1593  0.7307
 5677TIP3    H138522   3.496   5.074  11.803  0.4227 -0.3752 -1.9717
 5677TIP3    H238523   3.627   5.001  11.829 -0.3971 -1.4184 -0.7177
 5678TIP3   OH238524   0.855   1.806   4.359  0.1999  0.1096  0.2466
 5678TIP3    H138525   0.946   1.785   4.337  0.4241 -0.3625  1.6311
 5678TIP3    H238526   0.846   1.898   4.334  1.4276  0.5213  1.2732
 5679TIP3   OH238527   1.214   0.158  15.315  0.2065 -0.5372 -0.0816
 5679TIP3    H138528   1.200   0.235  15.259 -1.6014  0.2060  1.3365
 5679TIP3    H238529   1.296   0.120  15.283 -1.2423 -0.7295 -3.8607
 5680TIP3   OH238530   6.668   4.592   4.170  0.1988  0.0281 -0.0989
 5680TIP3    H138531   6.733   4.661   4.155  1.3642 -1.0181  0.1204
 5680TIP3    H238532   6.585   4.639   4.178  0.9524  1.3919 -0.1731
 5681TIP3   OH238533   0.198   4.411   3.670 -0.5566 -0.4318 -0.3442
 5681TIP3    H138534   0.284   4.394   3.631 -0.6507 -0.5027 -0.5214
 5681TIP3    H238535   0.137   4.406   3.596 -0.9762 -2.4830  0.1058
 5682TIP3   OH238536   6.060   1.348  13.763 -0.5166  0.0655 -0.0280
 5682TIP3    H138537   6.011   1.352  13.681 -0.8392 -2.1102  0.0423
 5682TIP3    H238538   6.074   1.440  13.787  1.3147  0.7450 -3.5413
 5683TIP3   OH238539   1.079   1.898   3.724 -0.1691  0.0952 -0.1806
 5683TIP3    H138540   1.169   1.915   3.695 -0.4604 -0.2947 -1.3260
 5683TIP3    H238541   1.024   1.928   3.651 -0.9097 -0.8104 -0.0026
 5684TIP3   OH238542   5.330   4.241   1.087 -0.1573 -0.1924 -0.1131
 5684TIP3    H138543   5.258   4.270   1.030 -0.9188 -1.8125  0.0105
 5684TIP3    H238544   5.393   4.201   1.028  0.6373  1.1544 -0.2100
 5685TIP3   OH238545   3.274   2.433   2.714 -0.3368 -0.5839  0.3395
 5685TIP3    H138546   3.326   2.498   2.760  1.4004  1.1838 -3.8301
 5685TIP3    H238547   3.183   2.455   2.734  0.2373  3.1068 -0.8679
 5686TIP3   OH238548   6.660   2.711  16.049 -0.3341 -0.7285 -0.3216
 5686TIP3    H138549   6.736   2.699  16.106 -1.2310 -1.2708  0.8037
 5686TIP3    H238550   6.630   2.622  16.031 -0.0027 -0.5637 -1.7397
 5687TIP3   OH238551   3.702   3.616  16.703 -0.5263 -0.9280 -0.1941
 5687TIP3    H138552   3.782   3.669  16.692 -1.1210 -0.3005 -1.6758
 5687TIP3    H238553   3.734   3.527  16.716  0.4314 -0.6253 -0.4139
 5688TIP3   OH238554   1.910   0.963  15.216 -0.2987 -0.4398 -0.7969
 5688TIP3    H138555   1.836   0.902  15.220  1.5397 -2.7042 -0.7747
 5688TIP3    H238556   1.888   1.021  15.143 -1.8893 -1.3754 -1.0914
 5689TIP3   OH238557   4.825   5.240   0.295  0.2260 -0.4105  0.2740
 5689TIP3    H138558   4.915   5.270   0.280  0.6657 -1.7722  0.1132
 5689TIP3    H238559   4.824   5.212   0.386 -0.1106 -0.1653  0.3476
 5690TIP3   OH238560   3.763   1.817   0.731  0.2521  0.0155  0.2654
 5690TIP3    H138561   3.681   1.837   0.687  0.0259 -3.5284 -1.0670
 5690TIP3    H238562   3.830   1.853   0.673 -0.2539  0.3316 -0.1248
 5691TIP3   OH238563   5.416   6.074   2.570 -0.3431  0.0663 -0.3768
 5691TIP3    H138564   5.485   6.059   2.635 -1.4367 -0.6687  0.6481
 5691TIP3    H238565   5.385   6.163   2.586  0.8446  0.6558 -1.3131
 5692TIP3   OH238566   3.296   5.380   4.664  0.5436  0.6528  0.0406
 5692TIP3    H138567   3.298   5.295   4.621 -0.3745  0.0148  1.2380
 5692TIP3    H238568   3.387   5.399   4.687  0.8348  0.3216 -0.8571
 5693TIP3   OH238569   4.651   3.352   5.703  0.6039 -0.2801 -0.0685
 5693TIP3    H138570   4.741   3.369   5.674  0.8478 -0.1257  0.7652
 5693TIP3    H238571   4.645   3.256   5.708  0.7833 -0.2849  0.0587
 5694TIP3   OH238572   1.632   1.612   6.079  0.5746 -0.5352  0.4195
 5694TIP3    H138573   1.643   1.524   6.114  3.4878  0.2049  1.4933
 5694TIP3    H238574   1.651   1.670   6.152  1.6425  1.0244 -1.0504
 5695TIP3   OH238575   3.021   4.330  13.851 -0.0510 -0.1378  0.0853
 5695TIP3    H138576   3.016   4.324  13.755  0.1047 -0.7705  0.1161
 5695TIP3    H238577   2.954   4.395  13.874  1.8320  2.1132 -0.6582
 5696TIP3   OH238578   5.337   6.045  15.008  0.1257  0.1828  0.0133
 5696TIP3    H138579   5.296   6.029  15.093  2.4034  0.6295  1.2513
 5696TIP3    H238580   5.269   6.085  14.955 -1.1254  0.5610  1.8730
 5697TIP3   OH238581   6.028   2.585   6.248 -0.3280  0.4488  0.3209
 5697TIP3    H138582   5.944   2.546   6.272 -0.2148  1.0579  1.6896
 5697TIP3    H238583   6.092   2.536   6.299  0.1460  0.1246 -0.5699
 5698TIP3   OH238584   2.601   5.115   5.000 -0.6947  0.5862  0.2083
 5698TIP3    H138585   2.545   5.188   5.025 -1.4950 -0.0905  0.4133
 5698TIP3    H238586   2.542   5.054   4.955 -0.3373 -0.6002  1.3354
 5699TIP3   OH238587   4.137   0.486   5.072 -0.9820  0.4693 -0.2275
 5699TIP3    H138588   4.058   0.515   5.118 -1.0829  1.5828 -1.1032
 5699TIP3    H238589   4.154   0.554   5.008  0.2058 -0.1969 -0.6279
 5700TIP3   OH238590   0.224   5.167  14.202  0.0547 -0.1507  0.2880
 5700TIP3    H138591   0.158   5.098  14.193 -0.3392  0.2304  0.3054
 5700TIP3    H238592   0.243   5.193  14.112 -0.8214  0.7022  0.3416
 5701TIP3   OH238593   0.695   1.815  13.945  0.7252  0.1874  0.4149
 5701TIP3    H138594   0.696   1.861  14.028 -0.6212  2.1968 -0.6379
 5701TIP3    H238595   0.776   1.842  13.901  0.2486  1.0572  0.0652
 5702TIP3   OH238596   0.970   2.461  13.737  0.0094  0.2562  0.0353
 5702TIP3    H138597   0.886   2.483  13.698 -0.7285  1.0658  1.9949
 5702TIP3    H238598   0.980   2.524  13.808  1.2343 -1.2259  1.2188
 5703TIP3   OH238599   1.265   5.177  12.499 -0.3702  0.1389 -0.2686
 5703TIP3    H138600   1.352   5.139  12.494 -2.0394 -3.7736 -1.1640
 5703TIP3    H238601   1.278   5.269  12.477  3.5452 -0.2870 -0.1129
 5704TIP3   OH238602   1.511   0.281   0.486  0.1677 -0.0210  0.2722
 5704TIP3    H138603   1.452   0.207   0.498  0.4862 -0.2802  0.2342
 5704TIP3    H238604   1.499   0.307   0.394 -0.2855  0.2702  0.4097
 5705TIP3   OH238605   2.418   5.193   3.408 -0.5067  0.5054  0.0389
 5705TIP3    H138606   2.461   5.265   3.363 -0.3653  0.2358 -0.2562
 5705TIP3    H238607   2.330   5.189   3.369 -0.7281  0.9245  0.4983
 5706TIP3   OH238608   4.871   0.080   4.527  0.4626  1.0340  0.2088
 5706TIP3    H138609   4.941   0.118   4.579  1.6860 -0.9174  0.0292
 5706TIP3    H238610   4.836   0.009   4.580 -0.1884  0.8591 -0.4391
 5707TIP3   OH238611   3.758   6.151  16.637 -0.0161 -0.2526 -0.2059
 5707TIP3    H138612   3.708   6.092  16.580  0.9781  0.6345 -2.0437
 5707TIP3    H238613   3.843   6.108  16.648  0.1306  0.0400 -0.1847
 5708TIP3   OH238614   3.633   3.431  16.214 -0.0287 -0.0965 -0.2550
 5708TIP3    H138615   3.661   3.462  16.300 -0.5251  0.0168 -0.1337
 5708TIP3    H238616   3.695   3.472  16.153  0.0344  0.2030  0.0079
 5709TIP3   OH238617   2.108   5.066   4.298  0.5267  0.1010  0.0430
 5709TIP3    H138618   2.041   5.039   4.236 -0.5535 -0.9371  1.6299
 5709TIP3    H238619   2.170   5.116   4.245  0.4011 -1.9616 -2.1581
 5710TIP3   OH238620   1.206   2.109  17.280 -0.3260  0.4159 -0.2571
 5710TIP3    H138621   1.141   2.039  17.271  0.4716 -0.3530 -0.0841
 5710TIP3    H238622   1.290   2.066  17.265  0.3059  0.9808  1.5516
 5711TIP3   OH238623   4.282   5.224   4.977  0.4637  0.2380  0.6347
 5711TIP3    H138624   4.225   5.279   4.924 -0.3934 -1.6511 -0.4743
 5711TIP3    H238625   4.369   5.233   4.938  0.0560 -0.2556 -0.4157
 5712TIP3   OH238626   4.338   2.439   4.468  0.4348  0.1262  0.3823
 5712TIP3    H138627   4.393   2.512   4.496 -0.3884  1.4169 -1.2342
 5712TIP3    H238628   4.289   2.414   4.546  0.5965  1.4366  0.9199
 5713TIP3   OH238629   6.422   5.359  12.344 -0.8250  0.2111 -0.0376
 5713TIP3    H138630   6.346   5.368  12.401 -1.1609 -0.1034 -0.4326
 5713TIP3    H238631   6.480   5.298  12.390 -1.9505 -1.5747 -0.9147
 5714TIP3   OH238632   1.502   2.165  15.203  0.0879  0.5363  0.1514
 5714TIP3    H138633   1.567   2.145  15.136 -1.5089 -0.7531 -1.0632
 5714TIP3    H238634   1.431   2.102  15.187 -2.4733  3.3315 -0.0397
 5715TIP3   OH238635   2.468   6.547  17.029 -0.1321 -0.2350 -0.1408
 5715TIP3    H138636   2.376   6.547  17.053 -0.0926 -2.2518  0.1617
 5715TIP3    H238637   2.473   6.602  16.951 -1.2182  1.6333  1.0593
 5716TIP3   OH238638   1.543   2.072  16.215 -0.4382  0.0611  0.0019
 5716TIP3    H138639   1.624   2.120  16.195 -1.1660  0.8949 -1.0244
 5716TIP3    H238640   1.489   2.134  16.264 -0.8052 -0.1949 -0.0700
 5717TIP3   OH238641   4.944   6.203  13.819 -0.8539 -0.1982  0.1536
 5717TIP3    H138642   4.939   6.108  13.830 -0.4314 -0.0092  2.1274
 5717TIP3    H238643   4.969   6.215  13.727 -1.4810 -1.9673 -0.2712
 5718TIP3   OH238644   5.084   1.188  11.858 -0.1547 -0.9119 -0.4927
 5718TIP3    H138645   5.100   1.226  11.944  1.0614 -3.8361  0.6505
 5718TIP3    H238646   4.992   1.162  11.861 -0.6511  0.7359 -0.8331
 5719TIP3   OH238647   0.141   3.645   0.211  0.5545  0.6203  0.4789
 5719TIP3    H138648   0.227   3.677   0.238  0.5884  0.9822 -0.0419
 5719TIP3    H238649   0.138   3.555   0.242  1.0999  0.6272  0.5558
 5720TIP3   OH238650   3.450   4.883  16.681  0.0864 -0.8083 -0.1517
 5720TIP3    H138651   3.413   4.801  16.650  1.8349 -1.0880 -1.5822
 5720TIP3    H238652   3.374   4.939  16.697 -1.0560 -2.2469 -0.4560
 5721TIP3   OH238653   4.296   4.831  16.832  0.2137 -0.1484  0.4167
 5721TIP3    H138654   4.304   4.855  16.924  1.1149 -1.7519  0.7802
 5721TIP3    H238655   4.209   4.791  16.825 -0.3394  1.0502  0.3035
 5722TIP3   OH238656   3.769   0.804   1.635 -0.0437 -0.1574 -0.0564
 5722TIP3    H138657   3.704   0.867   1.606 -2.3210 -1.1969  2.5113
 5722TIP3    H238658   3.748   0.724   1.588  0.4106 -0.0394 -0.4564
 5723TIP3   OH238659   3.898   5.409   0.984  0.0666  0.2525 -0.3617
 5723TIP3    H138660   3.842   5.416   0.907 -0.6663 -1.3153  0.0011
 5723TIP3    H238661   3.986   5.427   0.952 -0.2922  0.0534 -1.4705
 5724TIP3   OH238662   5.724   4.991   5.807  0.2647 -0.4885  0.2826
 5724TIP3    H138663   5.656   4.950   5.754 -0.5679  1.7157 -0.4445
 5724TIP3    H238664   5.677   5.058   5.857  1.4969 -0.6616  1.7105
 5725TIP3   OH238665   1.107   5.145   5.454 -0.2163  0.7212  0.2802
 5725TIP3    H138666   1.119   5.238   5.433  0.0958  0.3784 -1.0801
 5725TIP3    H238667   1.196   5.109   5.455 -0.3622  0.3591  0.4904
 5726TIP3   OH238668   6.002   3.095   0.801 -0.6232  0.4079  0.4496
 5726TIP3    H138669   6.004   3.135   0.714 -0.3416 -1.0461 -0.2350
 5726TIP3    H238670   6.012   3.168   0.861  1.2938  1.2193 -0.8059
 5727TIP3   OH238671   1.979   0.960  16.506 -0.6408  0.1260 -0.1647
 5727TIP3    H138672   2.047   1.021  16.477  0.0809 -0.4662  0.2483
 5727TIP3    H238673   1.942   1.001  16.585 -0.3736  0.1726 -0.0648
 5728TIP3   OH238674   1.537   6.544  16.486  0.5440 -0.5822 -1.0750
 5728TIP3    H138675   1.490   6.577  16.408 -0.9363  0.7802  0.3483
 5728TIP3    H238676   1.485   6.469  16.515 -0.7987  0.8925  0.4687
 5729TIP3   OH238677   4.323   2.690  16.548  0.7186  0.1864 -0.8849
 5729TIP3    H138678   4.355   2.610  16.506 -0.7063 -0.1700 -1.3251
 5729TIP3    H238679   4.259   2.659  16.613  1.4349  0.8641  0.1742
 5730TIP3   OH238680   2.546   1.076  13.094  0.0507 -0.5471  0.7687
 5730TIP3    H138681   2.539   1.108  13.004  0.0868  0.7666  1.2227
 5730TIP3    H238682   2.513   0.986  13.090  0.2583 -0.5718 -0.5966
 5731TIP3   OH238683   6.349   4.055  14.480  0.8372  0.2034 -0.0563
 5731TIP3    H138684   6.413   4.071  14.411  1.6438 -0.3254  0.5638
 5731TIP3    H238685   6.322   3.965  14.467  0.5175  0.2995 -0.0635
 5732TIP3   OH238686   4.125   0.862  12.800  0.5119  0.5119 -1.0215
 5732TIP3    H138687   4.121   0.901  12.713  1.5802  0.6134 -1.0351
 5732TIP3    H238688   4.109   0.769  12.787  1.7555  0.3516 -1.4708
 5733TIP3   OH238689   5.367   5.899  17.233  0.1419  0.2225 -0.1507
 5733TIP3    H138690   5.289   5.876  17.283 -0.2930 -1.3503 -1.4912
 5733TIP3    H238691   5.334   5.952  17.160  0.2757 -0.6505 -0.8558
 5734TIP3   OH238692   4.164   2.391  12.512  0.0414  0.1573 -0.2222
 5734TIP3    H138693   4.245   2.440  12.519 -0.6619  1.5161 -1.1998
 5734TIP3    H238694   4.175   2.339  12.432 -0.9293  2.1515 -1.7306
 5735TIP3   OH238695   0.914   4.194   0.418  0.1091  0.2241  0.1306
 5735TIP3    H138696   0.870   4.201   0.503  1.5663 -1.1938  1.0343
 5735TIP3    H238697   0.881   4.268   0.367 -1.9219  0.2156  1.4042
 5736TIP3   OH238698   4.555   1.177  14.745  0.5694 -0.3300  0.1743
 5736TIP3    H138699   4.465   1.208  14.754  0.1615 -0.8445 -2.0023
 5736TIP3    H238700   4.550   1.083  14.762  0.1342 -0.9402 -3.1633
 5737TIP3   OH238701   6.512   4.530  17.112 -0.1202 -0.1007 -0.2113
 5737TIP3    H138702   6.517   4.439  17.081 -1.2332 -0.9809  2.0990
 5737TIP3    H238703   6.420   4.553  17.100  0.0938  0.6203 -0.4740
 5738TIP3   OH238704   2.996   3.758  13.160 -0.4752 -0.2941 -0.0077
 5738TIP3    H138705   3.007   3.847  13.126 -0.4814 -0.5029 -0.5599
 5738TIP3    H238706   2.919   3.764  13.217 -0.7234 -0.0352 -0.3664
 5739TIP3   OH238707   3.778   4.555   2.578 -0.7753  0.1003 -0.0714
 5739TIP3    H138708   3.751   4.647   2.574  0.4132  0.4749  0.3483
 5739TIP3    H238709   3.813   4.544   2.666 -1.2330 -0.8470 -0.0076
 5740TIP3   OH238710   0.927   2.530  11.871 -0.0178  0.1653 -0.4807
 5740TIP3    H138711   0.902   2.438  11.861  0.2208 -0.1159  1.2548
 5740TIP3    H238712   0.846   2.575  11.893 -0.3429  0.5797 -2.4842
 5741TIP3   OH238713   4.879   3.516   0.880 -0.0487 -0.0923  0.0490
 5741TIP3    H138714   4.817   3.502   0.952  0.1194  0.1181  0.2333
 5741TIP3    H238715   4.837   3.473   0.805 -0.8663  0.8663 -0.0586
 5742TIP3   OH238716   4.013   4.540   1.364  0.0076  0.2585  0.8503
 5742TIP3    H138717   3.985   4.612   1.307  1.6011  0.2983  0.0762
 5742TIP3    H238718   3.973   4.560   1.449 -0.4351  1.4970  0.3689
 5743TIP3   OH238719   4.488   4.135   4.753  0.3634  0.1653 -0.0647
 5743TIP3    H138720   4.415   4.086   4.714  1.6143 -0.8551 -1.1890
 5743TIP3    H238721   4.493   4.104   4.843 -0.4510  0.0607 -0.0566
 5744TIP3   OH238722   2.825   6.013  16.957  0.0238  0.5141  0.1709
 5744TIP3    H138723   2.820   6.079  17.026 -2.2778  1.0782 -0.4888
 5744TIP3    H238724   2.891   6.046  16.897 -0.9095  2.1090 -0.0111
 5745TIP3   OH238725   3.501   2.862  14.925  0.7563  0.2652  0.5954
 5745TIP3    H138726   3.583   2.911  14.923  0.6433  0.4589  0.6572
 5745TIP3    H238727   3.434   2.927  14.902  0.8387 -0.3461 -1.4112
 5746TIP3   OH238728   6.766   4.792  17.236 -0.0598 -0.1511 -0.2251
 5746TIP3    H138729   6.760   4.865  17.297  0.9310  0.3227 -0.6716
 5746TIP3    H238730   6.750   4.714  17.289  0.2084  0.2986  0.5167
 5747TIP3   OH238731   3.403   3.942   5.740 -0.4680  0.0073 -0.1097
 5747TIP3    H138732   3.479   3.984   5.700  0.1679 -1.3644 -0.3614
 5747TIP3    H238733   3.392   3.989   5.823  2.1964 -1.3792  1.0976
 5748TIP3   OH238734   0.299   6.529  15.495  0.0852  0.3758  0.0754
 5748TIP3    H138735   0.282   6.531  15.400  1.3391 -1.5649 -0.2091
 5748TIP3    H238736   0.372   6.468  15.505 -0.8725 -0.4137  2.4363
 5749TIP3   OH238737   1.695   0.592   6.608  0.2381 -0.0077  0.1881
 5749TIP3    H138738   1.740   0.508   6.620  0.8591  0.4434  1.1018
 5749TIP3    H238739   1.608   0.579   6.645  1.1450  0.4701  2.5605
 5750TIP3   OH238740   1.724   0.638  10.431 -0.2041 -0.4535 -0.1774
 5750TIP3    H138741   1.732   0.608  10.522 -1.2172 -3.2741 -0.9663
 5750TIP3    H238742   1.714   0.558  10.380  1.5612  1.0149 -2.9579
 5751TIP3   OH238743   0.111   5.920  15.351 -0.5904  0.1662 -0.6315
 5751TIP3    H138744   0.056   5.845  15.329 -0.0225  0.2244 -2.3240
 5751TIP3    H238745   0.054   5.996  15.341 -0.8466  0.0552 -0.0481
 5752TIP3   OH238746   5.092   5.884  16.865 -0.5244  0.3782 -0.2481
 5752TIP3    H138747   5.077   5.799  16.904 -1.6567  0.8440  0.3638
 5752TIP3    H238748   5.104   5.866  16.772 -1.1509 -0.4163 -0.1813
 5753TIP3   OH238749   3.110   5.667  16.330  0.2714  0.0512  0.4034
 5753TIP3    H138750   3.108   5.586  16.278  0.4919 -0.3743  1.0515
 5753TIP3    H238751   3.072   5.642  16.414 -1.5679  1.1242 -0.0859
 5754TIP3   OH238752   0.848   3.295  12.266  0.5860  0.8327  0.3362
 5754TIP3    H138753   0.857   3.390  12.263 -1.8726  1.0642 -1.0356
 5754TIP3    H238754   0.767   3.281  12.316 -0.7064 -0.4044 -2.0479
 5755TIP3   OH238755   5.414   0.341   4.809 -0.0510  0.0502  0.0911
 5755TIP3    H138756   5.486   0.357   4.870  0.4712 -1.8746  0.0168
 5755TIP3    H238757   5.421   0.412   4.745  0.4487  1.1050  1.3060
 5756TIP3   OH238758   3.466   3.659  10.762  0.3412  0.1356  0.2947
 5756TIP3    H138759   3.415   3.583  10.735  0.3774 -0.0270  0.6820
 5756TIP3    H238760   3.519   3.628  10.836  1.2166  0.2253 -0.2877
 5757TIP3   OH238761   4.654   3.934  16.157 -0.1315 -0.8162  0.2317
 5757TIP3    H138762   4.689   3.859  16.109  1.7470 -0.4280  0.9566
 5757TIP3    H238763   4.707   3.938  16.237 -0.7167  0.8088  0.5518
 5758TIP3   OH238764   2.767   1.253   0.593 -0.3983 -0.7261  0.3747
 5758TIP3    H138765   2.822   1.327   0.569 -0.5897 -0.3672  1.0356
 5758TIP3    H238766   2.684   1.269   0.547 -1.6463  1.2689  3.2154
 5759TIP3   OH238767   0.308   2.302  14.789 -0.4367  0.1776  0.5567
 5759TIP3    H138768   0.400   2.320  14.808 -0.1662  0.7902 -1.2016
 5759TIP3    H238769   0.308   2.273  14.697 -2.2826  2.7599 -0.3309
 5760TIP3   OH238770   6.521   1.611   1.215 -0.0557 -0.4357 -0.3948
 5760TIP3    H138771   6.476   1.576   1.292  0.4005 -0.8353 -0.3072
 5760TIP3    H238772   6.509   1.543   1.148  1.8512 -1.3076  0.1261
 5761TIP3   OH238773   4.691   1.736   5.389 -0.1094  0.1608 -0.3231
 5761TIP3    H138774   4.683   1.803   5.458 -0.1325  0.0562 -0.2240
 5761TIP3    H238775   4.603   1.730   5.352 -0.1189  0.1505 -0.2991
 5762TIP3   OH238776   2.847   4.724   5.172  0.3930 -0.0802 -0.3364
 5762TIP3    H138777   2.817   4.795   5.229 -0.1076 -0.1578 -0.5003
 5762TIP3    H238778   2.767   4.679   5.146  0.8758 -2.2629  1.7747
 5763TIP3   OH238779   4.371   6.517   3.660  0.2908  0.0258 -0.6385
 5763TIP3    H138780   4.382   6.603   3.700 -1.2037 -0.9864  2.1036
 5763TIP3    H238781   4.432   6.460   3.707 -0.1059 -0.7997 -1.1111
 5764TIP3   OH238782   3.801   4.733   2.263  0.1568  0.2624  0.4866
 5764TIP3    H138783   3.706   4.719   2.270 -0.0531  0.8151 -0.9232
 5764TIP3    H238784   3.817   4.813   2.313 -0.0380 -0.1347  1.1847
 5765TIP3   OH238785   1.772   2.283  16.496 -0.4162 -0.1646  0.3768
 5765TIP3    H138786   1.865   2.283  16.477 -0.7256 -0.0886 -1.1539
 5765TIP3    H238787   1.745   2.192  16.485 -0.5081 -0.2034  0.9078
 5766TIP3   OH238788   3.783   1.177   2.567  0.5096 -0.4662  0.4655
 5766TIP3    H138789   3.712   1.232   2.600  1.0831 -0.3822  1.5974
 5766TIP3    H238790   3.778   1.186   2.472 -0.1111  0.6481  0.5913
 5767TIP3   OH238791   2.067   4.464  11.983  0.0563 -0.2994 -0.4277
 5767TIP3    H138792   2.046   4.545  11.936 -2.5684  0.5001  1.9566
 5767TIP3    H238793   2.007   4.399  11.945 -0.9053 -0.0463  0.6305
 5768TIP3   OH238794   0.395   1.042  14.271  0.4321 -0.5850  0.1588
 5768TIP3    H138795   0.358   1.021  14.185  0.6431  1.8161 -0.5731
 5768TIP3    H238796   0.475   0.991  14.275  1.4442  0.7234 -1.9633
 5769TIP3   OH238797   3.668   6.244  11.408  0.0956 -0.3760  0.0587
 5769TIP3    H138798   3.628   6.276  11.488  2.1586  0.9182  0.6081
 5769TIP3    H238799   3.760   6.269  11.415  0.2365  0.1498 -2.8985
 5770TIP3   OH238800   4.661   5.493   0.878 -0.1972  0.7288 -0.1018
 5770TIP3    H138801   4.632   5.475   0.967 -1.3804  1.8216 -0.2504
 5770TIP3    H238802   4.688   5.585   0.880  1.9467  0.1318 -0.3258
 5771TIP3   OH238803   5.546   4.481  13.368  0.6534  0.5216 -0.0849
 5771TIP3    H138804   5.590   4.566  13.374 -1.5738  1.8207 -1.5322
 5771TIP3    H238805   5.454   4.501  13.379  0.2245 -1.9474  1.1755
 5772TIP3   OH238806   2.984   3.055  11.540  0.7963  0.3144  0.0518
 5772TIP3    H138807   3.059   3.049  11.480  1.0295  1.3574  0.2288
 5772TIP3    H238808   2.991   3.142  11.579 -2.1774  1.6666 -2.1880
 5773TIP3   OH238809   5.637   5.344   1.656 -0.0376  0.1730 -0.1039
 5773TIP3    H138810   5.695   5.396   1.712  1.8588  0.3522 -2.1615
 5773TIP3    H238811   5.606   5.405   1.589  0.0863 -0.7078 -0.9771
 5774TIP3   OH238812   0.248   4.162  17.237 -0.2492  0.2239 -0.8346
 5774TIP3    H138813   0.224   4.125  17.152  0.0330  0.7554 -1.1515
 5774TIP3    H238814   0.325   4.216  17.219 -2.7477  3.9614 -1.1492
 5775TIP3   OH238815   1.607   5.227  14.718 -0.2231  1.0129 -0.3765
 5775TIP3    H138816   1.606   5.162  14.648 -1.7193 -0.9526  1.3923
 5775TIP3    H238817   1.673   5.194  14.779 -0.8251  1.2704  0.4195
 5776TIP3   OH238818   6.779   0.009  16.295 -0.5340 -0.6554  0.4786
 5776TIP3    H138819   6.702  -0.012  16.349 -0.9975  1.6112  0.7399
 5776TIP3    H238820   6.849   0.026  16.358 -0.6165  0.2314  0.3431
 5777TIP3   OH238821   6.463   2.969  12.568 -0.3157 -0.0079  0.2306
 5777TIP3    H138822   6.376   2.933  12.548 -0.2124  0.3442 -0.8572
 5777TIP3    H238823   6.513   2.894  12.601 -0.3686 -0.6791 -1.2003
 5778TIP3   OH238824   3.262   1.191  12.622 -0.8779  0.6126 -0.3498
 5778TIP3    H138825   3.248   1.278  12.660  1.4695  0.2220  1.4985
 5778TIP3    H238826   3.201   1.134  12.669 -1.3879  0.9930 -0.5502
 5779TIP3   OH238827   4.033   0.399  12.011  0.1205 -0.0728  0.2882
 5779TIP3    H138828   4.100   0.344  11.969  0.1676  0.4817 -0.3677
 5779TIP3    H238829   4.017   0.469  11.948  0.2002  0.7757  1.2028
 5780TIP3   OH238830   5.233   0.313   4.447  0.2244  0.2401  0.0955
 5780TIP3    H138831   5.324   0.339   4.464  0.3332 -1.9491  3.1542
 5780TIP3    H238832   5.222   0.328   4.353  3.3115  1.8108 -0.0954
 5781TIP3   OH238833   6.785   2.472  17.027  0.8416 -0.2827  0.5833
 5781TIP3    H138834   6.720   2.414  17.067  0.9730 -0.4397  0.5725
 5781TIP3    H238835   6.792   2.546  17.087  1.3517 -0.7216  1.0758
 5782TIP3   OH238836   2.046   0.970  11.279 -0.4346 -0.2745  0.1481
 5782TIP3    H138837   2.037   0.979  11.184  1.2375  0.7244  0.0630
 5782TIP3    H238838   2.003   1.047  11.315  0.3433  0.1848  0.1132
 5783TIP3   OH238839   1.818   4.840   5.997 -0.7021  0.3126 -0.3774
 5783TIP3    H138840   1.862   4.897   6.060  0.9911 -1.2697 -0.0659
 5783TIP3    H238841   1.859   4.860   5.913  1.2900 -1.7318  0.0434
 5784TIP3   OH238842   3.648   4.979  13.294 -0.1796  0.2939 -0.3596
 5784TIP3    H138843   3.686   4.912  13.236 -1.5438  0.6514 -1.6909
 5784TIP3    H238844   3.723   5.033  13.318  0.6941 -0.8432 -0.4552
 5785TIP3   OH238845   3.180   6.636   1.064  0.0736  0.2999 -0.1587
 5785TIP3    H138846   3.211   6.662   1.150  0.6913  1.4377 -0.7075
 5785TIP3    H238847   3.238   6.682   1.003  0.1404 -1.0940 -1.1773
 5786TIP3   OH238848   2.838   3.353  15.424  0.7074  0.3745 -0.2068
 5786TIP3    H138849   2.897   3.311  15.361  0.9057  1.3015 -0.6553
 5786TIP3    H238850   2.802   3.281  15.476  0.0874 -0.4508 -1.7726
 5787TIP3   OH238851   0.628   4.794  15.284  0.4243  0.0668  0.0618
 5787TIP3    H138852   0.570   4.766  15.355  1.2228 -1.2036  0.2344
 5787TIP3    H238853   0.666   4.876  15.316  0.6265 -0.3901  1.0309
 5788TIP3   OH238854   4.167   5.643  12.797  0.3512  0.2485 -0.1177
 5788TIP3    H138855   4.106   5.652  12.724 -0.6058 -0.6367  0.5640
 5788TIP3    H238856   4.150   5.720  12.852  0.5497  0.5216 -0.4355
 5789TIP3   OH238857   0.141   1.706  13.195  0.4901 -0.5754 -0.1593
 5789TIP3    H138858   0.136   1.720  13.290 -0.9386 -0.8440 -0.1855
 5789TIP3    H238859   0.172   1.616  13.186 -1.4706 -1.3066  0.0879
 5790TIP3   OH238860   2.486   1.345   6.477  0.0049  0.2850 -0.3347
 5790TIP3    H138861   2.579   1.365   6.473 -0.0866  1.1028  1.1786
 5790TIP3    H238862   2.443   1.431   6.478 -0.7222 -0.0776 -0.1564
 5791TIP3   OH238863   4.488   0.386   2.475 -0.0045 -0.1521  0.8255
 5791TIP3    H138864   4.548   0.424   2.539 -0.7504 -1.1308  2.1413
 5791TIP3    H238865   4.507   0.292   2.477 -1.1931 -0.4020  0.8459
 5792TIP3   OH238866   4.566   4.892  10.513  0.0248 -0.2847  0.0301
 5792TIP3    H138867   4.656   4.923  10.503 -0.8114  2.5798  0.8657
 5792TIP3    H238868   4.557   4.873  10.606 -1.0212  2.2220  0.4931
 5793TIP3   OH238869   5.753   3.520   5.218 -0.0507 -0.4349  0.0566
 5793TIP3    H138870   5.836   3.568   5.215  0.9615 -2.1998 -1.2537
 5793TIP3    H238871   5.732   3.504   5.126 -2.5805  1.1600  0.2842
 5794TIP3   OH238872   4.225   4.292   2.318  0.0362 -0.5089  0.3558
 5794TIP3    H138873   4.195   4.353   2.385  1.5446 -1.8390  2.2960
 5794TIP3    H238874   4.294   4.338   2.272 -0.2921  0.0217  0.3947
 5795TIP3   OH238875   5.621   4.415  12.827  0.1551 -0.3041  0.2768
 5795TIP3    H138876   5.634   4.386  12.917  0.6209 -1.1954 -0.0697
 5795TIP3    H238877   5.560   4.352  12.789 -0.5249  0.4197  0.1403
 5796TIP3   OH238878   3.022   1.471   2.690  0.0990  0.5539  0.2105
 5796TIP3    H138879   3.042   1.395   2.746 -0.1407 -0.7659 -1.4543
 5796TIP3    H238880   2.956   1.439   2.629 -0.3498  2.2620 -0.2244
 5797TIP3   OH238881   5.679   6.402   2.659 -0.3404  0.4466  0.2268
 5797TIP3    H138882   5.679   6.431   2.567  0.4896  0.8021  0.3291
 5797TIP3    H238883   5.743   6.331   2.661 -1.6477 -0.7481  0.1826
 5798TIP3   OH238884   0.521   5.404   2.055 -0.1403  0.1252 -0.1745
 5798TIP3    H138885   0.559   5.373   2.137  2.1469 -0.1447 -1.3109
 5798TIP3    H238886   0.523   5.499   2.061  0.0357  0.1034  0.0636
 5799TIP3   OH238887   5.993   3.784   1.580  0.1154 -0.3956 -0.3523
 5799TIP3    H138888   5.925   3.793   1.646  0.1297 -0.5720 -0.3138
 5799TIP3    H238889   6.071   3.821   1.620  0.4843 -1.8138  0.2816
 5800TIP3   OH238890   2.890   2.009  14.561 -0.5026 -0.9905  0.4313
 5800TIP3    H138891   2.878   1.992  14.655 -0.7515 -1.0911  0.3823
 5800TIP3    H238892   2.981   2.037  14.553  0.0704 -2.7864  0.4567
 5801TIP3   OH238893   4.480   3.556   6.128  0.0795 -0.0977 -0.3993
 5801TIP3    H138894   4.464   3.472   6.170  1.0339  0.9464  2.1726
 5801TIP3    H238895   4.548   3.538   6.064  1.0918 -1.1027  0.9232
 5802TIP3   OH238896   4.107   1.122   0.282  0.2076 -0.3287  0.2152
 5802TIP3    H138897   4.191   1.081   0.300 -0.4925 -1.9947 -0.2657
 5802TIP3    H238898   4.128   1.201   0.233  1.5379 -0.3316  0.7804
 5803TIP3   OH238899   6.642   4.628   0.380  0.6766 -0.0334 -0.2876
 5803TIP3    H138900   6.702   4.696   0.410  0.2126  0.2580 -0.0094
 5803TIP3    H238901   6.591   4.670   0.311  0.1536  0.0162  0.1215
 5804TIP3   OH238902   3.121   2.112  12.036 -0.3383 -0.4963  0.2886
 5804TIP3    H138903   3.121   2.184  11.972  2.0031 -0.7055  0.0095
 5804TIP3    H238904   3.184   2.049  12.001 -0.4038 -1.4671  1.8801
 5805TIP3   OH238905   4.376   1.432   3.774 -0.4570 -0.6349  0.3090
 5805TIP3    H138906   4.355   1.388   3.856 -0.0738  0.4096  0.9683
 5805TIP3    H238907   4.404   1.361   3.716  1.2030 -1.1743  1.7018
 5806TIP3   OH238908   2.254   0.657  15.716  0.2728 -0.3602  0.1478
 5806TIP3    H138909   2.284   0.597  15.647 -2.0083 -0.9363 -0.3834
 5806TIP3    H238910   2.170   0.621  15.743 -0.6573  2.0527  0.5315
 5807TIP3   OH238911   5.504   5.954   4.748 -0.2751 -0.4523  0.0057
 5807TIP3    H138912   5.456   6.028   4.786  0.0858 -0.5873  0.7281
 5807TIP3    H238913   5.530   5.985   4.661 -1.0318 -0.1130 -0.1033
 5808TIP3   OH238914   1.534   6.211   0.340 -0.3209  0.5164 -0.1193
 5808TIP3    H138915   1.448   6.242   0.368  0.3028  0.6926  1.6441
 5808TIP3    H238916   1.529   6.115   0.350 -0.8328  0.3836 -1.5411
 5809TIP3   OH238917   5.903   3.915  15.770 -0.4315 -0.1504  0.3235
 5809TIP3    H138918   5.828   3.925  15.711  0.3529 -0.8581 -0.8183
 5809TIP3    H238919   5.915   4.002  15.809  0.0160  0.7508 -1.7607
 5810TIP3   OH238920   4.289   3.868  13.569 -0.4345  0.0918 -0.4044
 5810TIP3    H138921   4.310   3.960  13.584 -0.5016  0.2504 -1.2557
 5810TIP3    H238922   4.364   3.834  13.520 -0.6285 -0.1790 -0.5165
 5811TIP3   OH238923   3.433   3.992  14.102 -0.0784  0.1942  0.8544
 5811TIP3    H138924   3.389   4.038  14.173 -0.5993 -0.4285  0.9481
 5811TIP3    H238925   3.516   4.038  14.091  0.1174  0.1539  2.0340
 5812TIP3   OH238926   5.960   3.958  15.244  0.8452  0.1712 -0.2676
 5812TIP3    H138927   5.957   3.949  15.149  0.6655  0.6915 -0.3134
 5812TIP3    H238928   5.874   3.993  15.267  0.2705 -1.5529  0.2608
 5813TIP3   OH238929   1.129   6.813  12.142 -0.4231  0.3803 -0.1991
 5813TIP3    H138930   1.131   6.884  12.078  1.5859 -1.2636 -2.0762
 5813TIP3    H238931   1.040   6.778  12.136 -0.9688  1.7822 -0.3337
 5814TIP3   OH238932   2.645   2.565   1.300  0.6328 -0.2270  0.3575
 5814TIP3    H138933   2.616   2.641   1.350 -0.0428 -1.3085  1.6482
 5814TIP3    H238934   2.722   2.595   1.252  0.0627  1.4035  0.4416
 5815TIP3   OH238935   5.394   6.519  16.518  0.2824  0.1241  0.2589
 5815TIP3    H138936   5.372   6.610  16.495 -1.1224  0.1884  1.7519
 5815TIP3    H238937   5.331   6.496  16.586  0.6836 -1.9604 -0.0507
 5816TIP3   OH238938   4.089   0.160   1.997  0.8275  0.0242 -0.4950
 5816TIP3    H138939   4.026   0.190   2.062  0.6321  0.9190 -1.0732
 5816TIP3    H238940   4.049   0.183   1.913  0.9014 -1.4546 -0.9496
 5817TIP3   OH238941   5.913   0.737  15.563 -0.4071  0.2731  0.1870
 5817TIP3    H138942   5.889   0.816  15.515 -0.1324 -1.1375 -2.3307
 5817TIP3    H238943   5.830   0.703  15.595 -0.8401  0.1345 -1.0429
 5818TIP3   OH238944   6.233   6.353  17.196  0.2897  0.0124  0.4588
 5818TIP3    H138945   6.324   6.335  17.172 -0.0983  0.1959 -1.2075
 5818TIP3    H238946   6.228   6.333  17.290  1.8819 -0.6006  0.4192
 5819TIP3   OH238947   1.160   4.401  14.827  0.0980  0.1098 -0.0298
 5819TIP3    H138948   1.217   4.338  14.783 -2.3303 -2.0247 -0.2249
 5819TIP3    H238949   1.161   4.478  14.770 -0.6363 -1.5047 -2.2932
 5820TIP3   OH238950   2.862   6.653   2.619 -0.3234  0.1837 -0.1982
 5820TIP3    H138951   2.838   6.723   2.679  0.7914  1.2173 -0.9332
 5820TIP3    H238952   2.883   6.697   2.537  1.1155 -0.9343 -0.4539
 5821TIP3   OH238953   6.219   0.802   1.325  0.7700 -0.3642  0.1635
 5821TIP3    H138954   6.211   0.841   1.413  0.6944  1.1446 -0.4876
 5821TIP3    H238955   6.207   0.876   1.265  2.2523 -1.1049 -1.1081
 5822TIP3   OH238956   1.909   1.096  15.675  0.5365  0.1139  0.0454
 5822TIP3    H138957   1.825   1.134  15.701  0.1385 -1.1712  0.7155
 5822TIP3    H238958   1.924   1.129  15.586  0.4159  2.1284  0.7435
 5823TIP3   OH238959   2.460   3.488   3.852  0.7755  0.3114  0.0764
 5823TIP3    H138960   2.447   3.405   3.898 -0.0960 -0.4721 -1.5062
 5823TIP3    H238961   2.437   3.555   3.915  0.4535 -0.7020  1.0517
 5824TIP3   OH238962   2.821   2.540  15.507  0.1840 -0.7122  0.3364
 5824TIP3    H138963   2.879   2.464  15.504  0.5416 -0.4629  0.9765
 5824TIP3    H238964   2.811   2.565  15.415 -1.8712 -2.9828 -0.1045
 5825TIP3   OH238965   1.256   3.107  12.734 -0.2769  0.0001 -0.0398
 5825TIP3    H138966   1.300   3.184  12.770 -0.7805 -0.4746  1.6259
 5825TIP3    H238967   1.327   3.054  12.697  0.1307  0.9839 -0.6942
 5826TIP3   OH238968   0.094   6.727  13.791 -0.3397  0.1185  0.4398
 5826TIP3    H138969   0.067   6.636  13.783 -2.9991  0.5693  3.5164
 5826TIP3    H238970   0.014   6.778  13.779  0.1498  1.7806  3.6366
 5827TIP3   OH238971   2.526   2.567  10.809  0.3827 -0.3674  0.2206
 5827TIP3    H138972   2.604   2.582  10.861 -0.3949 -0.2015  1.3618
 5827TIP3    H238973   2.484   2.653  10.803 -1.0136 -0.9001  1.7693
 5828TIP3   OH238974   6.249   2.499   0.379 -0.2487 -0.6341 -0.0711
 5828TIP3    H138975   6.331   2.451   0.365  0.8297  1.1261  0.0465
 5828TIP3    H238976   6.252   2.569   0.315 -1.2705 -0.0485  0.5195
 5829TIP3   OH238977   2.575   4.462  11.740  0.1765 -0.1264 -0.3295
 5829TIP3    H138978   2.613   4.507  11.665  2.5945  0.3724  1.1351
 5829TIP3    H238979   2.589   4.521  11.814 -2.5869 -0.3985  0.4562
 5830TIP3   OH238980   4.376   0.545  14.055 -0.1360  0.0489  0.2538
 5830TIP3    H138981   4.386   0.460  14.096  0.1114 -0.3995 -0.7286
 5830TIP3    H238982   4.444   0.548  13.988 -1.5866  0.0804 -1.2637
 5831TIP3   OH238983   2.482   1.422   1.122 -0.7984  0.2555 -0.5548
 5831TIP3    H138984   2.431   1.345   1.148 -0.2488 -0.0097 -0.2581
 5831TIP3    H238985   2.502   1.407   1.029  1.0928 -0.9718  0.0394
 5832TIP3   OH238986   5.141   1.971   3.915 -0.1912 -0.4089  0.1298
 5832TIP3    H138987   5.171   2.022   3.990 -0.7118 -1.9850  1.4491
 5832TIP3    H238988   5.047   1.986   3.912 -0.2051 -0.5318 -0.0709
 5833TIP3   OH238989   3.550   4.205  15.809 -0.8970  0.4084 -0.0612
 5833TIP3    H138990   3.618   4.138  15.806  0.3005  1.6411 -1.5400
 5833TIP3    H238991   3.567   4.253  15.890 -1.7508 -1.0434  0.9945
 5834TIP3   OH238992   4.748   4.816  15.125 -0.0364  0.5194 -0.0548
 5834TIP3    H138993   4.684   4.816  15.055 -0.5492 -1.2647  0.3768
 5834TIP3    H238994   4.825   4.772  15.088 -0.6145 -1.1975  0.7439
 5835TIP3   OH238995   0.100   1.043  16.226  0.3773  0.0188 -0.7558
 5835TIP3    H138996   0.169   0.988  16.262 -0.5937 -0.3071  0.6641
 5835TIP3    H238997   0.027   0.982  16.211 -0.1054  0.6123 -0.8199
 5836TIP3   OH238998   2.950   3.034   2.494  0.0461 -0.2249  0.3363
 5836TIP3    H138999   2.909   2.947   2.494  2.5506 -1.4842  0.1070
 5836TIP3    H239000   2.906   3.081   2.424 -1.7845 -1.0892  0.8709
 5837TIP3   OH239001   1.108   1.151   4.202  0.0574 -0.1048  0.3493
 5837TIP3    H139002   1.036   1.179   4.258  0.6778 -1.6057  1.9362
 5837TIP3    H239003   1.067   1.134   4.117 -0.9876  1.6023  0.4901
 5838TIP3   OH239004   1.359   4.446  12.063  0.7032 -0.1934  0.3444
 5838TIP3    H139005   1.293   4.442  12.132 -1.0069  2.4166 -1.0471
 5838TIP3    H239006   1.411   4.524  12.084 -0.5155  1.2653 -1.8522
 5839TIP3   OH239007   0.589   3.401  13.376  0.0789  0.5343 -0.4237
 5839TIP3    H139008   0.495   3.393  13.393  0.1619  0.2595 -0.0994
 5839TIP3    H239009   0.629   3.331  13.428  0.4526  0.5796 -0.6498
 5840TIP3   OH239010   6.802   4.871   3.078 -0.4129 -0.0514  0.5292
 5840TIP3    H139011   6.787   4.957   3.040 -1.5537 -0.2877  0.4267
 5840TIP3    H239012   6.760   4.810   3.018  1.0603 -0.7613  0.1823
 5841TIP3   OH239013   1.474   1.707  16.619  0.3488 -0.0227 -0.7061
 5841TIP3    H139014   1.496   1.656  16.697 -2.5613  0.9240  0.7837
 5841TIP3    H239015   1.488   1.647  16.546  0.5397 -1.7665  0.7496
 5842TIP3   OH239016   1.728   5.313   2.720  0.2062  0.0235 -0.3838
 5842TIP3    H139017   1.749   5.333   2.812 -0.1288 -0.3890 -0.2148
 5842TIP3    H239018   1.721   5.217   2.718 -1.6308  0.1365 -0.4317
 5843TIP3   OH239019   1.200   2.624   4.900 -0.1254 -0.1585  0.2468
 5843TIP3    H139020   1.193   2.611   4.995 -0.1795 -0.8282  0.1494
 5843TIP3    H239021   1.226   2.539   4.866  1.1829  0.4101 -0.2096
 5844TIP3   OH239022   1.784   6.477  17.066  0.3454 -0.5348  0.8005
 5844TIP3    H139023   1.865   6.426  17.061  0.5443 -0.1173 -0.7272
 5844TIP3    H239024   1.721   6.425  17.016  0.6223  0.7921 -1.0152
 5845TIP3   OH239025   2.680   1.077  12.465 -0.1350  0.1750 -0.7413
 5845TIP3    H139026   2.732   1.041  12.393  0.3210  0.6236 -0.6386
 5845TIP3    H239027   2.742   1.129  12.516 -0.1295 -1.3725  0.8454
 5846TIP3   OH239028   5.157   1.788  10.910 -0.2658  0.5270  0.5776
 5846TIP3    H139029   5.226   1.820  10.853 -1.0949  1.4216  0.0816
 5846TIP3    H239030   5.201   1.722  10.965  0.7677  0.4367 -0.3400
 5847TIP3   OH239031   6.639   3.583   3.092  0.0505 -0.0684 -0.3992
 5847TIP3    H139032   6.584   3.661   3.088 -0.6785 -0.6281 -1.4453
 5847TIP3    H239033   6.577   3.510   3.095  0.7305 -0.7263 -2.0217
 5848TIP3   OH239034   6.813   3.610  13.217  0.3525 -0.4073 -0.5788
 5848TIP3    H139035   6.893   3.571  13.181  0.2759  0.3208 -1.5448
 5848TIP3    H239036   6.742   3.558  13.179  0.3664 -1.7750  1.1395
 5849TIP3   OH239037   4.201   4.533   1.181 -0.0252  0.4617  0.5916
 5849TIP3    H139038   4.156   4.549   1.264  1.9196  1.2293  1.5200
 5849TIP3    H239039   4.284   4.579   1.189 -0.1282  1.2252 -2.1041
 5850TIP3   OH239040   2.642   3.142   0.572 -0.1977 -0.0409 -0.4107
 5850TIP3    H139041   2.676   3.166   0.486  0.1435  0.0375 -0.2557
 5850TIP3    H239042   2.719   3.145   0.629 -0.5987  0.9243  0.0986
 5851TIP3   OH239043   5.521   6.236  16.492  0.1332 -0.2032 -0.1490
 5851TIP3    H139044   5.560   6.222  16.579  1.0222 -0.9822 -0.6683
 5851TIP3    H239045   5.453   6.168  16.485 -1.3709  1.1645  0.7624
 5852TIP3   OH239046   3.520   3.488  12.187  0.2256 -0.4029  0.7800
 5852TIP3    H139047   3.593   3.473  12.127 -0.2782 -2.4091  0.6067
 5852TIP3    H239048   3.443   3.457  12.138 -0.4429 -0.2873  1.7487
 5853TIP3   OH239049   2.033   6.287  14.027  0.3806 -1.0536 -0.2878
 5853TIP3    H139050   1.981   6.219  13.984 -0.5702 -1.3165  1.2664
 5853TIP3    H239051   1.969   6.342  14.072  1.0861  1.1514 -1.8436
 5854TIP3   OH239052   3.093   1.583  16.104 -0.3029  0.1608 -1.0081
 5854TIP3    H139053   3.058   1.587  16.193  0.1415 -1.7593 -0.7331
 5854TIP3    H239054   3.062   1.664  16.063 -1.5794  0.4616  0.4901
 5855TIP3   OH239055   0.859   2.027  16.446 -0.3115  0.2880 -0.3658
 5855TIP3    H139056   0.928   1.991  16.391  0.6935 -0.1397  1.1379
 5855TIP3    H239057   0.792   2.056  16.385  2.3999  3.3187 -2.0975
 5856TIP3   OH239058   1.267   5.155   1.456 -0.0436  0.2474 -0.7452
 5856TIP3    H139059   1.266   5.182   1.548  1.1508  1.0434 -0.9489
 5856TIP3    H239060   1.314   5.225   1.411 -2.0310  0.6529 -2.2384
 5857TIP3   OH239061   3.746   1.365  12.733  0.2831  0.2451  0.7152
 5857TIP3    H139062   3.724   1.388  12.642  0.8054 -0.9126  0.2797
 5857TIP3    H239063   3.791   1.442  12.767  0.3833  0.5668 -0.1201
 5858TIP3   OH239064   3.651   2.681   3.566  0.1979  0.7251 -0.1884
 5858TIP3    H139065   3.698   2.669   3.483 -0.4205  2.6073 -0.8372
 5858TIP3    H239066   3.622   2.593   3.590  2.0424 -0.1137 -0.9799
 5859TIP3   OH239067   2.895   3.115   5.812  0.4995  0.9509 -0.0896
 5859TIP3    H139068   2.973   3.099   5.760 -0.1866 -0.6612 -0.6501
 5859TIP3    H239069   2.900   3.052   5.884 -1.5640 -1.0410 -1.5877
 5860TIP3   OH239070   0.646   3.411   4.752  0.1449 -0.2265  0.8029
 5860TIP3    H139071   0.655   3.384   4.843 -2.1658 -1.9115  0.5794
 5860TIP3    H239072   0.701   3.350   4.703 -0.3991 -0.7850  0.8750
 5861TIP3   OH239073   1.013   6.242  16.849 -0.5010 -0.6128  0.0152
 5861TIP3    H139074   1.089   6.187  16.834  0.2401  0.7783 -1.4631
 5861TIP3    H239075   0.959   6.229  16.771 -0.6426  0.2525 -0.0259
 5862TIP3   OH239076   2.589   5.385  14.114  0.9513 -0.2024 -0.4645
 5862TIP3    H139077   2.600   5.456  14.050 -1.6883  0.4349 -0.2910
 5862TIP3    H239078   2.659   5.398  14.178  1.3919  1.3551 -1.2448
 5863TIP3   OH239079   5.130   5.829  11.782  0.3311  0.3019  0.1981
 5863TIP3    H139080   5.144   5.743  11.822 -0.0349  0.6615  1.1032
 5863TIP3    H239081   5.192   5.831  11.708  0.3033 -0.7538  0.1338
 5864TIP3   OH239082   6.473   2.081   3.717  0.6729 -0.0351  0.0434
 5864TIP3    H139083   6.495   2.038   3.800  1.5054 -1.3487 -0.8298
 5864TIP3    H239084   6.403   2.027   3.680 -2.2367  2.5858  1.5315
 5865TIP3   OH239085   3.276   2.316   3.164  0.0773 -0.5666  0.2358
 5865TIP3    H139086   3.366   2.316   3.195 -0.0495 -0.8736  0.6113
 5865TIP3    H239087   3.225   2.343   3.240 -0.0891  0.2336 -0.1542
 5866TIP3   OH239088   6.803   1.131  13.002 -0.3513  0.0554  0.5616
 5866TIP3    H139089   6.814   1.217  13.042 -0.8670  0.3833  0.0176
 5866TIP3    H239090   6.709   1.116  13.004 -0.2867 -0.3770  0.4003
 5867TIP3   OH239091   5.511   6.281  15.503  0.2033 -0.1117  0.2206
 5867TIP3    H139092   5.507   6.343  15.576  2.5197  1.5722 -1.0088
 5867TIP3    H239093   5.443   6.311  15.443  0.6959  0.7200  0.0572
 5868TIP3   OH239094   0.133   3.273  16.432 -0.7894  0.9330  0.1261
 5868TIP3    H139095   0.226   3.283  16.450 -0.0683 -0.4938 -2.6179
 5868TIP3    H239096   0.102   3.363  16.420 -0.2000  1.5443  2.8856
 5869TIP3   OH239097   1.110   0.907  15.084  0.5588  0.9181 -0.0725
 5869TIP3    H139098   1.178   0.850  15.121  0.7685  1.9759  1.2485
 5869TIP3    H239099   1.059   0.850  15.027  1.0562 -0.4741  0.8319
 5870TIP3   OH239100   5.181   1.141   4.940 -0.1204  0.6109 -0.4630
 5870TIP3    H139101   5.128   1.194   4.882  1.2455  0.5540 -1.7928
 5870TIP3    H239102   5.123   1.071   4.970 -2.0194  2.9467  1.5201
 5871TIP3   OH239103   2.728   1.156   4.689  0.0771 -0.2967  0.3515
 5871TIP3    H139104   2.731   1.138   4.595 -0.2317 -1.3203  0.5296
 5871TIP3    H239105   2.805   1.113   4.724  0.4725  0.5258  0.5012
 5872TIP3   OH239106   3.582   4.656   2.007  0.1459 -0.0144 -0.6907
 5872TIP3    H139107   3.624   4.598   2.071  0.3435  1.3980  0.4698
 5872TIP3    H239108   3.629   4.638   1.925 -0.4894 -2.2467 -0.6083
 5873TIP3   OH239109   2.257   5.860  16.450 -0.0059  0.3672  0.3136
 5873TIP3    H139110   2.329   5.912  16.485  0.9412 -0.4910 -0.3584
 5873TIP3    H239111   2.178   5.903  16.483  0.8394  0.2014  2.6540
 5874TIP3   OH239112   3.977   2.027   5.751 -0.1350  0.0435  0.2715
 5874TIP3    H139113   4.048   1.969   5.722  1.0598  1.7119 -0.2366
 5874TIP3    H239114   3.956   1.996   5.839  2.2819  0.4579  1.0265
 5875TIP3   OH239115   2.701   5.173  11.679  0.4616  0.8218 -0.2451
 5875TIP3    H139116   2.693   5.213  11.593 -0.4184  2.2191  0.4606
 5875TIP3    H239117   2.763   5.230  11.726  0.5276  0.3759  0.2215
 5876TIP3   OH239118   3.682   1.040   1.348 -0.2609 -0.1441 -0.4688
 5876TIP3    H139119   3.617   1.025   1.280 -0.8091 -2.9705  0.6307
 5876TIP3    H239120   3.631   1.070   1.424 -0.0824 -0.5902 -0.1691
 5877TIP3   OH239121   5.623   6.513   0.511  0.2148 -0.2419  0.1643
 5877TIP3    H139122   5.716   6.522   0.493  0.0616  1.0152 -0.0348
 5877TIP3    H239123   5.587   6.600   0.498 -1.1576 -0.9174 -0.7292
 5878TIP3   OH239124   6.781   5.938   4.074  0.7520 -0.2999  0.5843
 5878TIP3    H139125   6.876   5.924   4.072  0.6480 -0.9300 -0.1711
 5878TIP3    H239126   6.755   5.941   3.982  0.5964  3.9128  0.6808
 5879TIP3   OH239127   0.308   3.568  12.621  0.0401 -0.2552  0.2190
 5879TIP3    H139128   0.277   3.658  12.613  1.0140 -0.0765 -2.0121
 5879TIP3    H239129   0.374   3.572  12.691  0.6747  0.9525 -0.4231
 5880TIP3   OH239130   5.432   5.449  11.527 -0.5507  0.4488  0.8759
 5880TIP3    H139131   5.491   5.506  11.576 -0.0995 -0.0371  0.9014
 5880TIP3    H239132   5.449   5.471  11.435  0.7033 -0.6695  0.8112
 5881TIP3   OH239133   6.432   1.596  15.607  0.1505 -0.1629 -0.0169
 5881TIP3    H139134   6.344   1.634  15.602  0.6027  0.8245 -0.6836
 5881TIP3    H239135   6.442   1.571  15.699 -0.5352  0.4251  0.2255
 5882TIP3   OH239136   2.287   2.407  16.319  0.0449  0.2323 -0.2411
 5882TIP3    H139137   2.369   2.399  16.269  1.2871  0.7752  1.6623
 5882TIP3    H239138   2.289   2.496  16.354 -0.4686 -0.3577  1.3330
 5883TIP3   OH239139   6.233   4.413  11.692 -0.1447 -0.1170 -0.1193
 5883TIP3    H139140   6.275   4.465  11.623 -0.2316  1.8094  1.2476
 5883TIP3    H239141   6.142   4.443  11.691 -0.1981 -0.2678  0.6712
 5884TIP3   OH239142   1.472   3.880  16.592 -0.2641 -0.1617 -0.3035
 5884TIP3    H139143   1.439   3.823  16.522 -0.3489  1.3356 -1.5135
 5884TIP3    H239144   1.396   3.930  16.621 -0.2753 -0.9358  1.0381
 5885TIP3   OH239145   3.821   2.464   4.452  0.1728  0.2652 -0.5495
 5885TIP3    H139146   3.865   2.528   4.508  1.3725  0.2836 -1.4838
 5885TIP3    H239147   3.765   2.414   4.512  1.8312 -0.0533  0.7816
 5886TIP3   OH239148   2.563   6.199   5.410 -0.0992 -0.2235 -0.1211
 5886TIP3    H139149   2.529   6.220   5.323 -0.5460 -2.7076 -0.5980
 5886TIP3    H239150   2.486   6.200   5.467 -0.2881 -1.5226 -0.3445
 5887TIP3   OH239151   3.880   5.148   2.025 -0.2023 -0.1272  0.4352
 5887TIP3    H139152   3.871   5.053   2.024  0.4102 -0.1794 -1.2850
 5887TIP3    H239153   3.966   5.164   2.064 -0.2292 -0.2790  0.5571
 5888TIP3   OH239154   1.667   2.835  15.301 -0.0762 -1.0558  0.0865
 5888TIP3    H139155   1.726   2.765  15.272  0.0809 -1.2690  0.9013
 5888TIP3    H239156   1.723   2.912  15.310 -0.0320 -1.1078  0.2696
 5889TIP3   OH239157   1.446   0.123   3.501 -0.9114  0.5317 -0.2054
 5889TIP3    H139158   1.396   0.050   3.538 -0.8729  1.6585  2.1338
 5889TIP3    H239159   1.501   0.083   3.433 -2.7679 -1.1884 -0.7209
 5890TIP3   OH239160   4.128   6.596  11.150  0.3490 -0.4137 -0.0728
 5890TIP3    H139161   4.038   6.602  11.182  0.0723 -4.6122  0.2410
 5890TIP3    H239162   4.182   6.626  11.224 -0.6490 -1.8708  1.2735
 5891TIP3   OH239163   5.730   0.982  15.916  0.3087 -0.5736  0.3206
 5891TIP3    H139164   5.659   1.007  15.857  2.3758  1.0421 -1.5390
 5891TIP3    H239165   5.721   1.041  15.991 -1.0587 -1.2378  0.7035
 5892TIP3   OH239166   4.858   4.218  12.933  0.2449  0.2634  0.4864
 5892TIP3    H139167   4.829   4.251  12.848  0.5704 -0.9615 -0.1157
 5892TIP3    H239168   4.923   4.282  12.963 -0.3418  1.0423  0.1281
 5893TIP3   OH239169   1.692   0.325   0.947  0.2910 -0.1924 -0.1627
 5893TIP3    H139170   1.735   0.395   0.997 -1.8261  1.2947 -0.3418
 5893TIP3    H239171   1.700   0.353   0.855 -1.1332  0.1562 -0.1868
 5894TIP3   OH239172   1.646   6.031   3.556 -0.1160  0.3543  0.3228
 5894TIP3    H139173   1.640   6.122   3.584  1.1392  0.7852 -0.7739
 5894TIP3    H239174   1.700   5.988   3.623  2.3571  1.2403 -1.0698
 5895TIP3   OH239175   1.140   5.876  16.158  0.2351 -0.5689 -0.3808
 5895TIP3    H139176   1.142   5.856  16.251  0.6640 -0.5198 -0.3795
 5895TIP3    H239177   1.199   5.812  16.118 -0.1467 -0.7552 -0.6463
 5896TIP3   OH239178   3.455   4.952   5.358  0.7481  0.3064 -0.1965
 5896TIP3    H139179   3.370   4.947   5.313  0.5664  2.0476 -0.0586
 5896TIP3    H239180   3.432   4.978   5.448  1.2183 -1.8583  0.5909
 5897TIP3   OH239181   2.296   3.138   6.310  0.0744 -0.3455  0.6792
 5897TIP3    H139182   2.232   3.153   6.380  0.4392 -0.4031  1.0230
 5897TIP3    H239183   2.304   3.042   6.305 -0.0053 -0.3449  0.5049
 5898TIP3   OH239184   4.147   3.911   3.460 -0.1047 -0.3482 -0.0442
 5898TIP3    H139185   4.090   3.887   3.387  0.6275 -0.0095 -0.7441
 5898TIP3    H239186   4.174   4.001   3.440 -1.2607  0.3661  1.5388
 5899TIP3   OH239187   5.877   1.212  12.116  0.2300 -0.3878  0.9315
 5899TIP3    H139188   5.782   1.214  12.129  0.3942 -0.1226  2.1416
 5899TIP3    H239189   5.889   1.164  12.034 -1.0320  1.0090 -0.0792
 5900TIP3   OH239190   6.256   1.779   6.295  0.1738 -0.3096 -0.1063
 5900TIP3    H139191   6.190   1.816   6.352 -0.3726  0.4824 -1.2370
 5900TIP3    H239192   6.313   1.852   6.272  1.5819 -1.0137  1.0046
 5901TIP3   OH239193   1.802   1.013   4.725 -0.1260 -0.4523  0.3285
 5901TIP3    H139194   1.820   0.989   4.635  1.1741  0.4874  0.3138
 5901TIP3    H239195   1.863   0.959   4.777 -1.2130 -1.3537  0.6847
 5902TIP3   OH239196   6.280   6.570  13.721  0.5534 -0.4895 -0.4802
 5902TIP3    H139197   6.203   6.512  13.715  0.2736 -0.3301  1.3667
 5902TIP3    H239198   6.345   6.518  13.767  0.6007  0.3532  0.4093
 5903TIP3   OH239199   1.321   6.168  12.476  0.0535 -0.5860  0.2865
 5903TIP3    H139200   1.248   6.219  12.441  1.0502  2.2702  2.1819
 5903TIP3    H239201   1.337   6.205  12.563  2.4205 -2.5286  0.7422
 5904TIP3   OH239202   5.983   5.926   3.972 -0.2444 -0.2711  0.0954
 5904TIP3    H139203   6.071   5.900   4.001  0.3172  1.2562 -0.1910
 5904TIP3    H239204   5.982   6.021   3.981 -1.1961 -0.0896 -1.7511
 5905TIP3   OH239205   2.468   4.706   1.758  0.1197 -0.2537 -0.4574
 5905TIP3    H139206   2.493   4.622   1.797 -1.8379 -0.2502  0.8686
 5905TIP3    H239207   2.436   4.684   1.671  0.3348 -0.7971 -0.3966
 5906TIP3   OH239208   0.003   1.354   2.927  0.0637 -0.2105 -0.1511
 5906TIP3    H139209   0.041   1.311   2.850 -0.1681  0.4094 -0.6091
 5906TIP3    H239210   0.042   1.441   2.928 -1.4271  0.4805 -0.6977
 5907TIP3   OH239211   5.788   2.383  13.733  0.2520  0.2533 -0.4574
 5907TIP3    H139212   5.874   2.400  13.696  0.2607 -1.9901 -1.5512
 5907TIP3    H239213   5.806   2.359  13.824  0.8277 -0.4777 -0.7537
 5908TIP3   OH239214   0.661   2.706   1.022  0.1293 -0.3669 -0.3182
 5908TIP3    H139215   0.701   2.763   0.956  0.6136  0.1803  0.4267
 5908TIP3    H239216   0.623   2.767   1.086 -0.2259 -0.8836 -0.0311
 5909TIP3   OH239217   3.111   3.975  13.744  0.1430 -0.6327 -0.3825
 5909TIP3    H139218   3.103   3.883  13.769  0.5710 -0.3850  0.6865
 5909TIP3    H239219   3.140   4.020  13.824 -2.8515  0.9009 -0.0871
 5910TIP3   OH239220   4.366   2.545   3.394 -0.4497 -0.0635 -0.0151
 5910TIP3    H139221   4.448   2.496   3.381 -1.0350 -1.1582  0.3446
 5910TIP3    H239222   4.380   2.628   3.348  0.4297 -0.7106 -0.9337
 5911TIP3   OH239223   4.049   5.538   2.623  0.3684 -0.2494 -0.1124
 5911TIP3    H139224   3.967   5.529   2.672  1.6095 -0.3987  1.9793
 5911TIP3    H239225   4.065   5.632   2.620  0.1141 -0.2174 -0.5575
 5912TIP3   OH239226   2.987   6.782  15.304 -0.6629 -0.5382 -0.1286
 5912TIP3    H139227   3.009   6.749  15.391 -0.0162  0.5002  0.1151
 5912TIP3    H239228   2.909   6.836  15.318 -1.1137 -1.1282 -0.3531
 5913TIP3   OH239229   4.199   5.929  14.643 -0.3316 -0.1090  0.2244
 5913TIP3    H139230   4.207   5.834  14.634 -2.7565 -0.2644 -0.6614
 5913TIP3    H239231   4.186   5.943  14.737  2.8416 -0.3666  0.7688
 5914TIP3   OH239232   3.445   4.447   5.575  0.3853  0.4922  0.5298
 5914TIP3    H139233   3.351   4.459   5.583  0.2072 -0.6695  0.2418
 5914TIP3    H239234   3.467   4.379   5.639  0.7824 -0.3137 -0.4482
 5915TIP3   OH239235   4.237   5.885   0.242  0.3842 -0.6748  0.5010
 5915TIP3    H139236   4.272   5.968   0.274 -0.9459  0.5793 -1.1718
 5915TIP3    H239237   4.220   5.900   0.149  0.8185 -3.0732 -0.0022
 5916TIP3   OH239238   5.918   1.567   4.766  0.2324  0.1732  0.5170
 5916TIP3    H139239   5.982   1.523   4.711 -0.1668  1.8607 -1.3433
 5916TIP3    H239240   5.951   1.657   4.775 -1.0791  0.6352  0.8168
 5917TIP3   OH239241   5.336   5.918   3.563  0.1821 -0.9956  0.7749
 5917TIP3    H139242   5.368   5.910   3.653 -1.0363 -0.5381  1.2482
 5917TIP3    H239243   5.283   5.839   3.549  0.5507 -1.1766  0.3739
 5918TIP3   OH239244   1.669   6.511   4.434  0.5378 -0.0914 -0.1529
 5918TIP3    H139245   1.588   6.538   4.477  0.8366 -1.1687  1.1171
 5918TIP3    H239246   1.642   6.444   4.371  0.2925  0.4478 -0.6303
 5919TIP3   OH239247   2.466   2.246  11.955 -0.0944 -0.1248  0.8975
 5919TIP3    H139248   2.533   2.278  12.015 -0.3535 -0.4470  1.3595
 5919TIP3    H239249   2.512   2.232  11.872 -0.0230  1.7050  0.6026
 5920TIP3   OH239250   0.582   1.557   1.206  0.2995 -0.1532 -0.8070
 5920TIP3    H139251   0.619   1.606   1.133 -1.8392 -1.0133 -2.5188
 5920TIP3    H239252   0.518   1.618   1.245  0.2163 -0.3080 -0.7029
 5921TIP3   OH239253   0.501   4.472   0.183  0.0278 -0.4914  0.0640
 5921TIP3    H139254   0.590   4.453   0.211  0.4005 -0.7649 -1.3189
 5921TIP3    H239255   0.469   4.390   0.147 -0.1942  0.0647 -1.0162
 5922TIP3   OH239256   6.531   5.785   4.118  0.0133 -0.5583 -0.7227
 5922TIP3    H139257   6.624   5.805   4.120 -0.1283  0.0249  0.5145
 5922TIP3    H239258   6.489   5.861   4.159 -1.0255 -0.7017 -1.4988
 5923TIP3   OH239259   1.820   0.101  13.518  0.1118  0.0840 -0.0326
 5923TIP3    H139260   1.914   0.093  13.501  0.2102 -0.6647  0.8725
 5923TIP3    H239261   1.802   0.194  13.507  1.2458  0.4685  1.2729
 5924TIP3   OH239262   0.488   5.124   1.599 -0.3000  0.5818 -0.4112
 5924TIP3    H139263   0.545   5.193   1.635 -2.5923  2.0437  0.4772
 5924TIP3    H239264   0.440   5.091   1.675  0.0064 -1.2678 -1.0205
 5925TIP3   OH239265   1.311   0.763  12.266 -0.1381  0.2084 -0.1901
 5925TIP3    H139266   1.305   0.852  12.232 -1.5550 -0.3071 -1.3562
 5925TIP3    H239267   1.377   0.721  12.210  0.0221  0.3299 -0.0925
 5926TIP3   OH239268   2.079   2.648   0.387 -0.2458 -0.0195 -0.2283
 5926TIP3    H139269   2.110   2.581   0.327  0.5158 -0.7877  0.9872
 5926TIP3    H239270   2.061   2.601   0.468 -0.2092  1.1600  0.4818
 5927TIP3   OH239271   1.548   3.139  15.131  0.4156 -0.3527 -0.3210
 5927TIP3    H139272   1.480   3.160  15.195  0.5965  0.9957 -0.5625
 5927TIP3    H239273   1.513   3.168  15.048  0.5721 -1.2574 -0.7156
 5928TIP3   OH239274   0.095   1.424   0.662  0.0217  0.0343 -0.3876
 5928TIP3    H139275   0.138   1.345   0.629 -0.1445 -0.8525  1.4956
 5928TIP3    H239276   0.139   1.444   0.744  0.0458  1.9110 -0.8193
 5929TIP3   OH239277   5.735   1.092   0.667 -0.1508 -0.0179  0.3621
 5929TIP3    H139278   5.725   1.002   0.698 -1.2357  0.2423  0.7988
 5929TIP3    H239279   5.651   1.114   0.627  1.1497 -0.2464 -2.5822
 5930TIP3   OH239280   4.284   0.005  13.093  0.3429 -0.2963 -0.6628
 5930TIP3    H139281   4.189  -0.009  13.092  0.4370 -0.9128 -1.2434
 5930TIP3    H239282   4.302   0.062  13.018  0.3547  0.3695 -0.1593
 5931TIP3   OH239283   4.458   5.300  16.575  0.0437  0.4064 -0.3358
 5931TIP3    H139284   4.478   5.332  16.663 -0.7951 -2.3460  0.9041
 5931TIP3    H239285   4.366   5.321  16.563 -0.5163 -1.4678  0.4913
 5932TIP3   OH239286   5.049   6.175   3.775 -0.0629 -0.0220 -0.1772
 5932TIP3    H139287   5.092   6.258   3.757 -0.5253  0.0320 -1.0583
 5932TIP3    H239288   5.008   6.151   3.692  0.9510 -1.6628 -0.2169
 5933TIP3   OH239289   1.194   2.396   1.136  0.0842  0.2408 -0.3281
 5933TIP3    H139290   1.290   2.397   1.133  0.2135 -2.8153  1.1827
 5933TIP3    H239291   1.168   2.330   1.072 -0.8312 -0.9922  1.2462
 5934TIP3   OH239292   1.892   6.064   2.489 -0.0168 -0.2437 -0.1296
 5934TIP3    H139293   1.864   6.153   2.467  1.0335 -0.0503 -0.6963
 5934TIP3    H239294   1.827   6.008   2.447  0.3184  0.2119 -1.2780
 5935TIP3   OH239295   4.158   3.347   3.901 -0.1108 -0.3749 -0.5939
 5935TIP3    H139296   4.237   3.350   3.955 -0.1566 -1.0320 -0.4920
 5935TIP3    H239297   4.185   3.388   3.818 -0.0627  0.6765 -0.0642
 5936TIP3   OH239298   1.773   2.052  13.370 -0.5386  0.1770  0.3319
 5936TIP3    H139299   1.749   2.137  13.333 -0.9487  0.3343  0.9680
 5936TIP3    H239300   1.704   2.032  13.432  0.6594  0.3717  1.7543
 5937TIP3   OH239301   0.284   0.862  16.327 -0.2621 -0.5364  0.1617
 5937TIP3    H139302   0.236   0.780  16.320  2.2831 -2.0048 -0.8489
 5937TIP3    H239303   0.359   0.842  16.383  1.3747  0.5685 -1.5629
 5938TIP3   OH239304   3.849   4.156  11.690 -0.4577 -0.1995  0.5375
 5938TIP3    H139305   3.888   4.119  11.610  0.8809  0.4466  0.8697
 5938TIP3    H239306   3.817   4.243  11.663 -1.4698 -0.6323  0.3252
 5939TIP3   OH239307   3.965   4.832  12.024  0.0324  0.2198 -0.1191
 5939TIP3    H139308   4.001   4.743  12.018  0.3723  0.3727 -0.3771
 5939TIP3    H239309   3.985   4.859  12.114 -1.3317 -0.4898  0.4122
 5940TIP3   OH239310   1.431   1.045  14.537 -0.1963  0.2715 -0.1346
 5940TIP3    H139311   1.491   0.978  14.569  2.1866  1.9499 -0.9404
 5940TIP3    H239312   1.383   1.002  14.465  0.2636 -0.9870  0.2951
 5941TIP3   OH239313   2.299   4.484  14.757 -0.5701 -0.0574  0.1082
 5941TIP3    H139314   2.381   4.522  14.725 -0.4773  0.7275  1.2499
 5941TIP3    H239315   2.319   4.391  14.767  0.2750  0.1767  0.6614
 5942TIP3   OH239316   6.286   4.827   3.449  0.0064 -0.1717  0.0042
 5942TIP3    H139317   6.328   4.876   3.378  2.1769  1.9580  2.6433
 5942TIP3    H239318   6.311   4.736   3.433 -0.1488  0.1531 -2.3285
 5943TIP3   OH239319   0.385   6.807   2.544 -0.3681 -0.0852  0.2361
 5943TIP3    H139320   0.317   6.743   2.563 -1.6025  0.9755 -0.5118
 5943TIP3    H239321   0.357   6.886   2.590  1.0991 -0.0405  1.0914
 5944TIP3   OH239322   5.339   6.582   1.720 -0.3848 -0.2486 -0.3698
 5944TIP3    H139323   5.312   6.497   1.684  0.3275 -1.0066  0.8306
 5944TIP3    H239324   5.260   6.636   1.716 -0.8802 -1.0103 -1.0117
 5945TIP3   OH239325   5.033   6.637  12.150  0.3958  0.2407  0.3073
 5945TIP3    H139326   5.004   6.559  12.197 -0.8270  0.4577 -0.0712
 5945TIP3    H239327   5.070   6.604  12.068  1.7540 -0.0761  1.0344
 5946TIP3   OH239328   4.236   2.746   1.119 -0.1633 -0.5951 -0.5302
 5946TIP3    H139329   4.186   2.666   1.136 -0.3319 -0.0375  1.7276
 5946TIP3    H239330   4.327   2.722   1.137 -0.1768 -0.3533 -0.1460
 5947TIP3   OH239331   4.498   5.047   5.256 -0.1473  0.1413 -0.2924
 5947TIP3    H139332   4.522   5.027   5.346  0.7380 -0.4246 -0.6493
 5947TIP3    H239333   4.519   5.140   5.246 -0.6721  0.3148  0.2210
 5948TIP3   OH239334   5.477   2.455   5.318  0.0157 -0.2640  0.4902
 5948TIP3    H139335   5.540   2.385   5.300  0.1464  0.0163 -0.2094
 5948TIP3    H239336   5.505   2.526   5.260 -0.6564  0.0409  0.5373
 5949TIP3   OH239337   6.254   4.515  15.869 -0.6086 -0.1261  0.0336
 5949TIP3    H139338   6.244   4.600  15.826 -0.0702 -0.4539 -0.7653
 5949TIP3    H239339   6.266   4.453  15.796 -2.5066 -1.1115  0.5257
 5950TIP3   OH239340   1.799   2.350  14.372  0.4804 -0.6055  0.8283
 5950TIP3    H139341   1.814   2.440  14.343  1.5308 -0.9063  0.4343
 5950TIP3    H239342   1.886   2.310  14.376 -0.1138 -2.2288 -1.1021
 5951TIP3   OH239343   0.384   6.700  12.964  0.1962  0.1387  0.5276
 5951TIP3    H139344   0.301   6.652  12.971 -0.3935  0.9542 -0.6335
 5951TIP3    H239345   0.364   6.787  12.997  0.6464  0.2701  0.4534
 5952TIP3   OH239346   6.350   0.942  13.730 -0.4660 -0.1223  0.4545
 5952TIP3    H139347   6.409   0.933  13.805  2.0040  0.1708 -1.4312
 5952TIP3    H239348   6.332   1.036  13.725 -0.9837 -0.1918  0.9196
 5953TIP3   OH239349   6.621   2.265   2.082  0.0498 -0.2848  0.8302
 5953TIP3    H139350   6.530   2.293   2.066  0.0833  0.3344  1.7057
 5953TIP3    H239351   6.671   2.346   2.080  0.2949 -0.4027  2.3787
 5954TIP3   OH239352   0.013   6.145  10.528  0.1854  0.1811 -0.3035
 5954TIP3    H139353  -0.001   6.192  10.446 -0.1924 -0.4421 -0.6023
 5954TIP3    H239354  -0.028   6.060  10.514 -1.0545  0.5377  1.0015
 5955TIP3   OH239355   4.053   0.448  13.212  0.1977 -0.0074 -1.0297
 5955TIP3    H139356   3.964   0.454  13.247  0.3842 -3.8346  0.3514
 5955TIP3    H239357   4.046   0.480  13.122 -2.4487  0.3472 -0.7262
 5956TIP3   OH239358   4.707   0.823   2.024 -0.5630 -0.5103  1.1622
 5956TIP3    H139359   4.695   0.916   2.041 -1.4385 -0.3151 -0.4557
 5956TIP3    H239360   4.799   0.814   1.999 -0.7542  0.1166  0.1973
 5957TIP3   OH239361   4.040   0.686   1.091 -0.3875 -0.0650 -0.1297
 5957TIP3    H139362   4.008   0.723   1.173  0.6363  0.8245 -0.1252
 5957TIP3    H239363   4.052   0.761   1.033 -2.0251 -0.7527 -1.4526
 5958TIP3   OH239364   2.321   5.467  15.145 -0.3005  0.2867 -0.5076
 5958TIP3    H139365   2.266   5.391  15.165 -0.4723  0.1800 -1.3634
 5958TIP3    H239366   2.401   5.454  15.195 -0.6520 -0.0658 -0.0423
 5959TIP3   OH239367   0.837   0.052   4.222 -0.0803 -0.2088  0.0912
 5959TIP3    H139368   0.857   0.058   4.315 -1.2613 -2.2399  0.5013
 5959TIP3    H239369   0.921   0.067   4.179  0.5152  0.5617  1.4807
 5960TIP3   OH239370   2.088   1.300  13.397  0.1914  0.4810 -0.2376
 5960TIP3    H139371   2.040   1.383  13.399 -0.3115  0.1782  0.5891
 5960TIP3    H239372   2.110   1.287  13.304 -0.3057  1.2040 -0.4609
 5961TIP3   OH239373   3.561   0.511   5.684 -0.1712  0.0510  0.8426
 5961TIP3    H139374   3.547   0.451   5.610  0.2811 -1.0796  1.6513
 5961TIP3    H239375   3.625   0.466   5.739  1.2613  1.9575  0.7470
 5962TIP3   OH239376   0.174   5.360  11.297 -0.8067 -0.1915 -0.2042
 5962TIP3    H139377   0.212   5.447  11.285 -0.3859 -0.6885 -2.9414
 5962TIP3    H239378   0.084   5.377  11.324 -1.9758  1.2483 -4.5888
 5963TIP3   OH239379   1.759   5.872  15.525  0.6682 -0.6695  0.2438
 5963TIP3    H139380   1.683   5.831  15.568 -1.8564  1.6223 -1.8079
 5963TIP3    H239381   1.774   5.818  15.448 -0.1975  0.0071 -0.4116
 5964TIP3   OH239382   3.186   0.445  16.580 -0.4523  0.0244  0.4611
 5964TIP3    H139383   3.142   0.463  16.497  0.2131  0.9510  0.3048
 5964TIP3    H239384   3.186   0.529  16.626 -0.6945 -0.4516  1.3520
 5965TIP3   OH239385   4.156   3.497  11.372 -0.1670 -0.5484 -0.6534
 5965TIP3    H139386   4.121   3.552  11.301  0.1644  0.4492 -0.0398
 5965TIP3    H239387   4.127   3.408  11.349 -0.7751 -0.1148 -1.5986
 5966TIP3   OH239388   4.710   0.581   3.711  0.1313  0.1817 -0.4204
 5966TIP3    H139389   4.629   0.554   3.669  0.4776 -0.7921 -0.4828
 5966TIP3    H239390   4.751   0.499   3.739  0.9370  0.6827 -0.1051
 5967TIP3   OH239391   4.583   5.597   1.552  0.1343 -0.3668  0.6308
 5967TIP3    H139392   4.535   5.594   1.635  0.5503  2.3827  1.0142
 5967TIP3    H239393   4.673   5.615   1.577  0.4990 -0.7591 -0.3690
 5968TIP3   OH239394   2.115   0.129   5.030  0.1597  0.5387 -1.0109
 5968TIP3    H139395   2.040   0.135   5.090 -0.0134  0.6203 -1.2376
 5968TIP3    H239396   2.078   0.140   4.943  0.1542 -1.5422 -1.2778
 5969TIP3   OH239397   5.208   4.719  13.127  0.4726  0.4245  0.4886
 5969TIP3    H139398   5.246   4.633  13.109 -0.8439  0.2457 -1.6208
 5969TIP3    H239399   5.122   4.699  13.164  1.0370  0.8377  2.0462
 5970TIP3   OH239400   6.570   5.013   6.014 -0.0211  0.2269  0.0529
 5970TIP3    H139401   6.488   5.053   6.043 -0.7768 -0.5425 -0.9831
 5970TIP3    H239402   6.545   4.924   5.988  0.9783  0.2742 -1.0964
 5971TIP3   OH239403   4.484   2.137   3.658 -0.4392 -0.1310 -0.8091
 5971TIP3    H139404   4.516   2.218   3.618 -0.8619  1.0192  1.1385
 5971TIP3    H239405   4.557   2.075   3.648  0.7332  1.1573 -0.3472
 5972TIP3   OH239406   5.370   1.757   4.066 -0.0689 -0.2286 -0.7507
 5972TIP3    H139407   5.379   1.836   4.120  1.5817 -1.6075  1.1044
 5972TIP3    H239408   5.303   1.705   4.111 -0.4806 -0.2868 -1.4352
 5973TIP3   OH239409   4.157   3.764   1.058  0.1657  0.5739 -0.2611
 5973TIP3    H139410   4.158   3.855   1.090 -0.3112  1.5003 -2.7366
 5973TIP3    H239411   4.065   3.746   1.039  0.6168  0.7795 -2.9033
 5974TIP3   OH239412   3.226   1.958   4.477  0.3112  0.1483  0.3872
 5974TIP3    H139413   3.296   1.986   4.418  1.4589 -0.4273  1.4515
 5974TIP3    H239414   3.185   2.040   4.506 -1.4991  0.3954 -2.6027
 5975TIP3   OH239415   6.144   1.524   3.923 -0.2314  0.1517 -0.2106
 5975TIP3    H139416   6.087   1.589   3.965 -0.6215 -0.2024 -0.1929
 5975TIP3    H239417   6.094   1.442   3.927  0.5314 -0.2859  0.3531
 5976TIP3   OH239418   3.120   3.630  15.944  0.0589 -0.0547  0.1606
 5976TIP3    H139419   3.071   3.555  15.910 -0.8538  0.7695 -0.3642
 5976TIP3    H239420   3.177   3.656  15.872 -0.3465  0.3757 -0.0062
 5977TIP3   OH239421   5.351   4.932   4.189  0.0869  0.0832 -0.3829
 5977TIP3    H139422   5.272   4.948   4.241 -0.2424  2.1213 -1.4697
 5977TIP3    H239423   5.422   4.931   4.254 -0.2728  2.9435  0.1493
 5978TIP3   OH239424   1.232   2.082  14.857  0.4523  0.3163 -0.2847
 5978TIP3    H139425   1.150   2.076  14.906  1.4330  0.9760  1.4902
 5978TIP3    H239426   1.223   2.017  14.787  0.0670 -2.6044  2.3766
 5979TIP3   OH239427   5.157   5.287   2.515  0.1653 -0.0123  0.3033
 5979TIP3    H139428   5.223   5.220   2.528  1.1884  1.2843  1.9848
 5979TIP3    H239429   5.198   5.349   2.454 -0.8688 -1.0028 -1.4439
 5980TIP3   OH239430   6.582   0.560  13.438 -0.3802  0.3986 -0.4754
 5980TIP3    H139431   6.638   0.573  13.362  0.0433  2.2827  0.1435
 5980TIP3    H239432   6.494   0.554  13.401  0.0579 -1.1696 -1.3190
 5981TIP3   OH239433   0.088   4.050   6.578 -0.2418  0.4981  0.3631
 5981TIP3    H139434   0.170   4.039   6.625  0.0528  0.3955 -0.1782
 5981TIP3    H239435   0.022   4.012   6.636  0.4014 -1.6431 -0.2894
 5982TIP3   OH239436   5.976   5.600  13.637 -0.1716 -0.4899  0.4334
 5982TIP3    H139437   5.965   5.599  13.542  1.2281  2.4120  0.1934
 5982TIP3    H239438   5.890   5.628  13.671  0.1412  1.3260 -0.1932
 5983TIP3   OH239439   4.594   2.412   4.707 -0.4381 -1.0978 -0.1448
 5983TIP3    H139440   4.668   2.378   4.757  0.7185  0.0673 -1.0400
 5983TIP3    H239441   4.553   2.476   4.765  1.7261  1.2798 -1.1213
 5984TIP3   OH239442   2.952   0.762   5.614  0.5434 -0.1577 -0.6188
 5984TIP3    H139443   2.884   0.701   5.583  0.8935  0.0955 -1.9012
 5984TIP3    H239444   2.903   0.831   5.658  0.0834 -0.9260  0.0919
 5985TIP3   OH239445   2.724   3.656   5.967 -0.1171  0.3329  1.1437
 5985TIP3    H139446   2.819   3.653   5.981  0.1714  2.1570 -0.2533
 5985TIP3    H239447   2.701   3.748   5.979 -1.3879  0.2679 -0.6215
 5986TIP3   OH239448   4.115   2.851   4.606  0.2613 -0.5448  0.0944
 5986TIP3    H139449   4.125   2.796   4.529  0.7435 -0.4807  0.1103
 5986TIP3    H239450   4.050   2.917   4.580 -0.9825 -1.6418  0.3765
 5987TIP3   OH239451   2.616   0.813  14.769 -0.1983  0.4310  0.5530
 5987TIP3    H139452   2.653   0.901  14.768 -1.0783  0.8005  0.5972
 5987TIP3    H239453   2.628   0.782  14.679  0.0348  0.6204  0.5162
 5988TIP3   OH239454   6.420   5.816  15.099  0.0594  0.2144 -0.3890
 5988TIP3    H139455   6.511   5.795  15.120  0.0628  0.8816  0.2718
 5988TIP3    H239456   6.419   5.910  15.084 -0.4527  0.1503 -0.7909
 5989TIP3   OH239457   4.213   5.799  13.187 -0.6872 -0.5182 -0.1324
 5989TIP3    H139458   4.263   5.864  13.237  0.6582 -1.0830 -0.6981
 5989TIP3    H239459   4.273   5.725  13.179 -1.8639 -1.4628 -0.3074
 5990TIP3   OH239460   1.016   2.228  14.183  0.4413 -0.2717  0.4502
 5990TIP3    H139461   0.958   2.269  14.120  1.4681  1.3226  0.5040
 5990TIP3    H239462   1.063   2.161  14.134 -2.0933 -2.2647  0.6283
 5991TIP3   OH239463   1.267   4.685  15.729 -0.0194 -0.1424 -0.2138
 5991TIP3    H139464   1.247   4.778  15.731  0.1554 -0.0582 -1.6852
 5991TIP3    H239465   1.329   4.675  15.657  1.6692 -1.0804  1.3179
 5992TIP3   OH239466   1.925   2.875   4.249 -0.3177 -0.2843  0.1188
 5992TIP3    H139467   1.910   2.969   4.256  1.5253 -0.0070  0.6522
 5992TIP3    H239468   1.845   2.841   4.209 -0.4578  1.6897 -1.3663
 5993TIP3   OH239469   4.564   5.615  11.411  0.0268 -0.2889  0.1956
 5993TIP3    H139470   4.585   5.547  11.346  1.1777  0.3573 -0.1386
 5993TIP3    H239471   4.632   5.682  11.397 -0.4532  0.4225  1.2460
 5994TIP3   OH239472   5.740   0.539  16.364 -0.4063 -0.2219  0.0858
 5994TIP3    H139473   5.806   0.482  16.324 -0.5121 -0.0572 -0.3363
 5994TIP3    H239474   5.756   0.625  16.325 -0.6596 -0.1084  0.2306
 5995TIP3   OH239475   6.816   4.487  16.249  0.1403  0.5814 -0.5013
 5995TIP3    H139476   6.893   4.538  16.222  0.1512  1.0749  0.4380
 5995TIP3    H239477   6.825   4.403  16.204  1.3805  0.5300 -0.1496
 5996TIP3   OH239478   5.801   4.944   1.221  0.7630 -0.3929 -0.5689
 5996TIP3    H139479   5.774   5.017   1.278 -2.1987 -0.1332 -2.2161
 5996TIP3    H239480   5.862   4.983   1.159  1.7064 -0.0466  0.5523
 5997TIP3   OH239481   4.255   5.142  13.380 -0.5980 -0.1726  0.3979
 5997TIP3    H139482   4.182   5.203  13.392  1.2604  2.2012  0.0344
 5997TIP3    H239483   4.226   5.083  13.311 -2.6342 -0.0313  1.0977
 5998TIP3   OH239484   0.547   3.311   1.549 -0.2717 -0.4870  0.2785
 5998TIP3    H139485   0.589   3.332   1.466 -3.3028  0.5436 -1.0473
 5998TIP3    H239486   0.536   3.216   1.547 -1.0071 -0.3858 -0.8503
 5999TIP3   OH239487   0.423   1.082   3.839  0.5889 -0.3196  0.4284
 5999TIP3    H139488   0.484   1.086   3.913  0.8377  0.7505  0.1728
 5999TIP3    H239489   0.374   1.002   3.854 -0.3476  0.5884  2.5464
 6000TIP3   OH239490   2.149   1.515  11.759  0.2833  0.3417  0.4662
 6000TIP3    H139491   2.069   1.546  11.800 -0.8683 -0.0313 -1.4245
 6000TIP3    H239492   2.192   1.594  11.725  0.7605  0.5446  1.5165
 6001TIP3   OH239493   0.195   4.115  13.263 -0.2096 -0.6243 -0.2644
 6001TIP3    H139494   0.142   4.135  13.186 -1.0042 -2.1861 -0.1231
 6001TIP3    H239495   0.175   4.024  13.284 -0.7839  0.0967  2.4344
 6002TIP3   OH239496   3.607   2.960   4.579  0.5631 -0.3675 -0.2067
 6002TIP3    H139497   3.519   2.992   4.559  0.2742 -0.0789  1.5006
 6002TIP3    H239498   3.594   2.870   4.610  0.9462 -0.5933 -0.6898
 6003TIP3   OH239499   1.831   0.286  11.417  0.4845  0.4053  0.3433
 6003TIP3    H139500   1.787   0.220  11.470 -0.8301 -0.2498 -1.4886
 6003TIP3    H239501   1.892   0.236  11.362  1.2798  0.9795  0.7062
 6004TIP3   OH239502   1.142   6.410  13.693  0.2514 -0.1313  0.2661
 6004TIP3    H139503   1.129   6.316  13.700  0.5486 -0.1358  0.7787
 6004TIP3    H239504   1.178   6.436  13.778  0.5933  0.3752 -0.0279
 6005TIP3   OH239505   0.639   4.079   0.807  0.0733 -0.2136 -0.7028
 6005TIP3    H139506   0.714   4.072   0.867  0.4850  1.0559 -1.0471
 6005TIP3    H239507   0.566   4.039   0.855  0.9537 -1.3704 -0.3260
 6006TIP3   OH239508   3.724   5.701   3.394  0.1052  0.1396  0.1903
 6006TIP3    H139509   3.716   5.796   3.392  0.0808  0.1033 -2.0159
 6006TIP3    H239510   3.805   5.682   3.347 -1.5405 -1.0770 -2.2538
 6007TIP3   OH239511   3.793   4.056   0.198  0.3336 -0.1512  0.0516
 6007TIP3    H139512   3.818   4.148   0.196 -0.5207  0.0725 -0.9910
 6007TIP3    H239513   3.765   4.037   0.108 -1.2963 -0.9031  0.6906
 6008TIP3   OH239514   2.561   1.260  13.288 -0.0693 -0.4541 -0.3014
 6008TIP3    H139515   2.573   1.199  13.360 -2.0778  0.9805  1.3151
 6008TIP3    H239516   2.563   1.206  13.209  1.5626 -2.1288  0.8535
 6009TIP3   OH239517   0.563   3.764   6.070 -0.3978  0.5011  0.3890
 6009TIP3    H139518   0.564   3.716   6.153  0.0894 -1.0241 -0.4847
 6009TIP3    H239519   0.472   3.756   6.039 -0.0888 -0.6809 -0.2231
 6010TIP3   OH239520   4.712   6.691  13.945 -0.2284 -0.6198 -0.5039
 6010TIP3    H139521   4.671   6.760  13.996 -1.5536 -1.1015 -0.8914
 6010TIP3    H239522   4.641   6.653  13.894  0.2722 -2.9104  0.4236
 6011TIP3   OH239523   5.262   3.159   2.470 -0.5747  0.2023 -0.2297
 6011TIP3    H139524   5.314   3.107   2.530 -1.3945 -1.6245 -1.0833
 6011TIP3    H239525   5.218   3.223   2.526  2.9238  2.1624  0.4673
 6012TIP3   OH239526   6.016   0.984  17.228  0.6793  0.0091  0.1361
 6012TIP3    H139527   6.033   0.931  17.306  0.7325  0.5386  0.4848
 6012TIP3    H239528   5.986   0.921  17.162  1.1843 -0.5124  0.4078
 6013TIP3   OH239529   1.337   5.378   5.190 -0.0349  0.1106  0.0161
 6013TIP3    H139530   1.256   5.344   5.226 -0.8414  0.2440 -1.6615
 6013TIP3    H239531   1.351   5.460   5.237 -2.2178  1.3654 -1.4442
 6014TIP3   OH239532   0.974   3.883  17.270  0.4498  0.5594  0.9446
 6014TIP3    H139533   0.949   3.937  17.345  1.2873  2.2139  0.0408
 6014TIP3    H239534   0.946   3.933  17.194  1.3289 -0.2293  0.0894
 6015TIP3   OH239535   1.121   5.154   6.708  0.4033 -0.0864 -0.2886
 6015TIP3    H139536   1.137   5.224   6.771  1.6285 -0.6511  0.0418
 6015TIP3    H239537   1.027   5.157   6.692  0.2744  0.8706  0.6207
 6016TIP3   OH239538   3.721   6.806   6.065  0.5970 -0.7963  0.5103
 6016TIP3    H139539   3.694   6.893   6.035  2.3579  0.4731  2.4394
 6016TIP3    H239540   3.801   6.788   6.016  0.8014 -0.8699  0.8711
 6017TIP3   OH239541   2.048   2.383  16.131  0.3904 -0.2471 -0.3240
 6017TIP3    H139542   2.126   2.394  16.185  0.7651 -2.6486 -0.3219
 6017TIP3    H239543   2.070   2.426  16.048  0.6016  1.5889  0.6433
 6018TIP3   OH239544   3.383   4.524  15.934  0.1077  0.7025 -0.0904
 6018TIP3    H139545   3.376   4.551  15.842 -1.6474 -0.5194 -0.3376
 6018TIP3    H239546   3.292   4.513  15.963  0.6899 -1.5039  1.0148
 6019TIP3   OH239547   3.462   5.985  15.037 -0.3590  0.6830 -0.1655
 6019TIP3    H139548   3.440   6.070  15.075 -1.3845 -0.7809  2.6429
 6019TIP3    H239549   3.378   5.944  15.019  0.1237 -0.6068  0.5085
 6020TIP3   OH239550   1.315   5.912   4.571 -0.2624 -0.0371  0.1340
 6020TIP3    H139551   1.242   5.933   4.630 -2.7385 -0.7842 -2.5249
 6020TIP3    H239552   1.319   5.817   4.571  0.1452 -0.0217 -0.3694
 6021TIP3   OH239553   0.736   5.556  16.475  0.7884 -0.2916  0.1908
 6021TIP3    H139554   0.666   5.491  16.477  1.6048 -1.3116 -2.1362
 6021TIP3    H239555   0.773   5.555  16.563 -3.7708  2.1951  2.2819
 6022TIP3   OH239556   3.406   5.812  12.141 -0.8892 -0.5730 -0.1552
 6022TIP3    H139557   3.422   5.821  12.235  2.1369 -2.4598 -0.4257
 6022TIP3    H239558   3.487   5.777  12.106 -2.1846 -0.5072 -3.4176
 6023TIP3   OH239559   4.390   3.761   3.502  0.0513 -0.0270 -1.1093
 6023TIP3    H139560   4.321   3.828   3.503  0.5271  0.4643 -1.1253
 6023TIP3    H239561   4.346   3.683   3.469 -0.8392 -0.0942  0.2228
 6024TIP3   OH239562   3.984   6.797  12.805  0.1659 -0.2230 -0.7597
 6024TIP3    H139563   3.958   6.718  12.852  0.8632  0.3407  0.6183
 6024TIP3    H239564   3.914   6.860  12.822  0.3549 -0.0608 -0.5706
 6025TIP3   OH239565   4.641   1.603   3.534 -0.3655  0.4305 -0.1724
 6025TIP3    H139566   4.572   1.557   3.485 -0.0341 -1.6558  1.2191
 6025TIP3    H239567   4.595   1.647   3.606 -0.4775  0.7199 -0.4226
 6026TIP3   OH239568   1.923   4.455  14.704  0.3168  0.2159  0.1029
 6026TIP3    H139569   1.925   4.413  14.790 -2.9171  0.2615  0.2426
 6026TIP3    H239570   1.912   4.548  14.722 -0.8253  0.1754 -0.3592
 6027TIP3   OH239571   6.715   0.639  11.315  0.4780  0.7407  0.2425
 6027TIP3    H139572   6.630   0.620  11.277  0.7804 -0.7446  0.2718
 6027TIP3    H239573   6.699   0.713  11.374 -0.3002  2.0092 -1.5084
 6028TIP3   OH239574   5.721   2.441   2.261 -0.1799  0.0952  0.3949
 6028TIP3    H139575   5.625   2.444   2.260 -0.1953  0.6414  2.2605
 6028TIP3    H239576   5.747   2.505   2.194 -1.1154 -0.4346 -0.4904
 6029TIP3   OH239577   4.596   3.833  13.013 -0.3518  0.2323 -0.0601
 6029TIP3    H139578   4.676   3.817  13.063 -0.9397  2.5521  1.7197
 6029TIP3    H239579   4.546   3.752  13.023  0.2452  0.0555  1.8058
 6030TIP3   OH239580   4.578   6.740  14.297  0.0702  0.3147 -0.1003
 6030TIP3    H139581   4.500   6.773  14.252  0.3733 -1.2089 -1.8424
 6030TIP3    H239582   4.569   6.645  14.292  1.8862  0.1323 -0.0571
 6031TIP3   OH239583   0.035   2.645   2.376 -0.2235  0.5708  0.2409
 6031TIP3    H139584   0.102   2.691   2.427  1.6132 -0.0575 -1.5702
 6031TIP3    H239585  -0.003   2.713   2.320  1.3861  0.2406 -1.2852
 6032TIP3   OH239586   4.040   2.920   0.414  0.3855  0.2513 -0.2212
 6032TIP3    H139587   4.091   2.847   0.378 -0.4192 -0.6022  0.3193
 6032TIP3    H239588   3.994   2.957   0.338  0.4314 -0.1082 -0.4266
 6033TIP3   OH239589   1.853   2.033   3.446  0.1155  0.1447 -0.3663
 6033TIP3    H139590   1.900   2.060   3.367 -1.1929 -0.1771 -1.2473
 6033TIP3    H239591   1.923   2.018   3.510  1.1692  0.6317 -1.3747
 6034TIP3   OH239592   6.315   5.005  13.146  0.5409 -0.3242  0.4393
 6034TIP3    H139593   6.352   4.954  13.218 -1.5923  1.0657  2.6228
 6034TIP3    H239594   6.337   5.096  13.167 -0.5777  0.1485 -0.3667
 6035TIP3   OH239595   0.743   1.864   1.290 -0.2450  0.2658 -0.1648
 6035TIP3    H139596   0.819   1.816   1.256 -1.2733 -1.6920  0.2388
 6035TIP3    H239597   0.726   1.931   1.224  0.7763 -0.3709 -1.1032
 6036TIP3   OH239598   3.779   0.032  16.841 -0.2076  0.4593  0.0552
 6036TIP3    H139599   3.744  -0.046  16.884 -0.3135 -0.2029 -1.2035
 6036TIP3    H239600   3.702   0.076  16.804 -0.2615  1.7030  1.6109
 6037TIP3   OH239601   3.610   0.537   2.453 -0.1277  0.0130  0.3155
 6037TIP3    H139602   3.601   0.622   2.496 -0.0410 -0.0054  0.3702
 6037TIP3    H239603   3.528   0.491   2.472 -1.2944  1.0833 -1.9235
 6038TIP3   OH239604   3.590   2.277  16.247 -0.3399  0.4830  0.6709
 6038TIP3    H139605   3.651   2.281  16.321  0.3131  0.4498  0.1300
 6038TIP3    H239606   3.631   2.216  16.185 -0.7085  0.8014  0.1105
 6039TIP3   OH239607   2.358   2.435  12.547  0.0213 -0.3490 -0.1838
 6039TIP3    H139608   2.315   2.516  12.575  0.2150 -0.9582  2.0002
 6039TIP3    H239609   2.446   2.463  12.520  0.2321  0.1314  0.9600
 6040TIP3   OH239610   4.786   0.926  16.127 -0.0890 -0.3470  0.7153
 6040TIP3    H139611   4.781   0.939  16.222  0.4391  0.8552  0.5912
 6040TIP3    H239612   4.875   0.896  16.112  0.4682  1.4309  0.3913
 6041TIP3   OH239613   4.067   0.096  11.794  0.3944 -0.1845  0.0457
 6041TIP3    H139614   3.996   0.049  11.838  0.5534 -1.4126 -0.9774
 6041TIP3    H239615   4.069   0.059  11.706  0.7310  1.5412 -0.6848
 6042TIP3   OH239616   5.840   4.323  15.240 -0.1786  0.1441 -0.3184
 6042TIP3    H139617   5.873   4.397  15.291  0.5889 -1.5079  1.6504
 6042TIP3    H239618   5.889   4.327  15.158  0.1568  1.5480 -0.0694
 6043TIP3   OH239619   4.761   0.748  11.922  0.4667 -0.1798  0.0655
 6043TIP3    H139620   4.781   0.746  12.015  2.1069 -2.2599 -0.2889
 6043TIP3    H239621   4.843   0.723  11.879 -0.6420 -0.6807 -1.8466
 6044TIP3   OH239622   0.441   4.194  12.890 -0.2746  0.3150  0.6167
 6044TIP3    H139623   0.417   4.228  12.976  0.6387  2.4958  0.0409
 6044TIP3    H239624   0.537   4.193  12.891 -0.2713 -0.0522 -0.2162
 6045TIP3   OH239625   3.479   0.350   3.141  0.3445  0.4378  0.6947
 6045TIP3    H139626   3.433   0.273   3.106  0.8759 -0.4201  1.8646
 6045TIP3    H239627   3.504   0.399   3.063  0.4590 -0.8419 -0.0968
 6046TIP3   OH239628   3.682   1.628  16.388  0.1334  0.2853 -0.1627
 6046TIP3    H139629   3.768   1.632  16.430 -0.1307 -0.7504  0.4719
 6046TIP3    H239630   3.619   1.636  16.460 -0.3116  1.5952 -0.6772
 6047TIP3   OH239631   6.215   2.934   0.920  0.3309  0.2341  0.1812
 6047TIP3    H139632   6.284   2.993   0.888  0.6992 -1.5638 -2.6331
 6047TIP3    H239633   6.133   2.975   0.891  0.5304 -0.0636 -0.8567
 6048TIP3   OH239634   4.212   0.979   0.016  0.3915  0.1798  0.3756
 6048TIP3    H139635   4.156   1.056   0.032 -0.7989 -0.3090 -1.3039
 6048TIP3    H239636   4.244   0.991  -0.074  0.6188 -1.0255  0.2883
 6049TIP3   OH239637   2.387   3.133  11.728  0.5833 -0.3523 -0.4592
 6049TIP3    H139638   2.415   3.112  11.639  1.0558  0.4273 -0.4963
 6049TIP3    H239639   2.431   3.215  11.749 -2.1014  1.1929 -0.6978
 6050TIP3   OH239640   0.151   0.110  15.476 -0.7030 -0.3260 -0.6649
 6050TIP3    H139641   0.164   0.050  15.550 -0.4404 -0.3702 -0.7479
 6050TIP3    H239642   0.141   0.052  15.400 -0.4040 -0.2621 -0.7510
 6051TIP3   OH239643   0.912   3.171  15.165  0.4059 -0.2819 -0.1192
 6051TIP3    H139644   0.923   3.206  15.077 -0.4633 -0.5852 -0.3580
 6051TIP3    H239645   0.959   3.232  15.222  1.9642 -0.7380 -0.9193
 6052TIP3   OH239646   6.049   6.664   4.904 -0.6759 -0.3181  0.4542
 6052TIP3    H139647   5.970   6.665   4.958 -1.8420 -1.2835 -1.1880
 6052TIP3    H239648   6.048   6.748   4.859 -1.0927 -0.5661 -0.0071
 6053TIP3   OH239649   3.414   3.826   6.080  0.0644  0.3822 -0.2516
 6053TIP3    H139650   3.409   3.785   5.994  1.1206  0.6587 -0.4630
 6053TIP3    H239651   3.335   3.798   6.125  0.8731 -2.0922 -0.2832
 6054TIP3   OH239652   0.651   4.679  12.057 -0.4811  0.1072 -0.6046
 6054TIP3    H139653   0.650   4.683  12.152  0.8335 -1.6356 -0.4927
 6054TIP3    H239654   0.724   4.736  12.031 -0.1623 -0.2603 -0.5139
 6055TIP3   OH239655   1.444   6.447  11.517 -0.1928 -0.0633  0.5473
 6055TIP3    H139656   1.369   6.452  11.458  0.0896 -1.6868  0.0343
 6055TIP3    H239657   1.407   6.461  11.605 -1.0538 -0.5879  0.2717
 6056TIP3   OH239658   1.813   3.183   3.096 -0.2328  0.0804  0.0827
 6056TIP3    H139659   1.762   3.127   3.154 -0.2353  0.5176  0.5120
 6056TIP3    H239660   1.847   3.252   3.154 -1.0307  1.0703 -0.6120
 6057TIP3   OH239661   0.369   2.377   3.552 -0.1774  0.3441 -0.2981
 6057TIP3    H139662   0.321   2.460   3.545 -1.1300 -0.1745 -0.0786
 6057TIP3    H239663   0.436   2.382   3.485  1.5725  2.4719  1.5213
 6058TIP3   OH239664   4.476   4.244   2.950  0.1890 -0.1134 -0.3249
 6058TIP3    H139665   4.454   4.204   3.034 -2.1500 -2.7315 -2.1009
 6058TIP3    H239666   4.440   4.332   2.955 -1.8573 -0.9797  0.6499
 6059TIP3   OH239667   6.008   5.197  13.880 -0.8315 -0.5266 -0.5818
 6059TIP3    H139668   5.999   5.218  13.973  0.9433  1.9653 -0.9016
 6059TIP3    H239669   5.949   5.257  13.836 -0.6752 -0.7758 -1.1393
 6060TIP3   OH239670   3.189   2.173  16.720  0.4107  0.1945  0.2315
 6060TIP3    H139671   3.185   2.268  16.722  0.7776  0.2674 -1.4622
 6060TIP3    H239672   3.098   2.144  16.725  0.3651  0.5857  1.9358
 6061TIP3   OH239673   4.866   6.707   5.596  0.3673  0.9274 -0.0374
 6061TIP3    H139674   4.826   6.620   5.591  1.5063  0.3278  0.9820
 6061TIP3    H239675   4.960   6.690   5.591  0.6539  1.9785  1.4555
 6062TIP3   OH239676   2.078   5.607  16.553 -0.6235  0.0602  0.3007
 6062TIP3    H139677   2.067   5.569  16.640  3.2321  1.2639  1.4188
 6062TIP3    H239678   2.143   5.551  16.510 -1.3494  0.3842 -1.2689
 6063TIP3   OH239679   3.195   1.556   1.332 -0.2085  0.2484  0.3350
 6063TIP3    H139680   3.204   1.467   1.297  0.6580  0.2969  0.4226
 6063TIP3    H239681   3.133   1.599   1.272 -0.2522 -0.2597  0.0076
 6064TIP3   OH239682   4.870   4.565  11.709 -0.1516 -0.0750  0.1316
 6064TIP3    H139683   4.837   4.615  11.784 -0.7700  0.2915 -0.3782
 6064TIP3    H239684   4.811   4.490  11.703 -0.5222  0.2554 -0.4032
 6065TIP3   OH239685   2.487   1.565   1.582  0.5774 -0.2915 -0.5833
 6065TIP3    H139686   2.413   1.508   1.560  0.1557 -0.3947  1.0792
 6065TIP3    H239687   2.564   1.510   1.569  0.2854 -0.6404 -0.8666
 6066TIP3   OH239688   3.988   4.847  14.978  0.0377  0.3731  0.4785
 6066TIP3    H139689   3.998   4.813  15.067  4.1637  1.1513  0.4175
 6066TIP3    H239690   4.042   4.789  14.924 -1.2537  0.8038 -1.3370
 6067TIP3   OH239691   1.465   2.978  12.106 -0.0144 -0.7278  0.0241
 6067TIP3    H139692   1.400   2.914  12.133  0.6655 -0.5108  2.2397
 6067TIP3    H239693   1.537   2.926  12.070 -0.3584 -1.0803 -0.1591
 6068TIP3   OH239694   2.222   0.534   1.023 -0.3154  0.4981  0.4014
 6068TIP3    H139695   2.254   0.603   1.082 -0.7813 -0.2162  1.5190
 6068TIP3    H239696   2.165   0.580   0.962  1.6489  1.5389 -0.6809
 6069TIP3   OH239697   4.224   0.836   4.302 -1.0456  0.8079 -0.4548
 6069TIP3    H139698   4.182   0.881   4.375  1.1920  2.2299  0.0001
 6069TIP3    H239699   4.247   0.906   4.241 -0.7970 -0.1229 -1.4324
 6070TIP3   OH239700   6.488   2.809  16.254 -0.0578 -0.8354  0.5219
 6070TIP3    H139701   6.485   2.903  16.269  0.3507 -1.1060  2.3995
 6070TIP3    H239702   6.565   2.795  16.199  0.5836 -0.2045  1.2584
 6071TIP3   OH239703   4.306   2.622  17.174  0.3257 -0.1058  0.1887
 6071TIP3    H139704   4.235   2.561  17.154  0.5886  0.2800 -1.9633
 6071TIP3    H239705   4.368   2.571  17.225 -1.0276 -0.7081  1.2749
 6072TIP3   OH239706   3.858   1.877  14.909 -0.5586 -0.1764 -0.4911
 6072TIP3    H139707   3.839   1.963  14.946  0.0046  0.3225 -1.3584
 6072TIP3    H239708   3.896   1.895  14.823  0.9093 -1.2444 -0.0918
 6073TIP3   OH239709   2.439   2.347  11.589 -0.4812 -0.2328  0.7418
 6073TIP3    H139710   2.454   2.381  11.677 -0.6442  0.3189  0.5553
 6073TIP3    H239711   2.520   2.366  11.542 -0.3166 -0.7087  0.8248
 6074TIP3   OH239712   5.840   6.564  16.563 -0.3305  0.0199 -0.2294
 6074TIP3    H139713   5.774   6.633  16.573 -0.6820 -0.5348  1.5404
 6074TIP3    H239714   5.923   6.606  16.586 -0.4274  0.0797  0.0169
 6075TIP3   OH239715   2.758   2.026   2.582 -0.1737  0.2193 -0.2231
 6075TIP3    H139716   2.779   2.060   2.496  1.6862 -0.2194  0.0392
 6075TIP3    H239717   2.745   1.932   2.569  1.0977 -0.0132  0.1288
 6076TIP3   OH239718   3.236   3.168   1.643 -0.0632  0.0629 -0.4981
 6076TIP3    H139719   3.296   3.099   1.616  0.4727 -0.2157  1.3000
 6076TIP3    H239720   3.270   3.247   1.601  0.4480 -0.4249 -1.0143
 6077TIP3   OH239721   0.072   6.581  11.486  0.4567  0.0509  0.1658
 6077TIP3    H139722   0.110   6.496  11.507  1.7300 -0.0818 -2.5069
 6077TIP3    H239723   0.088   6.593  11.392 -2.2666  1.9494 -0.1370
 6078TIP3   OH239724   0.750   4.766   1.707 -0.0867  0.1935  0.2572
 6078TIP3    H139725   0.815   4.695   1.702 -0.8317 -0.4103 -0.9373
 6078TIP3    H239726   0.798   4.844   1.678  0.0693 -0.2715 -0.7462
 6079TIP3   OH239727   6.651   3.905  11.079  0.1103 -0.1861  0.5510
 6079TIP3    H139728   6.597   3.979  11.107  0.5465  0.1544  0.4996
 6079TIP3    H239729   6.674   3.925  10.988 -0.1597 -0.6154  0.3880
 6080TIP3   OH239730   0.267   5.613   3.107 -0.1440  0.0831 -0.1947
 6080TIP3    H139731   0.302   5.636   3.021 -1.3253 -1.5821 -1.1473
 6080TIP3    H239732   0.285   5.520   3.116  0.2252  0.3039  1.4985
 6081TIP3   OH239733   4.286   3.518   2.102 -0.4408 -0.1144  0.3653
 6081TIP3    H139734   4.352   3.583   2.077 -0.9682  0.5611  0.6933
 6081TIP3    H239735   4.216   3.570   2.141 -1.2846 -0.8084 -0.2242
 6082TIP3   OH239736   2.561   1.528  13.132  0.0867 -0.1301  0.0677
 6082TIP3    H139737   2.524   1.614  13.151 -1.5060 -0.6310 -0.6124
 6082TIP3    H239738   2.499   1.466  13.172 -0.0212 -0.9957 -1.3941
 6083TIP3   OH239739   1.667   0.651   0.047 -0.4330  0.0426  0.0404
 6083TIP3    H139740   1.750   0.631   0.003 -1.6371  0.8762 -2.6949
 6083TIP3    H239741   1.690   0.718   0.112  1.2177 -0.4762  0.0086
 6084TIP3   OH239742   5.367   4.393   2.250 -0.1426 -0.1650 -0.3596
 6084TIP3    H139743   5.459   4.410   2.232  0.4686 -2.1346  0.8698
 6084TIP3    H239744   5.354   4.422   2.340 -1.3584  2.4393 -1.3114
 6085TIP3   OH239745   2.951   2.328   2.019 -0.7410  0.0055  0.4217
 6085TIP3    H139746   2.950   2.238   1.985  0.5832 -0.6807  2.1169
 6085TIP3    H239747   2.865   2.363   1.996 -1.5253 -1.9185  0.3156
 6086TIP3   OH239748   1.643   4.409  11.966 -0.3146 -0.5285  0.8194
 6086TIP3    H139749   1.705   4.341  11.941 -0.4005 -0.4903  0.4990
 6086TIP3    H239750   1.698   4.482  11.995 -0.2060 -0.5010  0.5508
 6087TIP3   OH239751   2.796   5.550   2.983  0.3432 -0.0189  0.2080
 6087TIP3    H139752   2.712   5.529   2.942 -0.8458 -1.0659  3.0850
 6087TIP3    H239753   2.825   5.468   3.023  1.4198  0.9771  1.5238
 6088TIP3   OH239754   4.892   5.527  11.233 -0.0891  0.2632  0.3830
 6088TIP3    H139755   4.939   5.556  11.310  0.0210  1.0261  0.0416
 6088TIP3    H239756   4.818   5.477  11.267  0.5626 -0.3239  0.9374
 6089TIP3   OH239757   5.826   0.744   1.032 -0.1100 -0.5228 -0.5868
 6089TIP3    H139758   5.892   0.789   0.979 -0.6969 -0.1339 -0.9916
 6089TIP3    H239759   5.871   0.665   1.064  0.6649 -0.0740 -0.5492
 6090TIP3   OH239760   6.198   2.641   0.606  0.0066 -0.0052  0.1415
 6090TIP3    H139761   6.198   2.605   0.518 -1.3963  0.7993 -0.2154
 6090TIP3    H239762   6.289   2.638   0.634  0.3036 -1.2196 -0.9416
 6091TIP3   OH239763   1.751   0.413  12.007  0.0680 -0.1423  0.7587
 6091TIP3    H139764   1.813   0.406  11.935  2.2864 -0.4450  2.6160
 6091TIP3    H239765   1.776   0.494  12.053 -2.2689  0.8564  0.3414
 6092TIP3   OH239766   3.877   4.013  13.506 -0.2858  0.3458 -0.0084
 6092TIP3    H139767   3.816   4.050  13.571  0.9887  0.1205  1.3520
 6092TIP3    H239768   3.950   3.980  13.558 -0.0207 -1.4252 -1.4391
 6093TIP3   OH239769   6.704   6.210   5.862  0.2164  0.9253 -0.1619
 6093TIP3    H139770   6.662   6.174   5.783  0.0564 -1.9004  1.1268
 6093TIP3    H239771   6.797   6.193   5.849  0.0784 -0.6776  0.7414
 6094TIP3   OH239772   4.311   3.322  13.555  0.2226 -0.4465  0.0907
 6094TIP3    H139773   4.264   3.293  13.477  1.7582  2.4799 -2.0407
 6094TIP3    H239774   4.401   3.292  13.543  0.5558  0.3317  0.5372
 6095TIP3   OH239775   0.245   1.656   5.000  0.4113 -0.1297 -0.1245
 6095TIP3    H139776   0.228   1.724   5.065  1.2716 -1.3119  1.3746
 6095TIP3    H239777   0.158   1.633   4.965 -0.2213 -0.5133  1.6715
 6096TIP3   OH239778   0.328   5.106  15.652 -0.3965  0.0164  0.2250
 6096TIP3    H139779   0.384   5.183  15.653 -1.3452  0.7226 -0.3776
 6096TIP3    H239780   0.239   5.140  15.650 -0.8401 -1.0944  0.5407
 6097TIP3   OH239781   4.927   4.675   2.113  0.5872 -0.3068 -0.5630
 6097TIP3    H139782   4.855   4.618   2.087  0.0837 -0.5358  1.2819
 6097TIP3    H239783   4.956   4.716   2.032 -1.0813 -0.8403 -1.4365
 6098TIP3   OH239784   5.617   6.486  14.866  0.5418  0.3435  0.4995
 6098TIP3    H139785   5.543   6.426  14.874  0.6196 -0.1210 -2.0980
 6098TIP3    H239786   5.577   6.571  14.846  0.6366  0.4242  0.6459
 6099TIP3   OH239787   3.439   1.873  10.565  0.4965  0.2799  0.0057
 6099TIP3    H139788   3.533   1.862  10.551  0.2682 -0.7556 -0.7432
 6099TIP3    H239789   3.413   1.792  10.611  0.1129  0.9150  0.9254
 6100TIP3   OH239790   1.997   2.853   3.042  0.0769 -0.2315 -0.3330
 6100TIP3    H139791   1.999   2.937   2.995  0.7065  0.2976  0.6298
 6100TIP3    H239792   1.931   2.865   3.110 -0.7755 -0.9729 -1.0170
 6101TIP3   OH239793   6.462   1.090   3.872 -0.6741 -0.1808 -0.1501
 6101TIP3    H139794   6.384   1.038   3.857 -0.2384 -1.5085  1.9832
 6101TIP3    H239795   6.432   1.181   3.863 -1.7146 -0.7414 -2.5873
 6102TIP3   OH239796   5.576   5.086   3.159 -0.3224  0.1563 -0.0880
 6102TIP3    H139797   5.642   5.017   3.149  0.9635  1.6991 -2.6782
 6102TIP3    H239798   5.598   5.129   3.241  0.4482 -0.8296  0.2318
 6103TIP3   OH239799   3.929   2.241  11.971  0.1522  0.7815  0.3723
 6103TIP3    H139800   3.908   2.147  11.972 -0.6262  0.9465 -0.1568
 6103TIP3    H239801   3.940   2.264  12.063 -0.4267  0.3387  0.5565
 6104TIP3   OH239802   1.123   5.184   4.100 -0.5704  0.1383 -0.1291
 6104TIP3    H139803   1.122   5.180   4.004 -2.3683  0.3102 -0.1372
 6104TIP3    H239804   1.167   5.266   4.120 -0.2772  0.1516 -0.8093
 6105TIP3   OH239805   0.358   4.728   1.608  0.0825 -0.5596 -0.1056
 6105TIP3    H139806   0.355   4.816   1.646 -0.3986  0.3894 -2.2782
 6105TIP3    H239807   0.269   4.695   1.616 -0.2959  0.1126 -1.4711
 6106TIP3   OH239808   4.918   6.559  13.446  0.4799 -0.1061  0.5131
 6106TIP3    H139809   4.958   6.642  13.470 -0.5912  0.8154 -0.8008
 6106TIP3    H239810   4.863   6.536  13.522 -1.2694  1.7260 -0.1696
 6107TIP3   OH239811   4.646   2.902   3.795  0.0585  0.3885  0.3783
 6107TIP3    H139812   4.684   2.830   3.845  1.7523  0.4254 -0.8086
 6107TIP3    H239813   4.625   2.969   3.861  2.6000  0.5830  1.0172
 6108TIP3   OH239814   4.006   2.505   0.492 -0.0322  0.2525  0.1515
 6108TIP3    H139815   3.920   2.471   0.469  1.3304 -3.6195  0.4602
 6108TIP3    H239816   4.006   2.509   0.588  0.1270  0.3226  0.1499
 6109TIP3   OH239817   4.381   1.333  12.842 -0.5531 -0.2454  0.5463
 6109TIP3    H139818   4.350   1.419  12.870 -1.1764 -0.4337  0.4457
 6109TIP3    H239819   4.301   1.284  12.822 -0.1613 -0.4263 -0.6322
 6110TIP3   OH239820   5.753   5.550  12.288  0.6079  0.2420 -0.1060
 6110TIP3    H139821   5.753   5.465  12.333 -0.0504  0.0843 -0.3899
 6110TIP3    H239822   5.779   5.529  12.198 -0.2167  0.2422 -0.3459
 6111TIP3   OH239823   6.428   2.387  16.375  0.0182  0.0096  0.5466
 6111TIP3    H139824   6.479   2.374  16.454  0.6864 -2.2694 -0.2293
 6111TIP3    H239825   6.479   2.346  16.306 -1.9789 -0.6938 -0.5522
 6112TIP3   OH239826   0.722   2.889  12.987  0.0081  0.1817 -0.4812
 6112TIP3    H139827   0.687   2.878  13.076  0.6414  2.4495  0.0871
 6112TIP3    H239828   0.658   2.846  12.931 -1.7580  0.9563  0.8655
 6113TIP3   OH239829   5.597   6.668   2.369 -0.2278  0.2680  0.1955
 6113TIP3    H139830   5.535   6.597   2.380  0.3232  0.1175  2.5064
 6113TIP3    H239831   5.683   6.628   2.385  0.3412  0.8519 -1.2523
 6114TIP3   OH239832   1.435   3.213  14.870 -0.1374  0.2106 -0.1412
 6114TIP3    H139833   1.506   3.167  14.826 -0.9178 -0.5816 -0.5666
 6114TIP3    H239834   1.456   3.306  14.858  0.8922 -0.0196 -0.1540
 6115TIP3   OH239835   0.262   6.167   2.350 -0.4786  0.1002  0.4804
 6115TIP3    H139836   0.199   6.239   2.346 -0.5487  0.1065  1.5833
 6115TIP3    H239837   0.336   6.203   2.398  1.3877  0.8409 -2.7586
 6116TIP3   OH239838   2.271   2.243   4.198 -0.1715  0.5932  0.3055
 6116TIP3    H139839   2.352   2.250   4.249  0.1148  1.8742 -0.3253
 6116TIP3    H239840   2.244   2.152   4.211  0.1018  0.7804  2.4266
 6117TIP3   OH239841   1.245   4.963  16.720  0.3082  0.6855  0.5443
 6117TIP3    H139842   1.295   4.956  16.639 -0.4470  1.3029  0.0186
 6117TIP3    H239843   1.310   4.951  16.790  1.1493  1.2890 -0.1293
 6118TIP3   OH239844   5.406   5.142  13.531  0.2792  0.0157  0.2952
 6118TIP3    H139845   5.344   5.215  13.537 -0.9711 -1.1856  3.0368
 6118TIP3    H239846   5.482   5.179  13.487 -0.7866  2.6542  0.5641
 6119TIP3   OH239847   1.834   3.362  13.273  0.2562  0.3523 -0.3952
 6119TIP3    H139848   1.776   3.290  13.251  1.0465  0.2094 -2.0825
 6119TIP3    H239849   1.887   3.376  13.194  2.6141  0.3673  1.1216
 6120TIP3   OH239850   3.098   5.374  12.691  0.3432  0.6059 -0.4081
 6120TIP3    H139851   3.165   5.414  12.635 -0.1007  0.3848 -1.1100
 6120TIP3    H239852   3.057   5.307  12.635 -0.9330  1.2121 -0.2196
 6121TIP3   OH239853   0.308   1.792   4.764  0.9728 -0.5848  0.5212
 6121TIP3    H139854   0.337   1.724   4.704 -2.1863 -0.8941 -0.7941
 6121TIP3    H239855   0.325   1.757   4.851  0.9944 -2.3205 -0.1749
 6122TIP3   OH239856   0.641   2.775  10.892  0.0513  0.3527 -0.1398
 6122TIP3    H139857   0.635   2.708  10.824 -1.9046  1.2405 -0.8852
 6122TIP3    H239858   0.727   2.762  10.932  0.7681 -0.8759 -2.0545
 6123TIP3   OH239859   0.733   1.455   5.530 -0.3718 -0.2152  0.2408
 6123TIP3    H139860   0.774   1.527   5.579  0.3664 -1.0347  0.8342
 6123TIP3    H239861   0.643   1.453   5.562 -0.2704  0.1642  0.5565
 6124TIP3   OH239862   1.540   2.383   5.497  0.7317 -0.3433  0.2158
 6124TIP3    H139863   1.617   2.417   5.543  0.5176  1.0696 -0.4428
 6124TIP3    H239864   1.473   2.450   5.509 -0.0873 -1.0889 -0.0999
 6125TIP3   OH239865   4.375   4.429  10.316  0.0973  0.0606 -0.0171
 6125TIP3    H139866   4.383   4.334  10.307  0.5693 -0.2185  2.8118
 6125TIP3    H239867   4.281   4.445  10.319  0.0340 -0.6150  1.9808
 6126TIP3   OH239868   3.022   5.375   3.150 -0.0891  0.1752 -0.2040
 6126TIP3    H139869   3.009   5.303   3.088  0.9764  0.2371 -0.5205
 6126TIP3    H239870   3.116   5.370   3.172 -0.0060  1.4889 -0.2501
 6127TIP3   OH239871   0.121   6.481  14.568 -0.4852  0.0129 -0.4053
 6127TIP3    H139872   0.193   6.425  14.537 -1.0512  0.4884 -2.6529
 6127TIP3    H239873   0.141   6.568  14.534 -2.6491 -0.0620 -2.0184
 6128TIP3   OH239874   6.349   1.825   3.434 -0.4551 -0.1116 -0.3285
 6128TIP3    H139875   6.306   1.760   3.489  0.3268  0.2643  0.7578
 6128TIP3    H239876   6.442   1.818   3.458 -0.4652  1.9958  0.4707
 6129TIP3   OH239877   6.509   0.534  16.106  0.5029 -0.0091  0.2245
 6129TIP3    H139878   6.520   0.468  16.174  2.4468  0.3793  0.3074
 6129TIP3    H239879   6.486   0.614  16.153  1.5819  0.1933  0.4257
 6130TIP3   OH239880   0.735   0.441  11.888 -0.5434  0.0187  0.3606
 6130TIP3    H139881   0.816   0.488  11.868  1.4381 -2.4974  2.1456
 6130TIP3    H239882   0.745   0.356  11.845 -2.2028 -0.3593  0.6774
 6131TIP3   OH239883   2.922   5.358   4.713 -0.1281 -0.0874 -0.3682
 6131TIP3    H139884   2.913   5.263   4.720  3.3245 -0.7296 -3.4034
 6131TIP3    H239885   2.967   5.384   4.793 -1.9387 -0.8156  0.9225
 6132TIP3   OH239886   0.657   0.324  16.911 -0.1436  0.2647 -0.0155
 6132TIP3    H139887   0.721   0.252  16.918 -0.6324 -0.1130  0.6304
 6132TIP3    H239888   0.632   0.342  17.001  0.2881  1.5426 -0.1431
 6133TIP3   OH239889   3.587   6.812   5.133 -0.2342  0.1560  0.2668
 6133TIP3    H139890   3.580   6.868   5.055  2.1336 -0.3002 -0.3036
 6133TIP3    H239891   3.604   6.725   5.098  0.7943 -0.0649  1.2985
 6134TIP3   OH239892   2.653   3.505   0.190 -0.4418 -0.8259  0.2169
 6134TIP3    H139893   2.653   3.468   0.102 -0.9058  2.3190 -1.1389
 6134TIP3    H239894   2.635   3.598   0.178 -3.5843 -0.8363  3.8795
 6135TIP3   OH239895   2.614   5.862  13.961 -0.2499 -0.1901  0.4389
 6135TIP3    H139896   2.694   5.866  14.013  1.6101 -0.5072 -2.2454
 6135TIP3    H239897   2.594   5.954  13.941  0.0907 -0.1575  0.2319
 6136TIP3   OH239898   5.592   1.476  12.061 -0.3152 -0.5473 -0.8818
 6136TIP3    H139899   5.578   1.489  12.154 -2.3970 -1.3837 -1.0580
 6136TIP3    H239900   5.684   1.500  12.047  0.0686 -0.5952  1.3972
 6137TIP3   OH239901   2.666   4.479  16.425 -0.1087 -0.0443  0.8111
 6137TIP3    H139902   2.705   4.501  16.510 -0.8040  1.0163  0.8680
 6137TIP3    H239903   2.657   4.563  16.380 -0.4690 -0.5107 -0.0066
 6138TIP3   OH239904   5.852   3.956  11.976  0.3146 -0.9168  0.2486
 6138TIP3    H139905   5.833   4.044  12.008 -1.7027 -0.5469 -1.8583
 6138TIP3    H239906   5.947   3.948  11.983  0.4392  1.0818  1.2829
 6139TIP3   OH239907   3.591   0.515  16.688 -0.3416 -0.2384  0.1796
 6139TIP3    H139908   3.635   0.449  16.635  1.0392  0.9288 -0.1604
 6139TIP3    H239909   3.582   0.474  16.774  1.6604 -0.4135  0.3340
 6140TIP3   OH239910   5.794   6.458   3.272 -0.3662  0.7645  0.3005
 6140TIP3    H139911   5.791   6.435   3.365  0.2536 -2.1331 -0.3207
 6140TIP3    H239912   5.888   6.456   3.250 -0.6641 -1.2745 -0.9459
 6141TIP3   OH239913   5.795   0.592  10.515 -0.1824 -0.3254  0.1242
 6141TIP3    H139914   5.760   0.519  10.566 -0.2467 -0.9382 -0.7991
 6141TIP3    H239915   5.885   0.602  10.546  0.7685 -2.6907 -1.8060
 6142TIP3   OH239916   1.006   3.844  14.163 -0.0816 -0.0629 -0.5772
 6142TIP3    H139917   0.919   3.815  14.136 -0.8980  2.2787 -0.6483
 6142TIP3    H239918   1.060   3.830  14.085 -1.6045  3.2305 -2.3586
 6143TIP3   OH239919   3.646   4.506   5.160 -0.4932 -0.1135  0.6527
 6143TIP3    H139920   3.709   4.447   5.200  0.6572  1.6228  1.4748
 6143TIP3    H239921   3.625   4.569   5.230 -1.5644  0.5320 -0.2360
 6144TIP3   OH239922   3.595   4.135   2.442  0.4561  0.1006  0.4710
 6144TIP3    H139923   3.511   4.116   2.482  0.2798  0.7093  0.3959
 6144TIP3    H239924   3.581   4.121   2.348  0.2002  1.0287  0.3660
 6145TIP3   OH239925   4.401   1.055  10.899  0.1894  0.1936  0.0052
 6145TIP3    H139926   4.478   1.000  10.882 -0.6193 -1.1616  0.6207
 6145TIP3    H239927   4.329   1.009  10.856 -0.2527  1.5575 -0.7481
 6146TIP3   OH239928   4.032   4.899   0.350  0.0119  0.1069  0.3024
 6146TIP3    H139929   3.995   4.980   0.385  1.3582  1.6644 -1.7157
 6146TIP3    H239930   3.970   4.831   0.375 -1.5007  1.8551  1.4686
 6147TIP3   OH239931   0.860   2.339  15.736  0.0476  0.3177  0.3090
 6147TIP3    H139932   0.838   2.403  15.804 -3.9115 -0.4105 -0.1491
 6147TIP3    H239933   0.832   2.380  15.654  1.3471 -0.3164 -0.4614
 6148TIP3   OH239934   1.812   1.987   0.445 -0.5801  0.8384  0.3755
 6148TIP3    H139935   1.846   2.074   0.427  1.3115  0.0641  0.0143
 6148TIP3    H239936   1.793   1.988   0.539 -1.6883  1.9934  0.1471
 6149TIP3   OH239937   5.675   6.502  12.383  0.5652  0.2226 -0.1502
 6149TIP3    H139938   5.637   6.585  12.353  1.2468 -0.5946 -3.4836
 6149TIP3    H239939   5.599   6.448  12.405 -0.0825  0.3756 -1.8570
 6150TIP3   OH239940   2.736   2.884   0.775 -0.3736 -0.3009  0.0692
 6150TIP3    H139941   2.711   2.812   0.833 -0.9922 -0.1444  0.0098
 6150TIP3    H239942   2.653   2.910   0.734 -0.6192  2.0984  1.9665
 6151TIP3   OH239943   4.700   0.806   4.151 -0.6833  0.7223  0.0111
 6151TIP3    H139944   4.726   0.714   4.154  0.2234  1.0143  1.8974
 6151TIP3    H239945   4.613   0.805   4.110 -1.1183 -1.0801  0.9172
 6152TIP3   OH239946   1.273   4.818   0.225  0.0822  0.1416 -0.5225
 6152TIP3    H139947   1.246   4.855   0.309 -0.3858 -0.5681 -0.3547
 6152TIP3    H239948   1.268   4.723   0.238 -2.4046  0.0056 -2.0931
 6153TIP3   OH239949   0.638   6.698   2.801  0.0094 -0.6200  0.2081
 6153TIP3    H139950   0.616   6.789   2.783  1.8402 -0.1535  0.3160
 6153TIP3    H239951   0.579   6.673   2.872 -0.5568  0.4474  0.1247
 6154TIP3   OH239952   6.685   1.703  15.075 -0.3984 -0.0895  0.2717
 6154TIP3    H139953   6.732   1.689  14.992 -0.9714  0.0405 -0.0795
 6154TIP3    H239954   6.621   1.632  15.078 -2.2777  1.4838 -0.7692
 6155TIP3   OH239955   0.136   4.835  13.143 -0.0342 -0.9775  0.0907
 6155TIP3    H139956   0.145   4.741  13.132  0.1150 -1.0757  1.0251
 6155TIP3    H239957   0.044   4.853  13.126 -0.2630 -1.4257  0.8617
 6156TIP3   OH239958   1.523   4.115  10.436 -0.1418 -0.2148  0.0598
 6156TIP3    H139959   1.469   4.190  10.459 -1.0903  0.6701 -4.6694
 6156TIP3    H239960   1.460   4.045  10.418  0.6196 -1.1728  1.0118
 6157TIP3   OH239961   2.299   2.601   2.696 -0.2951 -0.1474  0.6386
 6157TIP3    H139962   2.288   2.585   2.603 -2.3614 -0.1164  0.8396
 6157TIP3    H239963   2.394   2.603   2.710  0.0266 -0.9238 -1.3107
 6158TIP3   OH239964   1.676   2.819  13.293 -0.3014  0.8291 -0.2001
 6158TIP3    H139965   1.662   2.816  13.388 -0.2740 -1.6154 -0.2325
 6158TIP3    H239966   1.616   2.887  13.262 -1.8533  0.2046  1.3367
 6159TIP3   OH239967   2.387   3.309  12.086  0.4141  0.2511  0.3934
 6159TIP3    H139968   2.461   3.322  12.026 -0.6350  0.4334 -0.8949
 6159TIP3    H239969   2.313   3.354  12.043 -0.0153  1.6761  2.5726
 6160TIP3   OH239970   2.253   0.686  16.150 -0.1831 -0.2396  0.1682
 6160TIP3    H139971   2.338   0.661  16.115  0.5755  1.3398  0.8629
 6160TIP3    H239972   2.218   0.749  16.086 -0.1718  0.2468  0.6331
 6161TIP3   OH239973   5.142   3.648   4.262  0.4292 -0.1978  0.1852
 6161TIP3    H139974   5.095   3.597   4.328 -0.3410 -0.6781 -0.7159
 6161TIP3    H239975   5.199   3.706   4.312 -1.8659  1.1315  1.3514
 6162TIP3   OH239976   6.180   2.942   3.037 -0.1099 -0.2945  0.0016
 6162TIP3    H139977   6.148   2.855   3.014  0.3024 -0.4035 -0.1695
 6162TIP3    H239978   6.249   2.960   2.972 -1.5091  0.9595 -1.1588
 6163TIP3   OH239979   2.204   5.407  11.471  0.2372  0.3057 -0.0574
 6163TIP3    H139980   2.294   5.438  11.463  0.2378  0.0742 -0.9490
 6163TIP3    H239981   2.212   5.321  11.512  0.4865 -0.1371 -1.0337
 6164TIP3   OH239982   2.903   4.398  17.288 -0.2695 -0.2430 -0.5675
 6164TIP3    H139983   2.989   4.434  17.265  0.0466 -1.3190 -1.1360
 6164TIP3    H239984   2.923   4.319  17.338 -0.9487  0.3953  0.7262
 6165TIP3   OH239985   1.928   2.322  13.752  0.1360 -0.2357  0.1135
 6165TIP3    H139986   1.973   2.355  13.830 -2.9437  1.1170  1.4173
 6165TIP3    H239987   1.997   2.314  13.686  2.9940 -2.1609  3.1377
 6166TIP3   OH239988   1.422   2.393   2.894 -0.0113 -0.4717 -0.3051
 6166TIP3    H139989   1.463   2.405   2.980  0.3000 -2.4223 -0.1575
 6166TIP3    H239990   1.424   2.298   2.880 -3.6998 -0.5884 -0.6531
 6167TIP3   OH239991   0.938   5.898  15.545  0.5687 -0.2120  0.0241
 6167TIP3    H139992   0.940   5.824  15.607  1.4479 -2.2798 -2.3844
 6167TIP3    H239993   1.018   5.947  15.564  0.8599 -0.8616  0.4962
 6168TIP3   OH239994   4.447   1.351   4.317 -0.5394 -0.0626  0.2047
 6168TIP3    H139995   4.352   1.341   4.306 -0.1230 -1.6105 -2.4488
 6168TIP3    H239996   4.470   1.423   4.258  0.1491 -0.7971 -0.4335
 6169TIP3   OH239997   6.637   2.531  12.115  0.2342  0.3094 -0.3223
 6169TIP3    H139998   6.648   2.449  12.164 -0.7098  0.6486  0.4701
 6169TIP3    H239999   6.634   2.504  12.023 -1.4206 -0.6908  0.0163
 6170TIP3   OH240000   5.493   2.157  16.986 -0.2232 -0.1307 -0.3248
 6170TIP3    H140001   5.463   2.085  17.041 -0.6804 -1.5038 -2.3392
 6170TIP3    H240002   5.575   2.126  16.948  1.4300  1.7899  1.4715
 6171TIP3   OH240003   4.378   4.497  13.118 -0.7055 -0.0354 -0.2232
 6171TIP3    H140004   4.299   4.489  13.065 -1.4082  0.4311  0.7193
 6171TIP3    H240005   4.379   4.589  13.147  1.0926  0.4081 -1.5924
 6172TIP3   OH240006   1.011   3.510   2.199  1.1171 -0.6351 -0.2705
 6172TIP3    H140007   0.964   3.441   2.151  1.4652 -0.2954 -1.0982
 6172TIP3    H240008   1.099   3.508   2.163  0.9701  0.6494 -0.7171
 6173TIP3   OH240009   4.995   6.321   2.986 -0.3943  0.2741 -0.4044
 6173TIP3    H140010   4.979   6.397   2.929  2.3074  0.7459 -0.5691
 6173TIP3    H240011   5.062   6.271   2.941 -0.9577 -1.3679  0.5423
 6174TIP3   OH240012   2.493   6.127  13.927 -0.4335 -0.0892  0.1566
 6174TIP3    H140013   2.442   6.167  13.998  1.0209 -0.4339  1.4204
 6174TIP3    H240014   2.502   6.196  13.861 -0.0821  0.8796  1.2020
 6175TIP3   OH240015   2.365   2.186   1.499 -0.2660 -1.0624  0.0199
 6175TIP3    H140016   2.363   2.230   1.583 -1.0685 -1.6705  0.3328
 6175TIP3    H240017   2.408   2.247   1.440  0.0029 -0.5004  0.7968
 6176TIP3   OH240018   5.219   5.447  16.886 -0.2545  0.1999 -0.0563
 6176TIP3    H140019   5.152   5.492  16.834  0.8563  1.1755 -0.6775
 6176TIP3    H240020   5.220   5.495  16.969 -1.8413 -1.1933  0.8137
 6177TIP3   OH240021   5.939   6.733  13.517  1.0288  0.8059 -0.8639
 6177TIP3    H140022   5.850   6.722  13.484  1.6338 -0.0812 -2.2219
 6177TIP3    H240023   5.967   6.818  13.484  0.8057  0.9366 -0.7166
 6178TIP3   OH240024   1.727   3.864   4.463 -0.4759 -0.0242 -0.1866
 6178TIP3    H140025   1.772   3.781   4.444 -1.5900 -0.4307 -1.1395
 6178TIP3    H240026   1.798   3.926   4.477  0.4000 -1.6063  2.8220
 6179TIP3   OH240027   0.211   6.718  11.290 -0.6961  0.1636  0.2664
 6179TIP3    H140028   0.260   6.654  11.238 -0.4507  0.4430  0.1503
 6179TIP3    H240029   0.258   6.722  11.373  0.1958  1.3181 -0.2771
 6180TIP3   OH240030   1.246   5.485  11.848  0.2474 -0.2069 -0.0647
 6180TIP3    H140031   1.289   5.455  11.768  0.1990 -0.4600  0.0035
 6180TIP3    H240032   1.233   5.579  11.835 -1.7752 -0.6431 -1.2667
 6181TIP3   OH240033   2.359   0.155   3.470 -0.3421  0.7687  1.0342
 6181TIP3    H140034   2.313   0.175   3.551 -0.7111  0.8831  0.7946
 6181TIP3    H240035   2.437   0.211   3.472 -0.0102  0.2868  1.6223
 6182TIP3   OH240036   5.987   5.764   0.857 -0.1175  0.0260 -0.3054
 6182TIP3    H140037   6.003   5.701   0.926  0.4530 -0.9484 -1.3168
 6182TIP3    H240038   5.917   5.726   0.804 -1.8496  1.6079  0.7573
 6183TIP3   OH240039   0.070   3.351  13.266  0.0115 -0.0258  0.6801
 6183TIP3    H140040  -0.001   3.289  13.278 -0.9140  1.1640  1.4711
 6183TIP3    H240041   0.098   3.373  13.355 -0.2853  1.3682  0.4447
 6184TIP3   OH240042   1.057   1.039   3.360 -0.0182 -0.7013  0.1790
 6184TIP3    H140043   1.078   1.046   3.453  1.2185 -0.2806 -0.1202
 6184TIP3    H240044   0.981   0.980   3.356 -0.2881 -0.4393  1.4722
 6185TIP3   OH240045   2.542   5.130   3.685  0.3398 -0.5045 -0.1546
 6185TIP3    H140046   2.448   5.130   3.706  0.6259  0.7436  1.2085
 6185TIP3    H240047   2.557   5.215   3.643  1.0870 -0.1916  0.7414
 6186TIP3   OH240048   3.265   1.220   3.725 -0.2732 -0.2312  0.5977
 6186TIP3    H140049   3.314   1.287   3.772 -0.5875  0.4002  0.0257
 6186TIP3    H240050   3.255   1.149   3.788  1.4162 -0.3821  0.6998
 6187TIP3   OH240051   4.215   1.846   4.282 -0.8453  0.4184  0.5740
 6187TIP3    H140052   4.260   1.848   4.198 -0.7197 -1.6879  0.5713
 6187TIP3    H240053   4.277   1.886   4.344  0.8868 -2.0562  0.4932
 6188TIP3   OH240054   3.253   5.509   1.008  0.2573 -0.2052  0.5816
 6188TIP3    H140055   3.191   5.498   1.080 -0.4220 -0.7793 -0.0864
 6188TIP3    H240056   3.299   5.591   1.028 -0.3197 -0.0715  1.3740
 6189TIP3   OH240057   3.511   2.582   0.319 -0.0157 -0.4247 -0.4131
 6189TIP3    H140058   3.461   2.545   0.246  0.2722 -1.2792 -0.1863
 6189TIP3    H240059   3.445   2.610   0.382 -0.2061 -2.1364  0.1680
 6190TIP3   OH240060   1.771   3.292  16.750  0.1963  0.1599  0.2800
 6190TIP3    H140061   1.694   3.335  16.789 -0.2635  0.2952 -0.7722
 6190TIP3    H240062   1.821   3.364  16.711  0.6969  0.0311  0.6759
 6191TIP3   OH240063   3.732   4.866  16.311  0.3664  0.1323  0.8974
 6191TIP3    H140064   3.772   4.783  16.283  2.5347  2.4233 -3.3009
 6191TIP3    H240065   3.805   4.920  16.340 -0.7097  1.4602  1.1923
 6192TIP3   OH240066   4.477   0.636   1.601 -0.3033 -0.0644  0.4185
 6192TIP3    H140067   4.509   0.691   1.530  0.1227  1.5109  1.8017
 6192TIP3    H240068   4.508   0.679   1.681 -0.4446 -2.0065  1.5525
 6193TIP3   OH240069   3.949   3.196  13.912  0.6250  0.3541 -0.0130
 6193TIP3    H140070   3.964   3.191  14.006 -2.0284 -2.1210  0.3559
 6193TIP3    H240071   4.034   3.178  13.873  0.9427 -2.6818  1.9051
 6194TIP3   OH240072   1.004   5.641  15.645  0.0565 -0.3439  0.0406
 6194TIP3    H140073   0.923   5.599  15.674 -0.2957  0.5275  0.3300
 6194TIP3    H240074   1.068   5.569  15.640 -1.1466 -1.3335 -1.8353
 6195TIP3   OH240075   4.987   3.771   1.282 -0.6351  0.1636 -0.7845
 6195TIP3    H140076   5.066   3.720   1.266 -2.5207 -2.3446 -2.3352
 6195TIP3    H240077   5.001   3.852   1.232  1.6471  0.5246  0.3513
 6196TIP3   OH240078   3.652   3.860   2.257 -0.0256 -0.6942 -0.0347
 6196TIP3    H140079   3.715   3.917   2.211 -0.7221 -0.0445 -0.1908
 6196TIP3    H240080   3.626   3.796   2.191  0.4305 -0.9398  0.0167
 6197TIP3   OH240081   4.476   5.936   3.393  0.1687  0.4686 -0.1526
 6197TIP3    H140082   4.405   5.962   3.335  0.1853 -0.7930 -0.7624
 6197TIP3    H240083   4.490   6.012   3.449 -2.4322  0.3513  0.7514
 6198TIP3   OH240084   6.216   0.462  14.971  0.0311  0.5361  0.2684
 6198TIP3    H140085   6.281   0.414  15.023 -1.3693 -1.5826  0.1172
 6198TIP3    H240086   6.152   0.492  15.036 -1.0885 -1.0843 -0.0698
 6199TIP3   OH240087   0.064   4.528  11.210  0.0464  1.0697  0.1790
 6199TIP3    H140088   0.034   4.616  11.188  0.1266  0.9915 -0.2476
 6199TIP3    H240089   0.139   4.513  11.152 -0.4722  0.4041 -0.3240
 6200TIP3   OH240090   0.740   3.223   7.041 -0.0367  0.3058  0.8600
 6200TIP3    H140091   0.651   3.212   7.008 -1.1590  0.9439  3.5333
 6200TIP3    H240092   0.736   3.302   7.095  2.2655  0.5923  0.6859
 6201TIP3   OH240093   6.677   6.585   2.353  0.3245  0.1092  0.0597
 6201TIP3    H140094   6.752   6.611   2.406 -0.1168 -0.5792  1.0412
 6201TIP3    H240095   6.635   6.668   2.330  0.4818  0.4152  0.8500
 6202TIP3   OH240096   4.553   2.828   3.527  0.4251  0.4833  0.1455
 6202TIP3    H140097   4.462   2.848   3.504 -0.1228  0.0979  1.9468
 6202TIP3    H240098   4.560   2.850   3.620  2.2187  0.6282 -0.0097
 6203TIP3   OH240099   2.394   3.561   1.642  0.4735 -0.1205 -0.0964
 6203TIP3    H140100   2.392   3.565   1.546 -1.4779 -0.9473 -0.0962
 6203TIP3    H240101   2.303   3.565   1.668  0.9935 -0.0521  1.7456
 6204TIP3   OH240102   0.038   1.941   1.742 -0.2683 -0.3341 -0.9452
 6204TIP3    H140103   0.021   2.034   1.757  0.2223 -0.2996 -0.5856
 6204TIP3    H240104   0.093   1.939   1.664 -0.1140 -0.3085 -0.8377
 6205TIP3   OH240105   1.045   0.330  13.306 -0.0829  0.1566 -0.0599
 6205TIP3    H140106   1.026   0.379  13.226 -0.6421  0.8946  0.5210
 6205TIP3    H240107   1.046   0.397  13.375 -2.6783 -0.8711  1.0303
 6206TIP3   OH240108   2.125   3.301  17.019 -0.1034  0.4593 -0.5415
 6206TIP3    H140109   2.170   3.352  17.087 -0.5863  0.3239 -0.1150
 6206TIP3    H240110   2.134   3.354  16.940 -0.2437  1.0198 -0.1895
 6207TIP3   OH240111   3.487   6.090  14.333  0.4424  0.3552 -0.6449
 6207TIP3    H140112   3.565   6.035  14.331  0.4727  0.4019 -0.8198
 6207TIP3    H240113   3.414   6.028  14.332  0.4735  0.2806  0.7616
 6208TIP3   OH240114   3.807   4.692  11.576 -0.6595  0.0396 -0.2794
 6208TIP3    H140115   3.894   4.657  11.555 -0.6260 -0.8548  1.3085
 6208TIP3    H240116   3.822   4.786  11.591  0.0697 -0.1520  0.1923
 6209TIP3   OH240117   3.171   6.709  16.965 -0.0908 -0.2844  0.3926
 6209TIP3    H140118   3.168   6.791  17.015  2.2402  0.0832  0.0117
 6209TIP3    H240119   3.109   6.652  17.008 -1.4915  1.5631  0.8957
 6210TIP3   OH240120   2.494   4.778  11.208  0.4077 -0.1115 -0.5754
 6210TIP3    H140121   2.469   4.828  11.131 -0.8921  0.1457 -0.0105
 6210TIP3    H240122   2.524   4.843  11.271  1.0380 -0.2752 -0.7098
 6211TIP3   OH240123   4.090   1.965   2.442  0.4522  0.3422 -0.0371
 6211TIP3    H140124   4.096   2.017   2.521 -1.3551  1.1095 -0.3843
 6211TIP3    H240125   4.144   2.012   2.378  1.6349 -0.0979  0.6188
 6212TIP3   OH240126   0.309   4.619   6.184 -0.5824  0.3236 -0.1618
 6212TIP3    H140127   0.373   4.560   6.144 -1.2673 -0.8034  0.3695
 6212TIP3    H240128   0.309   4.697   6.128  0.5124 -0.0829 -0.7365
 6213TIP3   OH240129   2.821   3.553   2.802  0.0355 -0.1586 -0.1917
 6213TIP3    H140130   2.792   3.636   2.839  0.4757 -1.4039  3.1908
 6213TIP3    H240131   2.744   3.497   2.804  0.9291 -1.3947  2.5170
 6214TIP3   OH240132   4.069   6.503   4.838  0.2415 -0.0093  0.0378
 6214TIP3    H140133   4.070   6.563   4.912  0.7954  0.8360 -0.6364
 6214TIP3    H240134   4.141   6.443   4.855  0.3813  0.1967  0.1745
 6215TIP3   OH240135   5.039   1.822   0.585  0.1973  0.2117  0.1957
 6215TIP3    H140136   5.105   1.861   0.641  2.2817 -0.0257 -2.0092
 6215TIP3    H240137   4.955   1.846   0.624  1.5849  0.8380  2.8132
 6216TIP3   OH240138   1.262   6.434   1.059 -0.1463  0.3528 -0.6197
 6216TIP3    H140139   1.254   6.479   1.143  0.6506  0.6225 -0.6870
 6216TIP3    H240140   1.211   6.487   0.998  1.5982  1.7136 -0.9122
 6217TIP3   OH240141   3.953   1.061  14.217 -0.3620  0.6786  0.0878
 6217TIP3    H140142   4.004   1.023  14.146 -1.4906 -1.8299  0.5317
 6217TIP3    H240143   3.946   1.154  14.196  0.7276  0.2692 -2.1843
 6218TIP3   OH240144   0.085   0.936  11.317  0.0637  0.0405  0.1149
 6218TIP3    H140145   0.152   0.893  11.264 -0.4503  1.3534 -1.6657
 6218TIP3    H240146   0.010   0.946  11.258 -0.2118  2.3197  0.8060
 6219TIP3   OH240147   1.402   3.567   1.446 -0.0264 -0.4283 -0.2566
 6219TIP3    H140148   1.370   3.655   1.425 -1.1813 -0.6892  0.3406
 6219TIP3    H240149   1.368   3.511   1.376  0.0152 -0.5330 -0.1937
 6220TIP3   OH240150   2.376   4.004   3.622  0.5733  0.3606  0.4044
 6220TIP3    H140151   2.299   4.010   3.678  0.5326 -0.2160  0.4142
 6220TIP3    H240152   2.361   3.926   3.569  0.7549  0.7329 -0.1982
 6221TIP3   OH240153   6.687   4.849  13.099  0.0348 -0.5712  0.2173
 6221TIP3    H140154   6.648   4.917  13.044  0.5359 -0.2797  0.2143
 6221TIP3    H240155   6.622   4.779  13.101 -0.1182 -0.4575 -0.4951
 6222TIP3   OH240156   4.584   0.831  15.081 -0.5689  0.1530 -0.2595
 6222TIP3    H140157   4.579   0.908  15.137 -0.7162  0.0981 -0.1981
 6222TIP3    H240158   4.560   0.863  14.994  2.8072  0.9571 -0.9725
 6223TIP3   OH240159   4.466   6.767  13.300  0.7939  0.4981  0.0118
 6223TIP3    H140160   4.412   6.791  13.225 -1.2853 -1.4053  0.8283
 6223TIP3    H240161   4.480   6.672  13.290  0.3165  0.1803  2.0927
 6224TIP3   OH240162   0.885   5.854   1.527 -0.1762  0.5400  0.3363
 6224TIP3    H140163   0.840   5.875   1.609 -1.5858 -1.1608  0.0407
 6224TIP3    H240164   0.859   5.923   1.466 -0.0569  1.1624  0.9859
 6225TIP3   OH240165   0.011   6.540  13.974 -0.5147 -0.1286  0.1900
 6225TIP3    H140166   0.097   6.542  14.015 -0.5059 -2.0467  0.3410
 6225TIP3    H240167  -0.050   6.525  14.046 -0.9336  0.7486  0.0227
 6226TIP3   OH240168   3.578   3.814  15.635 -0.2953 -0.2430 -0.4604
 6226TIP3    H140169   3.505   3.860  15.677  1.1189  0.5987  1.1780
 6226TIP3    H240170   3.613   3.878  15.573  1.2235  0.7049  1.3052
 6227TIP3   OH240171   2.213   2.468   0.868  0.3793 -0.4726  0.4029
 6227TIP3    H140172   2.171   2.464   0.782  0.8316  1.0171  0.0911
 6227TIP3    H240173   2.162   2.408   0.922  0.0339 -1.3589 -0.8827
 6228TIP3   OH240174   4.099   2.562  10.378  0.2644  0.1615  0.0905
 6228TIP3    H140175   4.022   2.511  10.403  0.0331  1.3021  1.7863
 6228TIP3    H240176   4.123   2.610  10.458  1.6763  1.1578 -0.9105
 6229TIP3   OH240177   4.157   3.969   0.579 -0.0952  0.0476  0.1405
 6229TIP3    H140178   4.103   3.987   0.501  1.1191  0.3118 -0.6523
 6229TIP3    H240179   4.239   4.016   0.562  1.2763 -2.2771  0.2651
 6230TIP3   OH240180   3.725   1.925  16.290  0.0176 -0.2862  0.0204
 6230TIP3    H140181   3.753   1.946  16.201 -1.7433  1.3476 -0.1831
 6230TIP3    H240182   3.657   1.858  16.279  0.3482 -0.6535  0.1956
 6231TIP3   OH240183   3.464   2.641   1.748  0.3110  0.2871 -0.6665
 6231TIP3    H140184   3.462   2.715   1.808 -1.4188 -0.0945 -0.1955
 6231TIP3    H240185   3.493   2.677   1.665  0.8865  1.2033 -0.0696
 6232TIP3   OH240186   5.168   3.183  15.970  0.4296  0.2042  0.1636
 6232TIP3    H140187   5.135   3.238  16.041 -0.9352  0.7726 -0.8916
 6232TIP3    H240188   5.136   3.225  15.890  1.6914 -0.5953 -0.7775
 6233TIP3   OH240189   0.531   2.625   0.044  0.6071  0.4385 -0.3394
 6233TIP3    H140190   0.568   2.671  -0.032  2.7929  1.7241  1.4646
 6233TIP3    H240191   0.514   2.694   0.108 -0.3486 -0.7426  0.7064
 6234TIP3   OH240192   2.771   3.069   0.271  0.2462  0.0255  0.7654
 6234TIP3    H140193   2.818   2.996   0.231  0.2622  0.9286 -0.8745
 6234TIP3    H240194   2.820   3.088   0.351  1.4604 -0.3845  0.1309
 6235TIP3   OH240195   0.440   5.056   2.969  0.0147  0.5153 -0.2980
 6235TIP3    H140196   0.469   5.007   3.046 -1.1004  0.3470  0.0177
 6235TIP3    H240197   0.371   5.003   2.931 -1.7491  2.2050  0.4851
 6236TIP3   OH240198   3.174   5.967  14.541 -0.1818  0.0903 -0.1533
 6236TIP3    H140199   3.158   6.054  14.505  0.3453 -0.7537 -2.4909
 6236TIP3    H240200   3.087   5.929  14.553 -0.3687  0.3981 -0.5279
 6237TIP3   OH240201   6.401   5.174   2.367  0.6931  0.8134 -0.1301
 6237TIP3    H140202   6.306   5.183   2.357  0.7173  0.4347 -0.7286
 6237TIP3    H240203   6.412   5.095   2.419  0.7004  0.5162 -0.5833
 6238TIP3   OH240204   4.262   5.001   5.146  0.2514  0.2839  0.5696
 6238TIP3    H140205   4.241   5.070   5.083  2.4898 -2.2105 -3.0750
 6238TIP3    H240206   4.350   5.021   5.176  0.1245  0.1130  1.0733
 6239TIP3   OH240207   1.343   0.364   3.412 -0.2648  0.3299  0.3515
 6239TIP3    H140208   1.411   0.384   3.476 -1.8474  0.2476  2.1169
 6239TIP3    H240209   1.335   0.269   3.414 -0.3062  0.3237 -0.0083
 6240TIP3   OH240210   1.329   0.166   1.884 -0.0440 -0.6694  0.3518
 6240TIP3    H140211   1.370   0.219   1.952  1.1326 -1.4572  0.2659
 6240TIP3    H240212   1.305   0.085   1.927 -1.3692 -0.2876  0.3568
 6241TIP3   OH240213   0.701   2.994   0.475  0.4535  0.9558 -0.4582
 6241TIP3    H140214   0.683   2.949   0.393 -0.9183  0.7026 -0.0396
 6241TIP3    H240215   0.615   2.999   0.518  1.0690  1.5570  0.7094
 6242TIP3   OH240216   3.160   4.944   2.118 -0.2049  0.5463 -0.1058
 6242TIP3    H140217   3.177   5.017   2.178  2.0300 -0.3755  0.4418
 6242TIP3    H240218   3.246   4.923   2.082 -0.9455 -1.3432 -0.8217
 6243TIP3   OH240219   4.566   0.863  16.731 -0.0133  0.1824 -0.1775
 6243TIP3    H140220   4.522   0.778  16.727 -0.6395  0.4188  1.3082
 6243TIP3    H240221   4.646   0.851  16.679 -0.9106 -0.7996 -1.3674
 6244TIP3   OH240222   5.720   1.713  11.332 -0.9057  0.3667 -0.0812
 6244TIP3    H140223   5.638   1.665  11.342 -1.4915  1.3911  0.1338
 6244TIP3    H240224   5.778   1.675  11.397 -0.7363 -1.3577 -1.2261
 6245TIP3   OH240225   2.918   3.292  12.751 -0.0255 -0.0754  0.5469
 6245TIP3    H140226   2.855   3.363  12.752  0.0076  0.0114 -1.1179
 6245TIP3    H240227   2.974   3.308  12.827 -1.8716 -0.0580  1.9339
 6246TIP3   OH240228   1.976   5.118  10.759  0.1237  0.1505  0.9846
 6246TIP3    H140229   1.959   5.207  10.789  1.5721  0.6807  0.2937
 6246TIP3    H240230   1.890   5.075  10.760 -0.6953  1.7498  0.6829
 6247TIP3   OH240231   4.074   5.137  11.161 -0.0068 -0.1729  0.0596
 6247TIP3    H140232   4.146   5.137  11.225  0.5033 -0.5623 -0.5053
 6247TIP3    H240233   4.117   5.123  11.077 -0.7072  0.0465 -0.3361
 6248TIP3   OH240234   1.685   4.167  15.634 -0.1389 -0.5747 -0.1427
 6248TIP3    H140235   1.717   4.203  15.552 -1.3373 -1.3732 -0.9779
 6248TIP3    H240236   1.606   4.119  15.610 -1.0992  0.0612  1.6277
 6249TIP3   OH240237   5.789   3.615  10.885  0.2279 -0.1557  0.3525
 6249TIP3    H140238   5.883   3.627  10.869  0.0386 -1.1517 -1.7228
 6249TIP3    H240239   5.746   3.667  10.817 -0.7382  0.1663  1.1921
 6250TIP3   OH240240   2.792   2.809  11.400  0.1545  0.1303  0.1894
 6250TIP3    H140241   2.883   2.827  11.378  0.1624 -1.6109 -1.2582
 6250TIP3    H240242   2.770   2.877  11.464  2.5045  0.4816  0.6977
 6251TIP3   OH240243   2.906   5.588   2.728  0.8073 -0.4849  0.1033
 6251TIP3    H140244   2.859   5.555   2.804 -0.4214 -0.3800 -0.5914
 6251TIP3    H240245   2.917   5.511   2.672 -0.7365 -0.0403 -0.8435
 6252TIP3   OH240246   0.544   6.584   0.524 -0.5968  0.1174 -0.1577
 6252TIP3    H140247   0.581   6.630   0.449 -0.0964  0.8734  0.5452
 6252TIP3    H240248   0.618   6.540   0.565 -0.2853  2.2851  1.7161
 6253TIP3   OH240249   5.060   6.512  16.375 -0.0190  0.2383 -0.3874
 6253TIP3    H140250   4.976   6.549  16.402  0.0910  0.1270  0.1204
 6253TIP3    H240251   5.123   6.545  16.440  0.4720  0.9575 -1.2228
 6254TIP3   OH240252   1.282   2.162   4.563  0.2028  0.0734  0.2023
 6254TIP3    H140253   1.272   2.172   4.468  1.7112 -1.5045 -0.1333
 6254TIP3    H240254   1.337   2.085   4.574 -1.9407 -1.2287  2.4346
 6255TIP3   OH240255   4.052   2.344  17.230 -0.2509 -0.0987  0.1046
 6255TIP3    H140256   4.050   2.399  17.309 -0.0761 -1.0755  0.7988
 6255TIP3    H240257   4.028   2.257  17.261 -0.0036 -0.5312 -0.9013
 6256TIP3   OH240258   3.515   5.967   3.112  0.7473  0.7528 -0.6003
 6256TIP3    H140259   3.463   6.025   3.057 -2.0798  0.2096  1.3957
 6256TIP3    H240260   3.562   6.025   3.171 -1.1726  1.1268  0.6138
 6257TIP3   OH240261   0.310   4.563   6.444 -0.3319  0.4811 -0.0288
 6257TIP3    H140262   0.373   4.491   6.445  0.4863  1.2024 -0.2099
 6257TIP3    H240263   0.295   4.580   6.351 -0.0382  0.9760  0.0152
 6258TIP3   OH240264   4.456   1.523   1.397  0.1278  0.1800  0.2666
 6258TIP3    H140265   4.365   1.551   1.407  0.5316  1.4873  0.3802
 6258TIP3    H240266   4.485   1.505   1.487  0.0117 -0.1112  0.2438
 6259TIP3   OH240267   5.578   0.248   0.434  0.1938 -0.1218  0.3487
 6259TIP3    H140268   5.618   0.230   0.519 -0.1847 -1.3540  0.2867
 6259TIP3    H240269   5.643   0.219   0.370  0.7781  1.4901  0.2059
 6260TIP3   OH240270   1.427   3.437  14.089 -0.0389 -0.4441 -0.0908
 6260TIP3    H140271   1.353   3.376  14.091  0.1944 -0.6942  1.0428
 6260TIP3    H240272   1.503   3.384  14.115 -0.0631  0.6286  2.2547
 6261TIP3   OH240273   2.354   6.713   4.146 -0.6471  0.2384 -0.0731
 6261TIP3    H140274   2.384   6.685   4.059  0.4722 -0.6408  0.5746
 6261TIP3    H240275   2.421   6.679   4.206 -0.6454  2.0703  0.9945
 6262TIP3   OH240276   0.159   1.189   0.859  0.7116 -0.1794 -0.0692
 6262TIP3    H140277   0.129   1.278   0.879  0.1549 -0.5283  0.6429
 6262TIP3    H240278   0.107   1.132   0.916 -0.7220 -1.1773 -2.2973
 6263TIP3   OH240279   6.395   2.902  13.943  0.4587  0.3350  0.0777
 6263TIP3    H140280   6.451   2.827  13.924 -0.3371 -0.2848  0.1395
 6263TIP3    H240281   6.408   2.961  13.869  1.3961  0.3246  0.2234
 6264TIP3   OH240282   3.515   3.136  16.875 -0.2375  0.0335  0.3887
 6264TIP3    H140283   3.476   3.210  16.922 -0.0689 -0.1081  0.7554
 6264TIP3    H240284   3.590   3.173  16.829 -0.9160  0.3474 -0.4795
 6265TIP3   OH240285   0.661   1.521   4.791  0.1918  0.0977  0.2146
 6265TIP3    H140286   0.711   1.592   4.752  1.3415 -1.9579 -2.2649
 6265TIP3    H240287   0.661   1.539   4.885  3.3899  1.5344 -0.0105
 6266TIP3   OH240288   3.125   5.839   0.439  0.2641 -0.6479  0.0455
 6266TIP3    H140289   3.052   5.890   0.402  0.6969 -0.5916 -0.7400
 6266TIP3    H240290   3.096   5.818   0.528 -0.2661  0.2790  0.1057
 6267TIP3   OH240291   5.832   5.068  14.490 -0.5119  0.0329  0.5949
 6267TIP3    H140292   5.899   5.002  14.478  0.4342  0.2184  4.2820
 6267TIP3    H240293   5.758   5.037  14.438  1.9166 -0.8037 -2.5134
 6268TIP3   OH240294   5.339   5.173  15.942 -0.1119  0.4563  0.1526
 6268TIP3    H140295   5.314   5.085  15.912 -0.1945  0.3868  0.4163
 6268TIP3    H240296   5.414   5.157  15.999  0.4325  0.6474 -0.5090
 6269TIP3   OH240297   5.897   1.512  15.829 -0.0721 -0.0412  0.5659
 6269TIP3    H140298   5.991   1.495  15.833 -0.0502 -0.3259 -0.8484
 6269TIP3    H240299   5.872   1.532  15.919  1.3418  0.0399  0.9467
 6270TIP3   OH240300   1.406   5.845   4.992 -0.4801 -0.2287  0.2088
 6270TIP3    H140301   1.428   5.859   5.084 -2.1052 -1.6671  0.8709
 6270TIP3    H240302   1.345   5.771   4.994 -1.2024  0.2702 -1.9479
 6271TIP3   OH240303   2.428   1.139  15.600 -0.2899 -0.2195 -0.6327
 6271TIP3    H140304   2.395   1.122  15.688  1.3386  1.0675  0.2466
 6271TIP3    H240305   2.452   1.053  15.566  1.1636 -0.4854  1.0283
 6272TIP3   OH240306   3.342   4.255  13.333  0.0507 -0.1626  0.5760
 6272TIP3    H140307   3.417   4.279  13.387  0.0491  0.4690  0.3018
 6272TIP3    H240308   3.266   4.286  13.382  0.1605  2.4127 -0.8015
 6273TIP3   OH240309   6.776   1.372  16.085 -0.2421  0.0354  0.1440
 6273TIP3    H140310   6.723   1.334  16.015  0.0447  0.1537 -0.1334
 6273TIP3    H240311   6.762   1.466  16.078  1.3648  0.1987 -1.0139
 6274TIP3   OH240312   5.190   5.841   5.759 -0.5298 -0.3891 -0.1854
 6274TIP3    H140313   5.105   5.818   5.797 -0.8486 -0.3682 -0.8768
 6274TIP3    H240314   5.190   5.936   5.756 -1.0510 -0.4102 -1.4302
 6275TIP3   OH240315   1.202   3.110   4.101 -0.4956  0.1155 -0.3906
 6275TIP3    H140316   1.271   3.092   4.164  1.0111 -1.4060 -2.4162
 6275TIP3    H240317   1.164   3.024   4.081 -0.1848  0.4131 -2.4002
 6276TIP3   OH240318   2.789   2.268  17.221  0.0350  0.0268 -0.1554
 6276TIP3    H140319   2.761   2.177  17.210  0.2166 -0.0328 -0.1355
 6276TIP3    H240320   2.823   2.272  17.310 -2.3607  0.7551  0.7541
 6277TIP3   OH240321   2.265   6.517   0.282  0.3863  0.8142 -0.1919
 6277TIP3    H140322   2.207   6.533   0.357  0.2694 -2.1776  0.4185
 6277TIP3    H240323   2.208   6.477   0.216  1.0998  0.7233 -0.7580
 6278TIP3   OH240324   5.458   6.652  16.845  0.5902 -0.1788 -0.4091
 6278TIP3    H140325   5.469   6.631  16.752  2.2648  0.5649 -0.3905
 6278TIP3    H240326   5.531   6.711  16.865 -1.1156  1.5912  0.7759
 6279TIP3   OH240327   4.604   4.704  12.785 -0.0626 -0.4085 -0.1130
 6279TIP3    H140328   4.683   4.655  12.761 -0.7962 -1.1231 -1.1376
 6279TIP3    H240329   4.563   4.650  12.852 -1.6080 -1.9898 -2.2401
 6280TIP3   OH240330   6.095   0.343  16.931 -0.1555  0.1529 -0.0758
 6280TIP3    H140331   6.106   0.433  16.961  1.0062 -0.7721  2.4189
 6280TIP3    H240332   6.184   0.310  16.921 -0.5698 -0.6690 -1.1774
 6281TIP3   OH240333   0.592   4.398  12.120 -0.0679  0.6206 -0.0886
 6281TIP3    H140334   0.649   4.473  12.102  0.3714  0.3357  0.0974
 6281TIP3    H240335   0.525   4.402  12.052  1.5458 -0.4047 -1.7858
 6282TIP3   OH240336   2.840   5.437  13.848 -0.7029 -0.2872  0.0767
 6282TIP3    H140337   2.776   5.365  13.843 -0.0022 -0.8870 -0.2645
 6282TIP3    H240338   2.787   5.513  13.873 -1.3725 -1.0280  0.9929
 6283TIP3   OH240339   4.450   1.550   5.543 -1.0166 -0.4138 -0.7854
 6283TIP3    H140340   4.490   1.463   5.544  1.2663  0.6015  1.4035
 6283TIP3    H240341   4.479   1.589   5.461  1.6747 -0.0719  0.3117
 6284TIP3   OH240342   6.126   4.680  13.657 -0.2865  0.7090  0.2327
 6284TIP3    H140343   6.077   4.607  13.617  0.9365  0.0595 -0.0911
 6284TIP3    H240344   6.086   4.690  13.743  1.0136 -1.8916  1.2043
 6285TIP3   OH240345   2.977   1.444  16.653  0.2599  0.0863 -0.1941
 6285TIP3    H140346   2.883   1.465  16.653  0.3206  0.3876  0.5489
 6285TIP3    H240347   3.005   1.459  16.563 -0.1291  1.2729 -0.1252
 6286TIP3   OH240348   5.965   1.659  13.095 -0.0077  0.3672  1.1678
 6286TIP3    H140349   6.032   1.663  13.027 -1.4022  1.4667 -0.1815
 6286TIP3    H240350   5.912   1.582  13.072 -1.2835  1.5059  0.2041
 6287TIP3   OH240351   6.819   2.947  14.248  0.4039  0.2379 -0.3314
 6287TIP3    H140352   6.889   2.898  14.291 -0.7564 -0.9898  0.1705
 6287TIP3    H240353   6.861   3.030  14.222  1.6936  0.0549  1.0987
 6288TIP3   OH240354   4.668   3.076   5.651 -0.3995 -0.0495 -0.2530
 6288TIP3    H140355   4.580   3.045   5.633 -1.4819  2.1980  0.8858
 6288TIP3    H240356   4.712   3.075   5.566 -2.1121  0.5220 -1.1748
 6289TIP3   OH240357   2.640   1.058  16.275  0.6747 -0.9017  1.0338
 6289TIP3    H140358   2.654   1.017  16.190  0.5764  0.7189  0.2226
 6289TIP3    H240359   2.715   1.030  16.328  1.1417 -1.2824  0.1749
 6290TIP3   OH240360   6.055   0.547   2.092  0.1962 -0.3291  0.2585
 6290TIP3    H140361   6.127   0.515   2.039 -1.2870  0.9624 -2.7058
 6290TIP3    H240362   6.072   0.641   2.102 -0.2338 -0.3148  0.9560
 6291TIP3   OH240363   1.768   2.758   1.942  0.4104 -0.0234  0.4781
 6291TIP3    H140364   1.846   2.710   1.968  0.4923 -0.1173  0.0691
 6291TIP3    H240365   1.698   2.722   1.996  1.0877  1.7370  2.5874
 6292TIP3   OH240366   2.135   0.116  12.293 -0.4093 -0.1081  0.2244
 6292TIP3    H140367   2.117   0.207  12.317 -0.6906  0.5556 -2.4395
 6292TIP3    H240368   2.186   0.082  12.367 -2.8517  1.2733  2.6824
 6293TIP3   OH240369   3.780   1.451  11.821  0.0397 -0.0686 -0.0524
 6293TIP3    H140370   3.767   1.356  11.820 -1.6931  0.1629 -0.1798
 6293TIP3    H240371   3.721   1.484  11.754  0.9087  1.0811 -0.2607
 6294TIP3   OH240372   3.068   2.783   1.421 -0.1762 -0.2082 -0.1330
 6294TIP3    H140373   2.993   2.833   1.453  1.1642  1.8477 -0.0905
 6294TIP3    H240374   3.127   2.777   1.496  0.0037 -1.2580 -0.3469
 6295TIP3   OH240375   5.753   5.926   0.196 -0.2794 -0.3874 -0.5823
 6295TIP3    H140376   5.754   5.844   0.246  0.1118 -0.9589 -1.5121
 6295TIP3    H240377   5.835   5.969   0.218  0.9107 -1.6765 -2.4089
 6296TIP3   OH240378   2.638   2.853   0.174  0.1579 -0.0079  0.1405
 6296TIP3    H140379   2.543   2.845   0.175  0.2156 -0.6771  0.5054
 6296TIP3    H240380   2.661   2.866   0.266  0.4524 -0.2789  0.1055
 6297TIP3   OH240381   1.030   1.038   3.648 -0.0253  0.1476  0.3022
 6297TIP3    H140382   0.961   0.988   3.690  0.1577 -0.3592  0.0156
 6297TIP3    H240383   1.096   1.051   3.716  0.3505 -0.8227  0.1320
 6298TIP3   OH240384   6.458   5.434   2.206 -0.2245  0.3703  0.4184
 6298TIP3    H140385   6.365   5.455   2.195 -0.1716  0.7430  0.6617
 6298TIP3    H240386   6.479   5.466   2.294  0.0239 -0.1116  0.5338
 6299TIP3   OH240387   5.160   3.232   5.425  0.1093 -0.0153  0.5599
 6299TIP3    H140388   5.067   3.232   5.402  0.1123 -0.6220  0.5225
 6299TIP3    H240389   5.195   3.313   5.389  0.5585 -1.8746 -3.5007
 6300TIP3   OH240390   0.608   4.404   4.324 -0.1453 -0.0696 -0.4027
 6300TIP3    H140391   0.561   4.335   4.276 -0.9353  0.3238 -0.2014
 6300TIP3    H240392   0.643   4.360   4.401  0.4055 -0.5161 -0.8938
 6301TIP3   OH240393   0.039   4.578  17.040  0.4583 -0.1972  0.8272
 6301TIP3    H140394   0.072   4.573  17.130  0.2531  0.4064  0.9395
 6301TIP3    H240395  -0.021   4.503  17.032  0.2668 -0.0941  1.2832
 6302TIP3   OH240396   6.488   4.126  11.737  0.7638  0.0509  0.2553
 6302TIP3    H140397   6.520   4.186  11.669  1.0278  0.4826  0.7621
 6302TIP3    H240398   6.520   4.163  11.819 -0.1337 -0.1040  0.6758
 6303TIP3   OH240399   4.829   6.369   2.199 -0.1201 -0.3537  0.4114
 6303TIP3    H140400   4.916   6.385   2.162 -0.0469  0.6810  1.0079
 6303TIP3    H240401   4.820   6.434   2.268 -1.0893 -0.9213  0.8346
 6304TIP3   OH240402   4.448   4.035  15.837 -0.2571  0.1706 -0.0601
 6304TIP3    H140403   4.463   4.039  15.931 -1.1410  0.1892  0.0848
 6304TIP3    H240404   4.506   4.102  15.801 -0.0167  0.2582  0.4826
 6305TIP3   OH240405   2.281   1.655  12.022 -0.2732  0.8599 -0.5048
 6305TIP3    H140406   2.375   1.650  12.039 -0.2906  2.1615  0.0369
 6305TIP3    H240407   2.264   1.583  11.961  1.0313  0.4816 -0.4400
 6306TIP3   OH240408   3.409   6.393  16.512  0.1855 -0.2826 -0.3802
 6306TIP3    H140409   3.470   6.434  16.452  1.1524  2.6103  2.4370
 6306TIP3    H240410   3.337   6.455  16.520  0.0136 -0.6686  1.3042
 6307TIP3   OH240411   6.192   2.895  12.577 -0.1976 -0.3807  0.1108
 6307TIP3    H140412   6.115   2.935  12.536 -0.3138  0.3482  1.0303
 6307TIP3    H240413   6.211   2.951  12.652  2.0688  0.2357 -0.8853
 6308TIP3   OH240414   5.181   6.004   0.438 -0.0138 -0.6613  0.6700
 6308TIP3    H140415   5.181   5.934   0.504 -1.3135 -1.4493 -0.1408
 6308TIP3    H240416   5.162   6.084   0.488 -1.7493 -1.3615  1.1624
 6309TIP3   OH240417   3.324   5.475  11.594  0.0738 -0.3332 -0.3334
 6309TIP3    H140418   3.395   5.497  11.533 -0.5085  0.4523 -0.7243
 6309TIP3    H240419   3.250   5.452  11.537  0.0648 -1.3522  0.0721
 6310TIP3   OH240420   0.499   2.459   3.825  0.2899 -0.1958  0.0568
 6310TIP3    H140421   0.576   2.403   3.830 -1.2048 -2.1932  1.0673
 6310TIP3    H240422   0.444   2.419   3.757 -1.2296 -0.5574  1.4628
 6311TIP3   OH240423   0.683   3.867  16.435  0.3205  0.3319 -0.3276
 6311TIP3    H140424   0.774   3.837  16.426  0.0309 -0.5638 -0.3207
 6311TIP3    H240425   0.639   3.797  16.482 -0.4519  0.6203 -0.6116
 6312TIP3   OH240426   2.618   5.138   1.879  0.1757  0.1383 -0.1618
 6312TIP3    H140427   2.698   5.172   1.838  0.2032 -1.4363 -1.4284
 6312TIP3    H240428   2.646   5.059   1.926 -0.1515  1.0501  1.6478
 6313TIP3   OH240429   3.118   4.671  13.689  0.0059 -0.6615  0.4162
 6313TIP3    H140430   3.104   4.755  13.645 -0.6673 -0.5723  0.7890
 6313TIP3    H240431   3.127   4.694  13.781 -0.7422 -1.0422  0.5944
 6314TIP3   OH240432   3.013   6.744   1.611  0.0809  0.2478  0.5788
 6314TIP3    H140433   3.037   6.800   1.685  0.6478  0.3285  0.3390
 6314TIP3    H240434   2.935   6.786   1.574  0.2908  0.6813  0.6219
 6315TIP3   OH240435   1.975   2.148  14.109  0.0293 -0.6851  0.3876
 6315TIP3    H140436   1.904   2.091  14.139 -1.2997  0.8183  0.2153
 6315TIP3    H240437   1.990   2.123  14.018 -1.7232  0.3316 -0.2165
 6316TIP3   OH240438   4.055   3.265   2.380  0.2252  0.4326 -0.1785
 6316TIP3    H140439   4.129   3.276   2.322 -0.5881  2.3313 -0.8760
 6316TIP3    H240440   4.093   3.232   2.462  1.5315 -0.8386 -1.2648
 6317TIP3   OH240441   5.398   3.861  15.078 -0.4456  0.0608  0.2376
 6317TIP3    H140442   5.363   3.774  15.060 -0.4493  0.0586  0.2552
 6317TIP3    H240443   5.354   3.919  15.015  0.7096 -0.2036 -0.8555
 6318TIP3   OH240444   1.868   1.017  10.777  0.3259 -0.5729 -0.1124
 6318TIP3    H140445   1.843   0.947  10.717 -0.6439  0.2701 -0.7066
 6318TIP3    H240446   1.872   1.096  10.722 -0.8959  0.2686  0.9808
 6319TIP3   OH240447   5.955   2.103   4.327 -0.3574  0.2027  0.4600
 6319TIP3    H140448   6.006   2.181   4.306  1.5777 -0.1158  3.5935
 6319TIP3    H240449   5.863   2.131   4.319  0.3069  2.2896 -0.1077
 6320TIP3   OH240450   2.077   3.594   3.225  0.9143  0.0543 -0.1689
 6320TIP3    H140451   2.083   3.593   3.129 -1.7412 -1.1032 -0.3853
 6320TIP3    H240452   2.159   3.554   3.255  0.4403 -2.5392 -2.1134
 6321TIP3   OH240453   4.844   2.775   5.633  0.2950 -0.1526  0.1589
 6321TIP3    H140454   4.842   2.713   5.561 -0.3437 -1.2547  1.1039
 6321TIP3    H240455   4.885   2.854   5.596  0.3336 -0.8299 -1.2780
 6322TIP3   OH240456   5.029   1.357   3.241 -0.3879  0.3067 -0.2189
 6322TIP3    H140457   5.119   1.335   3.267  0.3344  2.8867 -0.4645
 6322TIP3    H240458   4.975   1.327   3.315  0.4978 -2.3145 -0.5682
 6323TIP3   OH240459   3.683   6.204   1.617  0.1359  0.3386 -0.1893
 6323TIP3    H140460   3.714   6.234   1.532 -0.4344  0.1682 -0.4626
 6323TIP3    H240461   3.701   6.276   1.677 -0.2941  0.8231 -0.6382
 6324TIP3   OH240462   1.548   5.419  16.627  0.2958 -0.0459 -0.2482
 6324TIP3    H140463   1.573   5.336  16.667  0.2636 -0.3174 -0.7964
 6324TIP3    H240464   1.596   5.422  16.544  1.4686  1.1614  0.4482
 6325TIP3   OH240465   3.682   3.450  13.275  0.1684  0.1066 -0.4199
 6325TIP3    H140466   3.613   3.514  13.292  0.6933  0.0128  2.5004
 6325TIP3    H240467   3.657   3.373  13.327  2.0919 -0.1810  0.1299
 6326TIP3   OH240468   1.646   0.780  16.240 -0.5126  0.7557 -0.3492
 6326TIP3    H140469   1.570   0.762  16.296 -1.7722  1.4836 -1.7804
 6326TIP3    H240470   1.659   0.698  16.192 -0.5373  0.7053 -0.2709
 6327TIP3   OH240471   0.206   1.732  11.606  0.2768  0.4498  0.3655
 6327TIP3    H140472   0.147   1.771  11.670  1.3386 -0.6977  2.0982
 6327TIP3    H240473   0.286   1.782  11.614  0.3047  0.4999 -0.2803
 6328TIP3   OH240474   0.943   5.968   2.139 -0.1226  0.1634 -0.0962
 6328TIP3    H140475   0.976   5.970   2.229  1.1078 -0.6981 -0.5133
 6328TIP3    H240476   1.020   5.987   2.085 -0.5568 -0.6971 -1.0405
 6329TIP3   OH240477   4.968   5.634   1.176 -0.1681  0.2923  0.0335
 6329TIP3    H140478   4.996   5.687   1.251 -1.9274  0.5922  0.4922
 6329TIP3    H240479   4.883   5.669   1.152 -0.2008 -0.6618 -1.3017
 6330TIP3   OH240480   0.538   3.743   2.522 -0.0292 -0.2854 -0.1546
 6330TIP3    H140481   0.491   3.786   2.594  0.1627 -1.7524  0.8846
 6330TIP3    H240482   0.592   3.677   2.566  0.1606 -1.1414 -1.6417
 6331TIP3   OH240483   5.509   4.535   5.591 -0.4904  0.0753 -0.0668
 6331TIP3    H140484   5.417   4.518   5.568 -0.7686 -0.1109  1.1643
 6331TIP3    H240485   5.515   4.631   5.593 -0.8734  0.0854  0.6891
 6332TIP3   OH240486   5.202   5.144  14.063 -0.1793 -0.0349  0.1398
 6332TIP3    H140487   5.178   5.219  14.117 -0.9467 -0.9588  1.0812
 6332TIP3    H240488   5.268   5.097  14.114 -0.8144 -0.8431  0.2154
 6333TIP3   OH240489   1.697   3.636  15.362  0.5792 -0.0025 -0.0202
 6333TIP3    H140490   1.736   3.678  15.285  1.4496  0.2992  0.5688
 6333TIP3    H240491   1.662   3.553  15.330  0.5747  0.3050 -0.8171
 6334TIP3   OH240492   0.785   5.363  13.631 -0.1958  0.0402 -0.6868
 6334TIP3    H140493   0.717   5.364  13.563 -1.6160  0.3236  0.7215
 6334TIP3    H240494   0.816   5.453  13.635 -0.8198  0.2385 -0.2615
 6335TIP3   OH240495   1.232   6.460   0.168 -0.2167 -0.0103 -0.0483
 6335TIP3    H140496   1.323   6.445   0.141 -0.1711  0.9425 -0.4524
 6335TIP3    H240497   1.183   6.387   0.130  0.0979  0.4520 -1.3786
 6336TIP3   OH240498   0.959   2.283  16.120 -0.3468 -0.4581  0.5308
 6336TIP3    H140499   1.051   2.300  16.141 -0.6691  0.7797  0.9946
 6336TIP3    H240500   0.961   2.243  16.034  0.6678 -0.9025  0.7530
 6337TIP3   OH240501   3.239   1.493   0.408 -0.0594  0.4927  0.5120
 6337TIP3    H140502   3.245   1.398   0.397 -0.5489  0.5355 -0.1417
 6337TIP3    H240503   3.195   1.505   0.492 -0.1590  0.1394  0.5105
 6338TIP3   OH240504   4.132   6.214   1.843  0.0306 -0.0836 -0.2533
 6338TIP3    H140505   4.075   6.225   1.919 -0.1489 -0.1506 -0.3780
 6338TIP3    H240506   4.193   6.145   1.869  2.1186  2.1967  1.1087
 6339TIP3   OH240507   1.539   6.601  14.074 -0.2825 -0.1380  0.0853
 6339TIP3    H140508   1.536   6.553  14.157  0.3146 -1.4251 -0.6181
 6339TIP3    H240509   1.603   6.670  14.088  0.2226 -0.6968  0.5219
 6340TIP3   OH240510   5.330   3.989   5.173  0.6845 -0.3074 -0.3109
 6340TIP3    H140511   5.372   4.012   5.255  1.7673 -2.8062 -0.1294
 6340TIP3    H240512   5.241   3.964   5.197  0.5755  0.2977 -0.0842
 6341TIP3   OH240513   3.203   3.506  12.457  0.6351  0.0624 -0.3286
 6341TIP3    H140514   3.145   3.433  12.480  1.5744 -1.0545 -1.4632
 6341TIP3    H240515   3.286   3.484  12.499  1.6843 -0.8222 -2.8383
 6342TIP3   OH240516   5.695   4.863   2.495 -0.0720  0.5580 -0.0052
 6342TIP3    H140517   5.755   4.823   2.558 -0.2600  1.3557  0.6934
 6342TIP3    H240518   5.716   4.822   2.412 -0.9331 -1.7176  0.8643
 6343TIP3   OH240519   3.232   6.060  13.296 -0.2312  0.3115  0.9161
 6343TIP3    H140520   3.255   5.975  13.335 -0.5622 -0.0872  0.2438
 6343TIP3    H240521   3.154   6.088  13.345  0.1704  0.4699  1.4773
 6344TIP3   OH240522   2.958   2.399  16.977 -0.3699  0.3574  0.3133
 6344TIP3    H140523   2.995   2.366  17.059  2.0833  1.6747 -0.1957
 6344TIP3    H240524   2.871   2.430  17.000 -0.4470 -1.0671  2.0108
 6345TIP3   OH240525   4.144   0.030   6.721  0.2665  0.0199 -0.4911
 6345TIP3    H140526   4.204   0.073   6.660  0.2492 -0.3243 -0.7559
 6345TIP3    H240527   4.067   0.008   6.668  0.5759 -0.9914 -0.5474
 6346TIP3   OH240528   4.423   6.477  11.926 -0.1322  0.2870  0.3280
 6346TIP3    H140529   4.329   6.476  11.947  0.0096  1.3224  1.0587
 6346TIP3    H240530   4.465   6.498  12.009  0.7042  0.5251 -0.1563
 6347TIP3   OH240531   4.702   1.049   1.677 -0.2950  0.4952 -0.0916
 6347TIP3    H140532   4.712   0.954   1.671 -2.6903  0.1067  1.2121
 6347TIP3    H240533   4.781   1.079   1.723  0.2690 -0.8985 -0.1377
 6348TIP3   OH240534   2.662   0.512  16.198  0.4287 -0.4616 -0.0341
 6348TIP3    H140535   2.596   0.446  16.178 -0.6155  0.6741 -0.3958
 6348TIP3    H240536   2.692   0.489  16.286 -0.1736 -1.2123 -0.0136
 6349TIP3   OH240537   4.304   6.202  13.177  0.3793 -0.6129 -0.1685
 6349TIP3    H140538   4.334   6.193  13.268  0.5631 -1.6918 -0.3396
 6349TIP3    H240539   4.360   6.270  13.140  2.0802 -2.0412 -0.2523
 6350TIP3   OH240540   4.662   6.533  12.451  0.4933  0.7510 -0.0795
 6350TIP3    H140541   4.580   6.500  12.416  1.8559 -1.7833 -1.0195
 6350TIP3    H240542   4.672   6.620  12.412 -0.5394  0.0594 -1.9211
 6351TIP3   OH240543   0.504   2.679  16.275 -0.6344  0.0575  0.6721
 6351TIP3    H140544   0.526   2.733  16.199  0.3489 -0.2372  0.7305
 6351TIP3    H240545   0.446   2.612  16.242  0.9732 -0.9675 -0.1474
 6352TIP3   OH240546   5.022   5.634   4.139  0.1823 -0.1064 -0.0009
 6352TIP3    H140547   4.956   5.611   4.073  0.3717 -0.8503  0.0578
 6352TIP3    H240548   4.986   5.711   4.183  0.4920  0.9792 -1.5884
 6353TIP3   OH240549   3.667   2.902   5.705 -0.2719  0.4565  0.8053
 6353TIP3    H140550   3.677   2.893   5.611  1.4986  0.3437  0.9956
 6353TIP3    H240551   3.670   2.996   5.722  3.0771  0.3435  1.1097
 6354TIP3   OH240552   0.957   0.302  16.963 -0.0092  0.1368 -0.1137
 6354TIP3    H140553   0.961   0.388  16.920 -1.1061 -1.4314 -3.5088
 6354TIP3    H240554   1.042   0.262  16.946 -0.6475 -0.7161 -1.4283
 6355TIP3   OH240555   2.424   6.424  14.385 -0.2377  0.4831  0.1780
 6355TIP3    H140556   2.387   6.461  14.465 -1.7800 -0.6784  0.0047
 6355TIP3    H240557   2.406   6.489  14.318 -2.3731 -0.2417  0.0071
 6356TIP3   OH240558   5.672   1.935  15.530  0.4379 -0.6015  0.1670
 6356TIP3    H140559   5.644   1.913  15.619  1.7260 -0.5549  0.6063
 6356TIP3    H240560   5.700   1.852  15.492 -1.0118 -0.7705 -0.5334
 6357TIP3   OH240561   0.608   6.219  17.083 -0.1871  0.0668  0.6224
 6357TIP3    H140562   0.698   6.244  17.103 -1.2903  3.8859  1.2129
 6357TIP3    H240563   0.603   6.226  16.987  0.0054  0.2763  0.6277
 6358TIP3   OH240564   6.450   5.402   1.729  0.3489 -0.0961 -0.0741
 6358TIP3    H140565   6.466   5.397   1.823 -0.5654 -0.4309  0.0677
 6358TIP3    H240566   6.538   5.411   1.691  0.8888 -1.7222  0.6965
 6359TIP3   OH240567   5.059   6.663  14.202 -0.3207  0.6885 -0.4949
 6359TIP3    H140568   5.113   6.688  14.277 -1.7358  1.1732  0.3713
 6359TIP3    H240569   4.971   6.653  14.238 -1.2232  1.9367 -2.2602
 6360TIP3   OH240570   0.933   4.810  14.786 -0.3228  0.0282  0.2877
 6360TIP3    H140571   0.916   4.766  14.703 -1.5639  0.6845  0.1814
 6360TIP3    H240572   0.943   4.902  14.763 -0.0054  0.1158  0.7752
 6361TIP3   OH240573   1.374   0.071  16.000  0.0896 -0.0508  0.0861
 6361TIP3    H140574   1.312   0.125  15.951  0.2741 -0.9338 -1.1297
 6361TIP3    H240575   1.357   0.093  16.092  0.2490  2.1761 -0.3851
 6362TIP3   OH240576   0.510   2.231  13.620 -0.2586 -0.3340 -0.1874
 6362TIP3    H140577   0.517   2.139  13.595  0.0376 -0.6060  0.8859
 6362TIP3    H240578   0.572   2.276  13.563 -0.9158 -0.6948 -1.2064
 6363TIP3   OH240579   5.658   3.788  10.712 -0.3622  0.1831  0.1493
 6363TIP3    H140580   5.681   3.844  10.638 -2.9970  1.5487  0.3104
 6363TIP3    H240581   5.567   3.764  10.697 -0.5432 -0.6038  2.2914
 6364TIP3   OH240582   3.736   3.263  14.439  0.2298  0.6264  0.0717
 6364TIP3    H140583   3.791   3.297  14.509  0.6406 -1.0799  0.5948
 6364TIP3    H240584   3.773   3.302  14.359  2.1581 -0.3989  0.4266
 6365TIP3   OH240585   3.974   1.045   3.585 -0.4228 -0.5858  0.0642
 6365TIP3    H140586   4.059   1.054   3.629  0.5709 -0.8228 -1.7641
 6365TIP3    H240587   3.931   1.130   3.599  0.4614 -0.1666  0.2944
 6366TIP3   OH240588   1.229   2.216  11.443  0.4825  0.3801 -0.1097
 6366TIP3    H140589   1.290   2.253  11.507  2.3670  0.0954 -1.6997
 6366TIP3    H240590   1.274   2.139  11.409 -0.4145  0.6072 -1.8859
 6367TIP3   OH240591   2.398   1.166   1.197 -0.2737 -0.6646 -0.3046
 6367TIP3    H140592   2.315   1.136   1.235  0.0799 -0.9290  0.2683
 6367TIP3    H240593   2.405   1.117   1.115 -0.9587 -0.2196 -0.6294
 6368TIP3   OH240594   1.651   0.803   1.500  0.3122  0.2205 -0.1863
 6368TIP3    H140595   1.708   0.817   1.425  0.3470 -1.1475 -0.4269
 6368TIP3    H240596   1.643   0.708   1.507 -0.4263  0.3555  0.9849
 6369TIP3   OH240597   2.017   4.982   0.647  0.5467 -0.5326 -0.4801
 6369TIP3    H140598   2.035   4.983   0.553  1.4729 -0.4516 -0.3014
 6369TIP3    H240599   2.097   4.948   0.687  0.7351  0.9061  0.3936
 6370TIP3   OH240600   2.472   0.191  16.619  0.2655  0.1002  0.0863
 6370TIP3    H140601   2.476   0.286  16.620 -0.0939  0.1273  2.2438
 6370TIP3    H240602   2.551   0.163  16.667  0.8628 -0.7202 -1.3462
 6371TIP3   OH240603   1.040   2.340   2.863  0.2520 -0.0397 -0.1402
 6371TIP3    H140604   0.945   2.335   2.873  0.5165 -2.9900  1.6798
 6371TIP3    H240605   1.062   2.431   2.883 -2.1896  0.7293 -0.7679
 6372TIP3   OH240606   6.147   1.494   2.329 -0.7739  0.3200  0.3821
 6372TIP3    H140607   6.212   1.525   2.392  0.4727 -0.6027 -0.4133
 6372TIP3    H240608   6.199   1.456   2.258 -2.1854 -0.0871 -0.4624
 6373TIP3   OH240609   3.209   4.150  16.495 -0.0627  0.0219  0.1256
 6373TIP3    H140610   3.198   4.084  16.564 -0.2120 -1.3455 -1.1706
 6373TIP3    H240611   3.276   4.114  16.438 -0.8219  0.5477 -1.1282
 6374TIP3   OH240612   2.627   3.499   4.330  0.1893  0.3785 -0.3459
 6374TIP3    H140613   2.691   3.428   4.321 -0.0342 -0.0009  1.0041
 6374TIP3    H240614   2.670   3.564   4.385  0.0224  0.8660 -0.7818
 6375TIP3   OH240615   0.237   3.519   3.202 -0.0480 -0.1756 -0.2483
 6375TIP3    H140616   0.221   3.428   3.226 -0.7605 -0.1151 -0.4643
 6375TIP3    H240617   0.277   3.558   3.280 -1.1048 -0.3129  0.3769
 6376TIP3   OH240618   5.983   0.181   0.861 -0.1807  0.5350  0.5129
 6376TIP3    H140619   6.060   0.235   0.874 -0.0325  0.7899 -1.2638
 6376TIP3    H240620   5.911   0.231   0.901  0.2268  1.2923  0.3052
 6377TIP3   OH240621   5.844   0.077  13.093 -0.1398 -0.3414 -0.0281
 6377TIP3    H140622   5.874   0.055  13.005  0.5071 -2.0235  0.5960
 6377TIP3    H240623   5.825  -0.007  13.134 -0.4825  0.4246  1.4422
 6378TIP3   OH240624   4.551   2.559  13.269 -0.0341 -0.1950  0.0055
 6378TIP3    H140625   4.538   2.484  13.211 -2.0346  0.8093 -0.8876
 6378TIP3    H240626   4.575   2.631  13.211  0.4627  0.2061  0.6990
 6379TIP3   OH240627   5.324   2.282   1.564  0.1837 -0.5339  0.0461
 6379TIP3    H140628   5.299   2.368   1.531 -0.4764 -0.3941  0.8992
 6379TIP3    H240629   5.412   2.267   1.528  0.0331  0.2058 -0.6420
 6380TIP3   OH240630   5.592   0.296   5.621  0.0963 -0.5871 -0.5224
 6380TIP3    H140631   5.670   0.267   5.668 -0.1244  1.7088  1.3415
 6380TIP3    H240632   5.550   0.216   5.592  1.3100 -1.9798  1.4644
 6381TIP3   OH240633   5.598   0.655  12.475  0.5698  0.6032 -0.5221
 6381TIP3    H140634   5.527   0.672  12.538  0.9077  1.5570 -0.3764
 6381TIP3    H240635   5.556   0.611  12.402  0.2243 -0.8385  0.5202
 6382TIP3   OH240636   4.831   6.358   1.774  0.1424  0.0315  0.0828
 6382TIP3    H140637   4.841   6.346   1.679  2.1965  0.5193  0.2185
 6382TIP3    H240638   4.857   6.449   1.789  3.2630 -1.0405  1.5547
 6383TIP3   OH240639   4.127   0.832  12.347 -0.0004  0.1116  0.1781
 6383TIP3    H140640   4.091   0.752  12.306 -2.0237  1.5194 -0.8847
 6383TIP3    H240641   4.159   0.884  12.273  1.3445  0.2871  0.8756
 6384TIP3   OH240642   4.708   2.341  14.628  0.3495 -0.5810 -0.9003
 6384TIP3    H140643   4.714   2.266  14.687  1.1495  1.6212  1.9598
 6384TIP3    H240644   4.793   2.384  14.635 -0.1108  0.6247 -2.4395
 6385TIP3   OH240645   4.003   2.909  10.894 -0.2896  0.0830  0.2007
 6385TIP3    H140646   4.007   2.814  10.880  1.1096  0.2650 -0.7249
 6385TIP3    H240647   4.072   2.944  10.837 -1.1312  1.6937  0.1652
 6386TIP3   OH240648   4.089   0.091  11.081 -0.1786  0.2355  0.0002
 6386TIP3    H140649   4.036   0.011  11.086  0.7021 -0.2305  2.7497
 6386TIP3    H240650   4.032   0.155  11.040 -2.0516 -0.9229  0.7208
 6387TIP3   OH240651   4.116   6.114   1.306  0.4601  0.1518 -0.8337
 6387TIP3    H140652   4.053   6.165   1.356  1.6976  0.7496  0.1725
 6387TIP3    H240653   4.188   6.100   1.367  0.1097 -2.8972 -1.0545
 6388TIP3   OH240654   3.722   0.360   0.282  0.3658  0.0969  0.4914
 6388TIP3    H140655   3.652   0.421   0.305  1.2755  1.1500  0.4816
 6388TIP3    H240656   3.723   0.297   0.355 -0.6605 -0.0048  0.4314
 6389TIP3   OH240657   4.190   6.310  15.962 -0.0584  0.1446  0.7545
 6389TIP3    H140658   4.251   6.382  15.978  1.0839 -0.5805 -0.2567
 6389TIP3    H240659   4.244   6.231  15.968 -0.8240 -0.4886 -0.5306
 6390TIP3   OH240660   3.560   1.027   3.411  0.3516  0.0170 -0.5935
 6390TIP3    H140661   3.576   0.957   3.475 -0.1084 -0.9854 -1.5520
 6390TIP3    H240662   3.576   1.108   3.459  0.1059 -0.7255  0.7717
 6391TIP3   OH240663   6.671   4.792  15.348 -0.3013 -0.3221  0.1048
 6391TIP3    H140664   6.691   4.885  15.352 -2.8025  0.3014 -0.4762
 6391TIP3    H240665   6.753   4.748  15.367  0.8072  2.0105  0.8481
 6392TIP3   OH240666   6.467   1.938   5.061  0.5332  0.3477  0.2471
 6392TIP3    H140667   6.530   1.917   4.993  0.7032  1.5137  0.0372
 6392TIP3    H240668   6.405   1.864   5.060  0.1994  0.6295 -1.5546
 6393TIP3   OH240669   4.647   5.209   1.960  0.0656 -0.4277  0.4625
 6393TIP3    H140670   4.678   5.300   1.967 -1.8917  0.1239  2.2506
 6393TIP3    H240671   4.593   5.196   2.037 -0.5103 -2.8234 -0.3108
 6394TIP3   OH240672   2.172   5.990   5.255  0.0651 -0.6583  0.4009
 6394TIP3    H140673   2.124   6.059   5.209  2.2777  0.3733 -0.4547
 6394TIP3    H240674   2.260   5.993   5.217  0.1091 -4.2308  0.0658
 6395TIP3   OH240675   2.539   6.290  16.909  0.3343 -0.1054 -0.0296
 6395TIP3    H140676   2.501   6.370  16.945  0.7201 -0.4139  1.0618
 6395TIP3    H240677   2.607   6.265  16.971 -0.6480 -2.0075  0.3235
 6396TIP3   OH240678   6.747   3.375  14.494  0.0837  0.0434 -0.0402
 6396TIP3    H140679   6.825   3.430  14.487 -0.9136  1.5619  0.2781
 6396TIP3    H240680   6.685   3.429  14.544 -0.6496 -1.7158  0.9611
 6397TIP3   OH240681   1.887   2.597   3.707  0.5798 -0.0118 -0.1434
 6397TIP3    H140682   1.974   2.638   3.711 -0.1330  1.5700 -0.8346
 6397TIP3    H240683   1.864   2.598   3.614  0.3268 -1.5417 -0.1155
 6398TIP3   OH240684   2.959   1.746  14.750  0.4062  0.1016  0.4997
 6398TIP3    H140685   2.988   1.714  14.665  1.2759 -1.6450  1.4327
 6398TIP3    H240686   2.913   1.672  14.789  0.9928  0.5152  2.0180
 6399TIP3   OH240687   5.240   3.955   4.779 -0.0888  0.1576  0.1924
 6399TIP3    H140688   5.180   3.983   4.710 -0.2047 -0.7755 -0.0978
 6399TIP3    H240689   5.191   3.966   4.860 -0.3379  0.2186  0.0318
 6400TIP3   OH240690   0.222   0.035  16.499  0.7651 -0.0852 -0.4224
 6400TIP3    H140691   0.155   0.099  16.521  0.3528 -0.9069  0.7315
 6400TIP3    H240692   0.288   0.045  16.567 -0.0543 -1.9731  0.6831
 6401TIP3   OH240693   4.222   5.552  13.328 -0.0311 -0.1317 -0.2283
 6401TIP3    H140694   4.273   5.554  13.408 -0.9355  0.9135  0.3435
 6401TIP3    H240695   4.205   5.459  13.312 -2.5126 -0.2078  2.5225
 6402TIP3   OH240696   5.774   4.559   5.477 -0.1511 -0.5702 -0.1973
 6402TIP3    H140697   5.795   4.499   5.548 -0.2669  0.8554  1.0810
 6402TIP3    H240698   5.858   4.579   5.436 -0.3414 -3.1443 -1.9382
 6403TIP3   OH240699   5.636   5.523   4.954  0.5208 -0.7562 -0.4183
 6403TIP3    H140700   5.652   5.616   4.968 -0.2529 -0.4969 -1.1500
 6403TIP3    H240701   5.629   5.515   4.859  0.2978 -1.5095 -0.3388
 6404TIP3   OH240702   3.567   3.017   6.540 -0.7115 -1.2544  0.0250
 6404TIP3    H140703   3.617   3.088   6.501 -2.2507 -0.0061  0.2841
 6404TIP3    H240704   3.552   3.045   6.631 -0.7622 -2.2106  0.3193
 6405TIP3   OH240705   4.953   1.973   0.900  0.1257 -0.4609  0.2746
 6405TIP3    H140706   4.968   2.060   0.938  1.3447 -0.6683  0.3063
 6405TIP3    H240707   4.861   1.973   0.875 -0.0663  0.5851  0.9378
 6406TIP3   OH240708   2.612   3.899   4.819 -0.1931  0.1653  0.2525
 6406TIP3    H140709   2.618   3.994   4.828  2.1872  0.5403 -3.8630
 6406TIP3    H240710   2.699   3.868   4.845 -0.2893 -0.6624 -0.4053
 6407TIP3   OH240711   5.299   4.444  15.060 -0.0754 -0.8330  0.8444
 6407TIP3    H140712   5.369   4.497  15.097  0.4874 -0.6489 -0.4431
 6407TIP3    H240713   5.344   4.386  14.998 -1.2254  0.2830 -1.0811
 6408TIP3   OH240714   4.519   2.967   4.366 -0.0985 -0.6166  0.6083
 6408TIP3    H140715   4.526   3.044   4.310 -1.2905  0.1959  1.5415
 6408TIP3    H240716   4.558   2.993   4.449 -0.2931 -1.0858  0.8521
 6409TIP3   OH240717   3.621   1.312   4.305 -0.4362 -0.0976 -0.0762
 6409TIP3    H140718   3.674   1.258   4.364  1.3482  2.6771  0.9149
 6409TIP3    H240719   3.573   1.371   4.362  0.5335  1.9381 -1.3167
 6410TIP3   OH240720   6.276   5.932   2.196 -0.3905  0.3579  0.1768
 6410TIP3    H140721   6.298   5.935   2.103 -0.4301 -0.6240  0.1299
 6410TIP3    H240722   6.317   6.010   2.233  0.2301  0.3755 -0.5369
 6411TIP3   OH240723   5.763   5.027  12.883 -0.4565 -0.1953  0.8488
 6411TIP3    H140724   5.830   4.975  12.837  1.3594  1.0268  2.0599
 6411TIP3    H240725   5.793   5.030  12.973 -0.1519  3.5228  0.6778
 6412TIP3   OH240726   1.871   0.983   1.010 -0.5063  0.2035 -0.0815
 6412TIP3    H140727   1.814   1.040   1.062 -0.1745  0.1190  0.3732
 6412TIP3    H240728   1.812   0.944   0.946 -1.6434 -2.3081  2.3499
 6413TIP3   OH240729   6.060   3.538  14.940 -0.5295 -0.8553  0.9659
 6413TIP3    H140730   6.115   3.476  14.891 -0.1269  0.1029  0.1852
 6413TIP3    H240731   6.097   3.624  14.920 -1.7506 -0.2705  1.1644
 6414TIP3   OH240732   0.020   0.842  16.827 -0.9713 -0.2321  0.3320
 6414TIP3    H140733  -0.004   0.841  16.735 -0.6679  0.1584  0.2465
 6414TIP3    H240734   0.114   0.822  16.827 -1.5075 -2.9748  0.7395
 6415TIP3   OH240735   0.653   2.869   5.202 -0.2635 -0.1601  0.3786
 6415TIP3    H140736   0.689   2.790   5.244 -1.2466 -0.3580  0.8618
 6415TIP3    H240737   0.594   2.906   5.268 -0.6779  0.3462 -0.2783
 6416TIP3   OH240738   3.657   3.387  13.821  0.2777 -0.7847  0.0499
 6416TIP3    H140739   3.730   3.416  13.876  0.7526  0.0308 -0.9935
 6416TIP3    H240740   3.683   3.411  13.732 -1.8140  0.6960 -0.1977
 6417TIP3   OH240741   1.083   6.390  15.589  0.4741 -0.1890 -0.1188
 6417TIP3    H140742   1.116   6.424  15.672 -0.0380  0.1380 -0.0451
 6417TIP3    H240743   1.026   6.460  15.556 -1.5275 -1.4400  0.5909
 6418TIP3   OH240744   0.530   5.146  16.100  0.2600 -0.5838 -0.3118
 6418TIP3    H140745   0.568   5.090  16.031  0.2611 -0.1002 -0.7047
 6418TIP3    H240746   0.475   5.208  16.053  0.1967 -0.2988  0.1334
 6419TIP3   OH240747   2.078   0.298   2.003  0.3092 -0.4094  0.4120
 6419TIP3    H140748   2.037   0.262   1.924 -1.0249 -0.7570  1.2489
 6419TIP3    H240749   2.008   0.346   2.047  1.3111  0.6611  0.8681
 6420TIP3   OH240750   5.257   2.540  12.230  0.3936  0.2780 -0.4935
 6420TIP3    H140751   5.184   2.505  12.180 -0.7094  1.3090  0.3782
 6420TIP3    H240752   5.237   2.519  12.321  0.9452  0.9889 -0.1996
 6421TIP3   OH240753   0.864   5.211   6.651  0.3121 -0.2093  0.1135
 6421TIP3    H140754   0.838   5.288   6.601  1.0741  0.2367  0.4117
 6421TIP3    H240755   0.781   5.170   6.676 -0.1063  0.9984  0.7209
 6422TIP3   OH240756   2.269   1.031  16.149  0.2305  0.4429 -0.2698
 6422TIP3    H140757   2.325   1.024  16.071  1.6996 -0.6211  0.8498
 6422TIP3    H240758   2.189   0.985  16.125  1.1376 -0.9427 -0.7676
 6423TIP3   OH240759   5.782   3.413   5.490  0.1259  0.1762 -0.3294
 6423TIP3    H140760   5.822   3.434   5.405  0.6430  2.0882  0.3661
 6423TIP3    H240761   5.713   3.479   5.501 -1.5057 -1.4828 -0.3003
 6424TIP3   OH240762   0.308   6.317   1.612 -0.1476 -0.0144 -0.3100
 6424TIP3    H140763   0.398   6.290   1.590  0.0190  0.0675  0.2670
 6424TIP3    H240764   0.253   6.265   1.554  0.2278 -0.7876  0.0286
 6425TIP3   OH240765   3.113   4.885   2.988 -0.4493  0.4172 -0.6313
 6425TIP3    H140766   3.205   4.871   2.965  0.0957  1.2104  1.0515
 6425TIP3    H240767   3.115   4.938   3.067 -2.3092 -1.7786  0.9493
 6426TIP3   OH240768   0.206   1.630  14.212  0.0402 -0.2709  0.3288
 6426TIP3    H140769   0.114   1.622  14.235 -0.3945 -1.4503 -1.6587
 6426TIP3    H240770   0.246   1.677  14.285 -2.3943  1.4936  0.5839
 6427TIP3   OH240771   6.604   4.527  15.676  0.6846 -0.1504  0.5993
 6427TIP3    H140772   6.541   4.455  15.674 -0.1388  0.5760 -1.8119
 6427TIP3    H240773   6.677   4.496  15.622 -0.5147  1.4749 -2.1012
 6428TIP3   OH240774   4.815   6.298  16.257  0.6718  0.2136 -0.1841
 6428TIP3    H140775   4.830   6.387  16.291  1.5679  0.5594 -1.4526
 6428TIP3    H240776   4.882   6.286  16.190 -1.4629 -0.1834 -2.3514
 6429TIP3   OH240777   6.535   4.642   3.539  0.0414 -0.6029  0.5565
 6429TIP3    H140778   6.546   4.616   3.631  1.6801 -1.3536  0.1762
 6429TIP3    H240779   6.508   4.561   3.494 -0.4490 -0.3099  0.3207
 6430TIP3   OH240780   4.566   5.961  11.425 -0.4740 -0.3236  0.0361
 6430TIP3    H140781   4.590   5.930  11.337  1.7335  1.2076  0.0520
 6430TIP3    H240782   4.528   6.047  11.410 -0.3837 -0.1922  0.5669
 6431TIP3   OH240783   1.311   6.260  12.724 -0.1325  0.2523  0.8830
 6431TIP3    H140784   1.342   6.342  12.763 -0.6697  1.8205 -1.9217
 6431TIP3    H240785   1.230   6.240  12.771  1.6661 -0.4721  3.8259
 6432TIP3   OH240786   4.177   1.559   4.688 -0.6615 -0.2430 -0.2898
 6432TIP3    H140787   4.223   1.498   4.631  1.1289  0.7598  0.0691
 6432TIP3    H240788   4.238   1.577   4.759 -1.1951  1.9078 -0.3403
 6433TIP3   OH240789   6.734   6.605   5.819  0.5044  0.7372 -0.1945
 6433TIP3    H140790   6.644   6.616   5.787  0.0352 -1.8500  0.1213
 6433TIP3    H240791   6.787   6.656   5.758 -0.9438  0.4288 -1.7566
 6434TIP3   OH240792   4.863   3.482  12.881  0.1351  0.3620  1.1463
 6434TIP3    H140793   4.800   3.554  12.873 -0.9014 -0.5801  0.6729
 6434TIP3    H240794   4.948   3.525  12.888 -0.5606  1.6530  1.7783
 6435TIP3   OH240795   5.430   0.281   2.504  1.0389 -0.6560 -0.8968
 6435TIP3    H140796   5.491   0.265   2.576  1.5300 -0.6504 -1.3107
 6435TIP3    H240797   5.422   0.196   2.460  0.5442 -0.7188 -0.6792
 6436TIP3   OH240798   4.442   1.401  13.200 -0.4921  0.1783 -0.0349
 6436TIP3    H140799   4.396   1.391  13.283 -1.3158 -0.5749 -0.5672
 6436TIP3    H240800   4.478   1.314  13.182 -1.2300  0.0617 -0.9798
 6437TIP3   OH240801   6.672   4.214   1.526  0.4452  0.6356 -0.6617
 6437TIP3    H140802   6.659   4.138   1.469 -0.0022  0.0554  0.2088
 6437TIP3    H240803   6.763   4.208   1.555 -0.1879 -0.7148  1.0621
 6438TIP3   OH240804   0.263   1.643   0.021  0.1903 -0.1567 -0.2917
 6438TIP3    H140805   0.202   1.598   0.080  0.4966 -1.5866 -1.0353
 6438TIP3    H240806   0.350   1.616   0.051  0.4046  0.5458 -0.2785
 6439TIP3   OH240807   4.682   6.802  11.730 -0.3299 -0.1641  0.2827
 6439TIP3    H140808   4.690   6.707  11.724 -2.2646 -0.2282 -1.8496
 6439TIP3    H240809   4.590   6.820  11.711  0.1137  2.1742  0.2076
 6440TIP3   OH240810   0.706   3.455   4.014  0.1228  0.2147 -0.1120
 6440TIP3    H140811   0.657   3.513   4.073 -0.2647 -1.3447  1.1348
 6440TIP3    H240812   0.639   3.421   3.954  0.0263 -0.2832  0.2684
 6441TIP3   OH240813   6.131   1.805   5.402 -0.2452 -0.0011  0.9606
 6441TIP3    H140814   6.146   1.814   5.496 -0.7583  0.4233  1.0012
 6441TIP3    H240815   6.052   1.855   5.385 -0.5707 -0.6975  0.4208
 6442TIP3   OH240816   1.644   5.728  10.966 -0.3767 -0.3802 -0.1318
 6442TIP3    H140817   1.567   5.687  10.928 -2.2451  0.4429  2.6026
 6442TIP3    H240818   1.689   5.769  10.892 -2.3990 -1.1365 -1.8136
 6443TIP3   OH240819   1.568   4.530  10.566  0.3758  1.2424 -0.9803
 6443TIP3    H140820   1.629   4.592  10.526  0.8044  2.4723  1.4703
 6443TIP3    H240821   1.618   4.491  10.638 -0.7206 -0.0928 -0.9269
 6444TIP3   OH240822   6.234   4.728  15.651  0.1934  0.0402  0.1342
 6444TIP3    H140823   6.229   4.660  15.583  1.1568 -1.3912  1.4622
 6444TIP3    H240824   6.316   4.773  15.634  0.0376  0.2296 -0.1366
 6445TIP3   OH240825   2.047   4.981   0.046  0.2165 -0.1788 -0.3219
 6445TIP3    H140826   2.120   5.038   0.065 -0.3686 -0.3915  2.7171
 6445TIP3    H240827   2.087   4.896   0.027  0.8573  0.2489 -0.8908
 6446TIP3   OH240828   1.288   3.470   2.596 -0.4900  0.4629 -0.6002
 6446TIP3    H140829   1.275   3.417   2.675 -0.1770  0.6615 -0.4184
 6446TIP3    H240830   1.365   3.523   2.614 -0.3252  0.3998 -1.1011
 6447TIP3   OH240831   2.961   4.731  10.467 -0.8704 -0.2096 -0.0320
 6447TIP3    H140832   2.944   4.642  10.498 -2.1566 -0.2209 -0.7049
 6447TIP3    H240833   3.049   4.752  10.499 -1.0838 -1.2209  1.2681
 6448TIP3   OH240834   6.604   0.356   5.189  0.1626  0.2421  0.1370
 6448TIP3    H140835   6.509   0.359   5.189  0.1927  1.7227  0.8589
 6448TIP3    H240836   6.626   0.270   5.154 -1.4255  0.3345 -1.1204
 6449TIP3   OH240837   1.935   5.209  14.059  0.2679 -0.4596  0.3729
 6449TIP3    H140838   1.845   5.216  14.026  0.7262  0.5879 -0.7097
 6449TIP3    H240839   1.966   5.299  14.062  1.9530 -0.9584 -1.2340
 6450TIP3   OH240840   1.214   0.930   2.817  0.5140 -0.6088  0.1626
 6450TIP3    H140841   1.291   0.904   2.868 -0.5629 -1.4164  1.4006
 6450TIP3    H240842   1.200   0.858   2.756  1.0359 -0.2260 -0.4170
 6451TIP3   OH240843   3.130   6.491   0.847  0.3049  0.0348 -0.0056
 6451TIP3    H140844   3.166   6.519   0.931 -0.3664  0.2505  0.2154
 6451TIP3    H240845   3.163   6.554   0.783  1.8941 -0.8864 -0.1267
 6452TIP3   OH240846   1.869   0.501  14.635 -0.1517 -0.6177 -0.1582
 6452TIP3    H140847   1.851   0.595  14.641  2.6175  0.0621 -1.5610
 6452TIP3    H240848   1.808   0.470  14.567  0.0783  0.5040 -0.8986
 6453TIP3   OH240849   1.437   3.529   3.136  0.3440 -0.4687  0.8983
 6453TIP3    H140850   1.432   3.593   3.207  2.6590 -1.2466  1.8068
 6453TIP3    H240851   1.477   3.577   3.064  0.0374 -0.2900  0.8455
 6454TIP3   OH240852   6.474   0.777  16.714  0.5991  0.2999  0.3195
 6454TIP3    H140853   6.384   0.766  16.746  0.6355 -0.5052  0.1492
 6454TIP3    H240854   6.471   0.857  16.662  0.0388  0.4168  0.5248
 6455TIP3   OH240855   3.750   2.726   0.767 -0.5123  0.0143  0.0619
 6455TIP3    H140856   3.739   2.813   0.729  0.5002  0.0005 -0.2726
 6455TIP3    H240857   3.702   2.731   0.850 -0.5989  0.8390 -0.0263
 6456TIP3   OH240858   1.784   6.046   5.680  0.0824  0.3151 -0.4226
 6456TIP3    H140859   1.851   5.992   5.638 -2.1069 -3.9840  1.3797
 6456TIP3    H240860   1.708   6.037   5.623 -1.3170 -1.3208  1.6425
 6457TIP3   OH240861   1.417   5.034  16.988 -0.3161 -0.5568 -0.3215
 6457TIP3    H140862   1.381   5.121  16.976 -0.7053 -0.7713 -0.7015
 6457TIP3    H240863   1.381   5.004  17.072 -1.3856 -0.9444 -0.9038
 6458TIP3   OH240864   2.037   4.442  11.349 -0.2256 -0.3864  0.3051
 6458TIP3    H140865   1.983   4.414  11.275 -1.0123  1.6328  0.0910
 6458TIP3    H240866   2.036   4.366  11.408 -0.8465 -1.4619 -1.0449
 6459TIP3   OH240867   5.576   6.772   5.757 -0.1130 -1.0205 -0.2908
 6459TIP3    H140868   5.522   6.823   5.696  2.1487  0.7555 -0.9240
 6459TIP3    H240869   5.514   6.724   5.811 -2.2288 -1.5658 -3.1025
 6460TIP3   OH240870   2.787   2.693   3.710  0.2859  0.1233  0.3103
 6460TIP3    H140871   2.859   2.634   3.735  0.5176 -0.0512 -0.7304
 6460TIP3    H240872   2.719   2.677   3.775 -0.0282 -2.0208 -0.5007
 6461TIP3   OH240873   0.886   4.898  12.090  0.3402 -0.9215  0.2758
 6461TIP3    H140874   0.815   4.917  12.152 -1.4611  2.3180 -2.5908
 6461TIP3    H240875   0.943   4.974  12.095 -1.5583  0.9584 -4.2118
 6462TIP3   OH240876   2.203   1.787   1.444 -0.2905 -0.1848 -0.2481
 6462TIP3    H140877   2.261   1.760   1.372  0.3431  0.5031 -0.0076
 6462TIP3    H240878   2.115   1.765   1.413  0.1988 -2.6342 -0.0022
 6463TIP3   OH240879   5.174   0.274   4.923 -0.3796  0.3494  0.3043
 6463TIP3    H140880   5.176   0.234   5.010 -1.0542 -0.1676  0.0946
 6463TIP3    H240881   5.265   0.284   4.898 -0.2003 -0.7260  0.5203
 6464TIP3   OH240882   1.875   5.727  14.569  0.0435 -0.0712 -0.1894
 6464TIP3    H140883   1.938   5.694  14.504  0.5943  1.2500 -0.3472
 6464TIP3    H240884   1.790   5.723  14.525  0.4647  1.1695 -1.1362
 6465TIP3   OH240885   6.216   6.492  10.668  0.1059 -0.2365 -0.5519
 6465TIP3    H140886   6.261   6.553  10.609  1.4338 -0.7516 -0.0837
 6465TIP3    H240887   6.197   6.544  10.746  0.0319 -0.0646 -0.6840
 6466TIP3   OH240888   4.481   3.460   5.024  0.4869  0.3679 -0.0613
 6466TIP3    H140889   4.483   3.377   4.978  0.0101 -0.3521  1.1988
 6466TIP3    H240890   4.551   3.454   5.089  0.4357  0.9402  0.0505
 6467TIP3   OH240891   4.512   0.626  12.710  0.1110  0.8974 -0.2707
 6467TIP3    H140892   4.566   0.547  12.705 -0.9220  0.0216  1.6411
 6467TIP3    H240893   4.476   0.637  12.622  1.2743 -0.0287 -0.8703
 6468TIP3   OH240894   0.084   4.895  14.292 -0.0679  0.6332  0.1418
 6468TIP3    H140895   0.117   4.814  14.253  0.7701  0.7073  0.7013
 6468TIP3    H240896  -0.004   4.905  14.254 -0.2897 -0.6822  0.2852
 6469TIP3   OH240897   1.352   1.292  14.482  0.1289  0.0023  0.3411
 6469TIP3    H140898   1.367   1.200  14.505 -1.9284  0.0965  2.1559
 6469TIP3    H240899   1.437   1.322  14.450  0.4185 -2.9752 -1.9436
 6470TIP3   OH240900   5.575   6.138  11.930 -0.6460  0.4746 -0.5020
 6470TIP3    H140901   5.612   6.073  11.872  2.3244 -1.3947  3.2283
 6470TIP3    H240902   5.624   6.218  11.911  1.4185 -0.5282  0.4050
 6471TIP3   OH240903   0.069   6.456   0.833 -0.0177  0.4395  0.0160
 6471TIP3    H140904   0.126   6.513   0.782  2.4770 -1.2232  0.8201
 6471TIP3    H240905   0.054   6.380   0.776  2.4969 -1.2640  1.5063
 6472TIP3   OH240906   3.441   3.483  15.819 -0.2978  0.0118  0.0350
 6472TIP3    H140907   3.419   3.393  15.793 -0.5699  0.2554 -0.5711
 6472TIP3    H240908   3.407   3.491  15.908  0.1371 -0.6400  0.2687
 6473TIP3   OH240909   5.129   6.623   1.965 -0.7384 -0.3021  0.2166
 6473TIP3    H140910   5.154   6.709   1.931  0.0078 -0.6561 -0.1494
 6473TIP3    H240911   5.037   6.614   1.942 -0.5490 -0.0339 -0.6751
 6474TIP3   OH240912   2.491   4.881   3.387 -0.0891 -0.1602 -0.3476
 6474TIP3    H140913   2.432   4.806   3.377 -0.4316  0.2268 -1.3135
 6474TIP3    H240914   2.436   4.948   3.428  0.1036 -0.3007  0.1406
 6475TIP3   OH240915   1.396   6.295  13.634 -0.5790 -0.1721  0.2683
 6475TIP3    H140916   1.423   6.369  13.579 -0.1313  0.5501  1.4356
 6475TIP3    H240917   1.301   6.297  13.632 -0.5682  0.3050  0.1109
 6476TIP3   OH240918   6.333   3.942   0.154 -0.1250 -0.5158  0.0361
 6476TIP3    H140919   6.349   3.847   0.152  1.0899 -0.3255  0.2049
 6476TIP3    H240920   6.375   3.971   0.235 -0.6447  0.1421  0.0678
 6477TIP3   OH240921   0.922   4.661  16.353  0.1886 -0.2273 -0.0007
 6477TIP3    H140922   0.862   4.681  16.282  2.6721  1.0445 -1.8057
 6477TIP3    H240923   0.904   4.727  16.420  0.3207  0.8487 -1.0065
 6478TIP3   OH240924   1.119   2.580   4.456 -0.1081 -0.1436 -0.3327
 6478TIP3    H140925   1.163   2.534   4.384 -1.0051  0.3752 -1.2292
 6478TIP3    H240926   1.118   2.517   4.528  0.3620 -0.8497 -0.9370
 6479TIP3   OH240927   2.005   0.426  16.983  0.0513  0.1863  0.5770
 6479TIP3    H140928   2.050   0.510  16.974 -0.9584  0.8232  1.2814
 6479TIP3    H240929   2.010   0.407  17.077  1.9319 -1.4975  0.1714
 6480TIP3   OH240930   3.831   1.668  11.123 -0.1983  0.4170  0.5213
 6480TIP3    H140931   3.921   1.667  11.089 -0.7804 -0.1360 -1.0135
 6480TIP3    H240932   3.777   1.643  11.049 -1.3856 -2.2538  2.2386
 6481TIP3   OH240933   5.405   2.289  14.061  0.5647  0.0440 -0.3298
 6481TIP3    H140934   5.494   2.315  14.085  0.0541  1.1700  0.3583
 6481TIP3    H240935   5.387   2.213  14.115 -0.1298  1.8364  2.0349
 6482TIP3   OH240936   0.742   4.987   3.603 -0.0827  0.1097 -0.2360
 6482TIP3    H140937   0.704   5.075   3.597  0.9083  0.7696  2.4210
 6482TIP3    H240938   0.815   4.997   3.664  2.4476 -1.7864 -2.8396
 6483TIP3   OH240939   2.420   5.209  13.457  0.0018 -0.3911  0.3192
 6483TIP3    H140940   2.492   5.265  13.486 -0.8063 -0.5998  2.8010
 6483TIP3    H240941   2.418   5.138  13.521 -0.5502 -1.9600 -1.4126
 6484TIP3   OH240942   1.596   3.955  11.620 -0.4959  0.3971 -0.4776
 6484TIP3    H140943   1.585   3.994  11.533 -1.6975 -1.3384 -1.1207
 6484TIP3    H240944   1.625   3.866  11.603 -1.4767 -0.2018  0.8846
 6485TIP3   OH240945   0.100   5.688   3.744 -0.0498 -0.1929 -0.4298
 6485TIP3    H140946   0.070   5.691   3.835  0.9472 -0.5947 -0.0840
 6485TIP3    H240947   0.027   5.649   3.697 -0.8188  0.5754  0.0884
 6486TIP3   OH240948   2.523   6.219  13.304  0.5716 -0.2751 -0.3373
 6486TIP3    H140949   2.613   6.197  13.326  0.5372 -1.4675 -1.3316
 6486TIP3    H240950   2.481   6.135  13.285 -0.5248  0.3322 -0.6846
 6487TIP3   OH240951   0.134   4.295  14.975 -0.2271 -0.0640 -0.2460
 6487TIP3    H140952   0.109   4.385  14.954  0.1860  0.1296  0.0941
 6487TIP3    H240953   0.056   4.243  14.954 -0.1684  0.2608 -1.2615
 6488TIP3   OH240954   0.292   4.779  13.462 -0.7479 -0.7069  0.3695
 6488TIP3    H140955   0.298   4.799  13.555  0.6431 -0.4839  0.2405
 6488TIP3    H240956   0.199   4.788  13.442 -0.8919  0.4739  1.4637
 6489TIP3   OH240957   5.656   0.973  14.802  0.1497  0.0764 -0.5037
 6489TIP3    H140958   5.713   0.943  14.873 -0.9825  1.4792  1.0409
 6489TIP3    H240959   5.634   0.893  14.754  0.4707 -0.9874  1.0741
 6490TIP3   OH240960   3.401   0.607  14.036 -0.0882  0.9421 -0.2944
 6490TIP3    H140961   3.328   0.605  13.974  2.1408  1.3689 -3.1018
 6490TIP3    H240962   3.438   0.518  14.032  0.5149  1.1824 -0.1527
 6491TIP3   OH240963   2.428   4.708   5.800 -0.2279 -0.1077  0.6136
 6491TIP3    H140964   2.410   4.758   5.879 -0.2854  1.1203 -0.1676
 6491TIP3    H240965   2.408   4.617   5.824 -1.1573  0.3804  1.7134
 6492TIP3   OH240966   0.013   1.032   1.008  0.2678 -0.4850 -0.4509
 6492TIP3    H140967   0.085   0.984   1.049 -0.3515 -0.6709  0.4360
 6492TIP3    H240968  -0.043   0.964   0.970  0.3307 -0.3666 -0.7541
 6493TIP3   OH240969   5.801   2.119  12.859  0.3266  0.1567 -0.6745
 6493TIP3    H140970   5.771   2.203  12.893 -0.6059  0.1749 -1.5079
 6493TIP3    H240971   5.826   2.069  12.936  1.3605  1.3747 -0.2100
 6494TIP3   OH240972   0.854   3.887  13.685 -0.2894  0.2190  0.0370
 6494TIP3    H140973   0.787   3.821  13.703  0.2474 -0.4490 -0.3659
 6494TIP3    H240974   0.832   3.960  13.743 -0.3665 -0.6750  1.1668
 6495TIP3   OH240975   2.740   3.809   0.019 -0.0628  0.3360  0.2725
 6495TIP3    H140976   2.828   3.795   0.052 -0.4964 -1.8494  0.5516
 6495TIP3    H240977   2.741   3.772  -0.069 -1.3528 -1.9411  1.1779
 6496TIP3   OH240978   1.715   3.728  13.511  0.2986  0.2048  0.3491
 6496TIP3    H140979   1.713   3.767  13.598 -0.4285  1.4989 -0.2351
 6496TIP3    H240980   1.761   3.645  13.523  1.0342  0.8021  1.7838
 6497TIP3   OH240981   5.058   0.186  13.922  0.4992 -0.1234 -0.5196
 6497TIP3    H140982   5.035   0.211  14.011  1.0973  0.5216 -0.5388
 6497TIP3    H240983   4.975   0.162  13.881  0.3566 -1.4691  0.5365
 6498TIP3   OH240984   4.118   6.464  14.757 -0.4111 -0.3819 -0.0728
 6498TIP3    H140985   4.200   6.429  14.723 -1.3635 -2.3321 -0.4157
 6498TIP3    H240986   4.073   6.388  14.794 -1.9927  0.7020  0.2745
 6499TIP3   OH240987   6.408   5.260  13.009 -0.3291  0.6191  0.0170
 6499TIP3    H140988   6.436   5.188  12.953  1.2767  1.0401  0.2718
 6499TIP3    H240989   6.366   5.322  12.949  0.0529  0.3855 -0.4946
 6500TIP3   OH240990   5.622   3.148   2.399 -0.4467 -0.5805  0.1475
 6500TIP3    H140991   5.708   3.145   2.442 -0.3908  0.3437  0.1082
 6500TIP3    H240992   5.640   3.183   2.312 -0.8028 -0.7678 -0.0002
 6501TIP3   OH240993   5.208   2.067  11.024 -0.0201  1.0872  0.1078
 6501TIP3    H140994   5.181   1.980  10.995 -1.4810  1.6486 -0.2674
 6501TIP3    H240995   5.210   2.120  10.945 -3.3365  2.4455  0.8327
 6502TIP3   OH240996   6.261   6.719   1.921 -0.3388 -0.3566 -0.1893
 6502TIP3    H140997   6.343   6.681   1.890 -0.0633  0.0506  0.0301
 6502TIP3    H240998   6.209   6.644   1.949 -1.0535 -0.8522 -2.6688
 6503TIP3   OH240999   2.380   4.424  13.865  0.8783  0.3113  0.5593
 6503TIP3    H141000   2.332   4.492  13.818 -0.6884 -1.2186 -0.1473
 6503TIP3    H241001   2.325   4.405  13.942  1.9990  0.8062  1.4965
 6504TIP3   OH241002   4.331   5.216  16.267  0.5405  0.0462 -0.3042
 6504TIP3    H141003   4.409   5.215  16.322 -0.1098 -0.0780  0.6322
 6504TIP3    H241004   4.290   5.131  16.282 -0.6904  0.7739  0.5636
 6505TIP3   OH241005   1.162   0.905  14.394  0.6752 -0.3182 -0.4607
 6505TIP3    H141006   1.111   0.916  14.474  0.1712  0.6996 -0.9106
 6505TIP3    H241007   1.148   0.814  14.368 -0.9563 -0.0339 -0.6018
 6506TIP3   OH241008   5.593   1.868  15.894  0.2566 -0.4890 -0.0388
 6506TIP3    H141009   5.545   1.870  15.811 -0.6178 -0.2417  0.4603
 6506TIP3    H241010   5.660   1.801  15.882 -0.7970 -1.4878 -0.4464
 6507TIP3   OH241011   3.363   1.929  11.101  0.2836  0.0970  0.1474
 6507TIP3    H141012   3.283   1.947  11.149 -0.7942  0.8046 -1.8840
 6507TIP3    H241013   3.356   1.836  11.076  0.3999 -0.0149  0.5321
 6508TIP3   OH241014   0.210   2.081   6.312  0.5625 -0.1142  0.1312
 6508TIP3    H141015   0.136   2.045   6.263  0.4480  0.4292 -0.0931
 6508TIP3    H241016   0.231   2.013   6.377  0.6630 -0.8027 -0.6160
 6509TIP3   OH241017   4.268   4.187   3.423  0.1034 -0.3292  0.0693
 6509TIP3    H141018   4.268   4.261   3.362 -0.4112 -0.4099 -0.0299
 6509TIP3    H241019   4.360   4.167   3.435  0.3363  1.3232  1.2938
 6510TIP3   OH241020   1.445   6.145   3.823 -0.2429 -0.1937 -0.1366
 6510TIP3    H141021   1.391   6.220   3.847 -0.2062 -0.2810  0.2206
 6510TIP3    H241022   1.523   6.182   3.783 -0.5581 -0.0641 -0.6469
 6511TIP3   OH241023   5.007   6.164   1.883  0.0108  0.3738  0.2872
 6511TIP3    H141024   5.051   6.226   1.941 -0.6504  0.3519  0.8118
 6511TIP3    H241025   4.952   6.218   1.827  1.0787  0.4455 -0.7103
 6512TIP3   OH241026   0.647   4.745  14.274 -0.1866 -0.1804  0.0128
 6512TIP3    H141027   0.569   4.800  14.268 -0.2439 -0.3781 -1.0498
 6512TIP3    H241028   0.614   4.656  14.266 -0.2008 -0.4547  2.6248
 6513TIP3   OH241029   5.430   3.230  10.851  0.0729 -0.1353  0.7614
 6513TIP3    H141030   5.346   3.260  10.815  0.1248  0.0143  0.7664
 6513TIP3    H241031   5.481   3.310  10.864 -1.2389  0.1883  4.5319
 6514TIP3   OH241032   2.886   5.931   2.364 -0.3354 -0.4233  0.3007
 6514TIP3    H141033   2.933   5.884   2.433 -0.6331 -3.4654 -1.4847
 6514TIP3    H241034   2.945   6.002   2.340  1.2993 -1.3967  1.2970
 6515TIP3   OH241035   4.343   3.204  14.443 -0.2283  0.0304 -0.4467
 6515TIP3    H141036   4.366   3.259  14.368 -0.1453 -0.1385 -0.5456
 6515TIP3    H241037   4.248   3.198  14.440 -0.3034  0.8659  0.0583
 6516TIP3   OH241038   4.663   1.525  13.021  0.1042 -0.0613 -0.0042
 6516TIP3    H141039   4.691   1.616  13.010 -0.3927  0.2184  0.9975
 6516TIP3    H241040   4.569   1.530  13.036  0.1241 -0.7129  0.3661
 6517TIP3   OH241041   5.232   3.057   0.425 -0.9358  0.0415 -0.1091
 6517TIP3    H141042   5.181   2.987   0.466  1.0954 -0.3965  1.7853
 6517TIP3    H241043   5.217   3.133   0.480 -0.4571  0.1954 -0.1867
 6518TIP3   OH241044   5.314   5.707  15.709 -0.0792  0.6472  0.0663
 6518TIP3    H141045   5.306   5.799  15.685  0.5061  0.3386 -1.4128
 6518TIP3    H241046   5.226   5.670  15.698 -0.5743  1.2772  1.8126
 6519TIP3   OH241047   0.920   3.019   4.792  0.1291 -0.0924  0.7140
 6519TIP3    H141048   0.834   3.021   4.749  0.1758  0.7289  0.6592
 6519TIP3    H241049   0.935   2.926   4.810 -0.6308 -0.2739  0.4398
 6520TIP3   OH241050   2.059   5.637  14.350  0.3317 -0.1520 -0.0755
 6520TIP3    H141051   2.129   5.573  14.364  0.3256 -0.1160  0.1068
 6520TIP3    H241052   2.049   5.640  14.254  0.4661 -0.2785 -0.0939
 6521TIP3   OH241053   5.039   2.299  15.445 -0.0239  0.3005  0.2612
 6521TIP3    H141054   5.110   2.241  15.470  1.2334  1.1644 -1.2143
 6521TIP3    H241055   4.966   2.274  15.502  1.2588 -1.0082  1.3670
 6522TIP3   OH241056   1.100   3.563   6.820  0.5622 -0.1242 -0.1330
 6522TIP3    H141057   1.195   3.571   6.830  0.4844  2.2020 -1.0006
 6522TIP3    H241058   1.067   3.561   6.910  1.3785 -0.4696  0.1692
 6523TIP3   OH241059   2.611   4.929  11.390 -0.5870 -0.0101 -0.8414
 6523TIP3    H141060   2.639   5.020  11.383  0.2504 -0.0255  1.8305
 6523TIP3    H241061   2.604   4.913  11.484 -1.2902 -2.5488 -1.2824
 6524TIP3   OH241062   4.436   0.912   2.788 -0.1549 -0.5086  0.5954
 6524TIP3    H141063   4.516   0.913   2.840 -0.2214 -4.7662  0.9379
 6524TIP3    H241064   4.457   0.966   2.711  2.0908  0.6075  1.9306
 6525TIP3   OH241065   4.849   4.033   5.977  0.3376  0.0806  0.3998
 6525TIP3    H141066   4.760   3.999   5.985  0.3696 -0.6030 -1.7314
 6525TIP3    H241067   4.855   4.063   5.887  2.1206  0.5497  0.6508
 6526TIP3   OH241068   5.642   5.460  14.896  0.4860 -0.3060 -0.8179
 6526TIP3    H141069   5.719   5.433  14.946  0.2635 -0.9151 -0.8096
 6526TIP3    H241070   5.613   5.381  14.851 -1.3879 -0.5944  0.8209
 6527TIP3   OH241071   1.094   3.160   4.463  0.2013 -0.3126  0.9386
 6527TIP3    H141072   1.181   3.162   4.422  0.2583 -1.5200  0.9780
 6527TIP3    H241073   1.033   3.157   4.389  0.2108 -0.1021  0.9210
 6528TIP3   OH241074   6.486   4.251  13.589 -0.4413  0.2533  0.0231
 6528TIP3    H141075   6.408   4.305  13.576 -1.5106 -1.7787 -2.3494
 6528TIP3    H241076   6.518   4.232  13.501  0.7728 -1.7205  0.8452
 6529TIP3   OH241077   1.365   5.836   1.216  0.0383  0.8817 -0.4490
 6529TIP3    H141078   1.281   5.864   1.250  0.9575  1.8319  1.0854
 6529TIP3    H241079   1.405   5.915   1.181 -0.0031  0.2987 -1.8740
 6530TIP3   OH241080   5.138   6.404  15.012 -0.4149 -0.3000 -0.7989
 6530TIP3    H141081   5.139   6.494  15.043 -0.7381 -0.9343  1.1334
 6530TIP3    H241082   5.103   6.409  14.923 -0.2398  1.4906 -0.7703
 6531TIP3   OH241083   0.260   0.100  13.195 -0.3006 -0.2980  0.4378
 6531TIP3    H141084   0.292   0.150  13.270 -3.0399  1.6040  0.4091
 6531TIP3    H241085   0.215   0.164  13.140  2.2686 -1.4877 -3.2779
 6532TIP3   OH241086   4.016   4.176   2.724 -0.2971  0.4691 -0.4104
 6532TIP3    H141087   3.923   4.152   2.721 -0.1177 -0.2711 -0.1755
 6532TIP3    H241088   4.057   4.119   2.659  0.1662 -0.0288  0.3039
 6533TIP3   OH241089   4.637   6.182   0.688 -0.1497  0.0911  0.0703
 6533TIP3    H141090   4.603   6.126   0.758  1.2215  0.9277  1.4423
 6533TIP3    H241091   4.626   6.130   0.608 -1.1031 -1.1556  0.9952
 6534TIP3   OH241092   3.583   2.992   0.269  0.0194  0.3881  0.7296
 6534TIP3    H141093   3.502   3.034   0.296 -0.6372 -1.0353  1.0157
 6534TIP3    H241094   3.646   3.015   0.336 -0.2864  1.0481  0.7948
 6535TIP3   OH241095   3.737   2.529  11.232 -0.3989  0.5619  0.2779
 6535TIP3    H141096   3.768   2.569  11.314 -1.0731  2.4323 -0.3592
 6535TIP3    H241097   3.817   2.495  11.191  0.0793  0.4928  1.2542
 6536TIP3   OH241098   3.502   0.391  12.924 -0.1104  0.3084  0.1587
 6536TIP3    H141099   3.543   0.309  12.897 -0.6796  0.2422 -0.5539
 6536TIP3    H241100   3.491   0.440  12.842 -0.2838  0.8529  0.5053
 6537TIP3   OH241101   3.641   5.265   5.776 -0.1635  0.3158  0.9312
 6537TIP3    H141102   3.711   5.256   5.712 -2.0983  0.1139 -1.2071
 6537TIP3    H241103   3.605   5.177   5.785 -1.3166  0.7526  0.6412
 6538TIP3   OH241104   4.627   2.488  13.874  0.2851  0.0156 -0.1320
 6538TIP3    H141105   4.655   2.544  13.801 -0.4240 -0.4280 -0.7405
 6538TIP3    H241106   4.624   2.400  13.837 -1.7090  0.0231 -0.0156
 6539TIP3   OH241107   1.754   2.519  13.281 -0.2591 -0.3807 -0.3204
 6539TIP3    H141108   1.829   2.563  13.322 -2.4305  1.0236  2.3331
 6539TIP3    H241109   1.740   2.568  13.200 -0.5238  1.7425  0.9479
 6540TIP3   OH241110   5.965   1.184  14.843 -0.2840 -0.4738 -0.0835
 6540TIP3    H141111   5.975   1.186  14.748  2.4044  0.6612  0.1912
 6540TIP3    H241112   5.941   1.274  14.866  0.6658 -0.3461  0.4453
 6541TIP3   OH241113   3.546   5.554   0.564  0.0759 -0.0392  0.2020
 6541TIP3    H141114   3.497   5.476   0.589 -1.2110  1.1251  1.4632
 6541TIP3    H241115   3.498   5.591   0.490 -0.6431  0.7751  1.0570
 6542TIP3   OH241116   3.534   6.286  15.909  0.1848  0.4372 -0.7722
 6542TIP3    H141117   3.594   6.313  15.840 -2.1887  2.0966 -2.2607
 6542TIP3    H241118   3.484   6.214  15.871 -1.7201  1.9161 -1.1613
 6543TIP3   OH241119   5.144   6.086  13.425  0.3756  0.1963 -0.4507
 6543TIP3    H141120   5.181   6.059  13.509 -1.0952  1.1228  0.5161
 6543TIP3    H241121   5.094   6.009  13.396 -0.6664  0.5196  0.4486
 6544TIP3   OH241122   6.096   0.827  13.055  0.6554 -0.3860 -0.5727
 6544TIP3    H141123   6.142   0.825  13.139  0.1530 -0.0003 -0.2845
 6544TIP3    H241124   6.026   0.763  13.065 -0.6238  1.0682  0.0214
 6545TIP3   OH241125   0.535   0.261   4.669 -0.1209  0.2484 -0.1788
 6545TIP3    H141126   0.491   0.341   4.641  1.3703  1.3784  0.5790
 6545TIP3    H241127   0.614   0.292   4.714  0.6428 -1.6570 -0.1408
 6546TIP3   OH241128   2.726   3.787  10.879  0.1195  0.2681 -0.2309
 6546TIP3    H141129   2.631   3.779  10.893  0.4280 -0.0614  1.8522
 6546TIP3    H241130   2.748   3.871  10.918  0.5972  0.6064 -1.2347
 6547TIP3   OH241131   5.328   0.529  13.878 -0.3977  0.6405 -0.1556
 6547TIP3    H141132   5.304   0.477  13.955 -0.2206  1.2307  0.3017
 6547TIP3    H241133   5.420   0.508  13.862 -0.5089  0.3106 -0.3751
 6548TIP3   OH241134   0.573   6.480   4.021 -0.0917  0.0654  0.2983
 6548TIP3    H141135   0.642   6.431   3.977 -0.6624  0.1706 -0.7296
 6548TIP3    H241136   0.550   6.550   3.960 -0.9547  0.1617  0.7191
 6549TIP3   OH241137   3.278   5.277   0.078 -0.5193 -0.5029 -0.5232
 6549TIP3    H141138   3.208   5.225   0.118 -0.9551  0.0815 -0.5201
 6549TIP3    H241139   3.245   5.300  -0.009  0.0883 -1.0725 -0.9102
 6550TIP3   OH241140   1.871   0.438   1.604 -0.2986  0.9415  0.7165
 6550TIP3    H141141   1.883   0.502   1.675  1.2115 -0.2792  1.6045
 6550TIP3    H241142   1.815   0.483   1.541 -1.3966  2.1873  2.5222
 6551TIP3   OH241143   2.233   1.100   1.438  0.4524 -0.1036  0.0093
 6551TIP3    H141144   2.157   1.113   1.496  2.3382 -1.4495  2.9213
 6551TIP3    H241145   2.202   1.039   1.372 -1.1102 -0.4055  0.9788
 6552TIP3   OH241146   2.009   4.176   5.036 -1.2813 -0.4382 -0.0573
 6552TIP3    H141147   1.924   4.135   5.023 -1.4199 -0.2549  0.2572
 6552TIP3    H241148   1.988   4.263   5.070 -1.0570  0.5033 -2.2235
 6553TIP3   OH241149   1.122   2.984  13.635 -0.2657  0.0238  0.7286
 6553TIP3    H141150   1.152   2.906  13.589 -1.1799 -0.5127  1.0217
 6553TIP3    H241151   1.067   3.029  13.571  1.4692  1.2297  0.0463
 6554TIP3   OH241152   3.817   2.111   3.717 -0.4834  0.2888  0.2145
 6554TIP3    H141153   3.840   2.111   3.624 -1.7104  0.6148 -0.1043
 6554TIP3    H241154   3.880   2.170   3.758  0.7380 -0.6899 -0.2367
 6555TIP3   OH241155   5.403   4.978  14.155 -0.0905 -0.1808 -0.4956
 6555TIP3    H141156   5.477   4.960  14.097  2.1654 -1.6999  2.7073
 6555TIP3    H241157   5.356   4.895  14.160  0.3975 -0.3978  0.7197
 6556TIP3   OH241158   2.782   1.002  16.552  0.5224 -0.2278  0.2291
 6556TIP3    H141159   2.838   0.976  16.625  0.9304 -0.3465 -0.1311
 6556TIP3    H241160   2.761   1.094  16.569  0.2018 -0.4002  0.7666
 6557TIP3   OH241161   4.777   2.220  13.210 -0.5594  0.2474  0.0616
 6557TIP3    H141162   4.813   2.137  13.242 -1.7237 -0.3393 -0.1026
 6557TIP3    H241163   4.763   2.206  13.117  0.6733  1.1666 -0.2613
 6558TIP3   OH241164   0.188   2.609   4.881  0.0490 -0.1673 -0.0803
 6558TIP3    H141165   0.200   2.670   4.954  1.2668 -1.8020  1.1205
 6558TIP3    H241166   0.111   2.643   4.835  0.8143  2.3700  0.4320
 6559TIP3   OH241167   0.380   3.521   0.878 -0.1438 -0.4895 -0.0747
 6559TIP3    H141168   0.397   3.598   0.931 -0.4517  0.1578 -0.9079
 6559TIP3    H241169   0.425   3.450   0.923 -0.3033  0.0729  0.9865
 6560TIP3   OH241170   4.000   2.286   3.805 -0.0770  0.1658  0.3571
 6560TIP3    H141171   3.998   2.365   3.859  1.0531  2.8573 -3.3836
 6560TIP3    H241172   4.093   2.265   3.796 -0.2175  0.0662 -0.9787
 6561TIP3   OH241173   2.088   0.380  10.853  0.0263  0.1779 -0.8665
 6561TIP3    H141174   2.179   0.360  10.831  0.2806  0.1312  0.2051
 6561TIP3    H241175   2.052   0.296  10.882 -0.1586  0.3476 -0.6074
 6562TIP3   OH241176   2.951   5.829  17.283 -0.4968  0.3588  0.0781
 6562TIP3    H141177   2.997   5.850  17.202 -0.9207  2.2954  0.3110
 6562TIP3    H241178   3.013   5.852  17.352  0.0079 -1.6431  0.3114
 6563TIP3   OH241179   5.262   4.206   1.773  0.2705 -0.5005 -0.1192
 6563TIP3    H141180   5.259   4.227   1.866  1.6285  1.2267 -0.4526
 6563TIP3    H241181   5.212   4.124   1.766  0.8438 -1.0963  2.2268
 6564TIP3   OH241182   4.415   3.635   1.138  0.1156 -0.6128 -0.0341
 6564TIP3    H141183   4.449   3.716   1.100  1.9925 -2.0491 -1.5229
 6564TIP3    H241184   4.320   3.645   1.134  0.3149  1.6323  0.0927
 6565TIP3   OH241185   4.571   6.073   0.456 -0.5149  0.5395 -0.3055
 6565TIP3    H141186   4.519   5.993   0.465 -1.6663  1.3624  0.5510
 6565TIP3    H241187   4.522   6.126   0.393  0.3328  0.5072 -0.9960
 6566TIP3   OH241188   2.710   1.022   1.760  0.4370  0.0286  0.6608
 6566TIP3    H141189   2.640   1.081   1.732  0.8133  0.6892  1.1077
 6566TIP3    H241190   2.760   1.073   1.824  2.5700  0.3135 -1.1831
 6567TIP3   OH241191   6.632   6.155   0.097  0.9502  0.2948  0.4074
 6567TIP3    H141192   6.677   6.072   0.116  0.2325 -0.1430  0.2122
 6567TIP3    H241193   6.577   6.171   0.174 -1.3398 -1.0663 -0.8907
 6568TIP3   OH241194   6.569   3.087   3.073 -0.0542 -0.4339 -0.0678
 6568TIP3    H141195   6.608   3.169   3.044  0.8473 -1.5402 -2.1044
 6568TIP3    H241196   6.626   3.056   3.144 -0.8578  1.0678  1.2605
 6569TIP3   OH241197   4.453   5.692   3.123 -0.4755  0.1799  0.3899
 6569TIP3    H141198   4.383   5.741   3.079  0.4279  0.2123 -1.0563
 6569TIP3    H241199   4.524   5.756   3.133  0.0404 -0.3420  0.1233
 6570TIP3   OH241200   2.026   1.539   1.682 -0.0887  0.2336 -0.0511
 6570TIP3    H141201   2.113   1.567   1.710  0.2695 -1.4468  0.5737
 6570TIP3    H241202   2.005   1.596   1.608  1.7131  0.4109 -0.4539
 6571TIP3   OH241203   5.824   5.665   0.386  0.0799  0.0296  0.7256
 6571TIP3    H141204   5.775   5.583   0.389  0.3571 -0.1254  1.2441
 6571TIP3    H241205   5.887   5.653   0.315 -0.7368  0.2930 -0.0514
 6572TIP3   OH241206   1.679   1.309  14.845  0.3279 -0.4247  0.2658
 6572TIP3    H141207   1.744   1.314  14.775  0.7769 -1.3942  0.6007
 6572TIP3    H241208   1.607   1.364  14.815  0.8474 -0.2009 -0.5989
 6573TIP3   OH241209   0.063   0.015   5.637  0.5011  0.4589  0.6082
 6573TIP3    H141210  -0.001   0.014   5.566 -0.7318 -0.7289  1.7144
 6573TIP3    H241211   0.034   0.087   5.694  1.0499  0.9216  0.3041
 6574TIP3   OH241212   6.038   6.346   0.195  0.2952  0.0085  0.0238
 6574TIP3    H141213   6.007   6.273   0.250  1.5368  1.4795  2.7982
 6574TIP3    H241214   6.133   6.342   0.202  0.3722  1.9020  0.2344
 6575TIP3   OH241215   4.439   6.342   6.031 -0.3788  0.3493 -0.3379
 6575TIP3    H141216   4.474   6.310   5.949 -0.8829  0.9131 -0.7801
 6575TIP3    H241217   4.354   6.380   6.008 -0.2562  1.0612  0.3346
 6576TIP3   OH241218   3.628   1.063  14.551  0.2187  0.3687  0.4756
 6576TIP3    H141219   3.629   1.137  14.490 -0.9643 -0.4218 -0.5170
 6576TIP3    H241220   3.678   0.994  14.507 -2.2645 -0.8712 -0.4841
 6577TIP3   OH241221   0.320   3.708   4.707  0.1450  0.0632  0.3723
 6577TIP3    H141222   0.236   3.731   4.666  0.3322 -1.7921 -1.1164
 6577TIP3    H241223   0.369   3.790   4.708 -1.2268  0.9089  0.1357
 6578TIP3   OH241224   4.561   4.094  12.587  0.5326  0.0011 -0.5329
 6578TIP3    H141225   4.545   4.087  12.682  2.5789  0.0843 -0.1573
 6578TIP3    H241226   4.474   4.093  12.548 -0.3502  0.1043  1.3697
 6579TIP3   OH241227   6.160   2.529  11.158 -0.7457 -0.0286 -0.0218
 6579TIP3    H141228   6.167   2.624  11.160  1.0414 -0.1368 -0.1920
 6579TIP3    H241229   6.221   2.499  11.225 -0.2499 -1.1021 -0.9354
 6580TIP3   OH241230   2.602   5.862  12.685 -0.3506 -0.4243 -0.0136
 6580TIP3    H141231   2.522   5.876  12.737  0.2362  2.8704  0.0915
 6580TIP3    H241232   2.595   5.926  12.614  2.3554  0.1694  0.2241
 6581TIP3   OH241233   2.167   3.616  12.453 -0.4904  0.4132  0.3743
 6581TIP3    H141234   2.085   3.664  12.444  0.8957  2.8114  0.1269
 6581TIP3    H241235   2.165   3.551  12.382 -2.8730 -0.6899  1.3804
 6582TIP3   OH241236   1.665   0.232   3.268  0.4841 -0.8598  0.6242
 6582TIP3    H141237   1.749   0.207   3.229  0.2784  0.2097 -0.5813
 6582TIP3    H241238   1.601   0.213   3.200  0.1603  1.4563  0.2276
 6583TIP3   OH241239   1.084   5.790   5.164 -0.2387  0.7809  0.8408
 6583TIP3    H141240   1.008   5.749   5.206  0.6644 -1.5988  0.2032
 6583TIP3    H241241   1.153   5.784   5.230  0.8353 -1.8265 -0.4778
 6584TIP3   OH241242   3.210   4.296   1.822  0.0359 -0.2323  0.1728
 6584TIP3    H141243   3.254   4.360   1.767  1.0235 -2.3035 -1.5057
 6584TIP3    H241244   3.248   4.310   1.909  0.7028  1.0382 -0.3135
 6585TIP3   OH241245   4.845   2.129   4.682 -0.3111 -0.0041 -0.0798
 6585TIP3    H141246   4.814   2.190   4.749  2.0036 -0.0300  1.0683
 6585TIP3    H241247   4.872   2.051   4.731  0.4300 -0.4300 -1.1536
 6586TIP3   OH241248   1.306   2.662  11.678 -0.6817 -0.3963 -0.5770
 6586TIP3    H141249   1.398   2.649  11.701 -1.4134 -0.5129  2.6027
 6586TIP3    H241250   1.307   2.691  11.587  2.6465  1.8668  0.1047
 6587TIP3   OH241251   4.409   2.173  15.760  0.2284  0.0590  0.6767
 6587TIP3    H141252   4.395   2.080  15.773  0.1695  0.1694  1.4244
 6587TIP3    H241253   4.470   2.198  15.829  0.9675  0.3908 -0.0814
 6588TIP3   OH241254   6.606   1.863  11.170  0.3708 -0.0655  0.6657
 6588TIP3    H141255   6.522   1.901  11.195 -0.3422 -1.9930  1.3536
 6588TIP3    H241256   6.642   1.923  11.105 -1.1195  1.2673  1.0546
 6589TIP3   OH241257   6.777   5.606   4.784  0.0594  0.3503  0.2917
 6589TIP3    H141258   6.819   5.604   4.698 -1.5053  0.7860 -0.4894
 6589TIP3    H241259   6.744   5.696   4.792  0.3412  0.3623  1.4275
 6590TIP3   OH241260   3.076   1.368   5.113 -0.5102 -0.5704  0.3200
 6590TIP3    H141261   3.034   1.421   5.046  0.2419  1.0007  1.0761
 6590TIP3    H241262   3.133   1.308   5.065  1.3324  1.6783 -0.4241
 6591TIP3   OH241263   6.379   5.040   0.366  0.3327  0.5495  0.1186
 6591TIP3    H141264   6.459   5.024   0.416 -0.6111  1.7885  2.0870
 6591TIP3    H241265   6.368   4.961   0.313  2.9723  0.4664 -0.3820
 6592TIP3   OH241266   6.502   1.707   2.336 -0.1359 -0.0346  0.3900
 6592TIP3    H141267   6.508   1.802   2.335  0.7451 -0.0606  1.9055
 6592TIP3    H241268   6.492   1.682   2.244 -0.7824  1.5376  0.0214
 6593TIP3   OH241269   1.341   2.806  14.114  0.2823 -0.0481  0.3296
 6593TIP3    H141270   1.368   2.861  14.188  0.5774 -0.6218  0.6443
 6593TIP3    H241271   1.331   2.868  14.041 -0.0924  0.5305  0.8676
 6594TIP3   OH241272   3.634   6.600  13.552 -0.3583 -0.3039  0.0548
 6594TIP3    H141273   3.612   6.655  13.477 -0.6502 -0.1868  0.2244
 6594TIP3    H241274   3.549   6.569  13.584 -0.3042  0.3781  0.8882
 6595TIP3   OH241275   2.629   6.798   2.719  0.6086  0.1760 -0.1767
 6595TIP3    H141276   2.564   6.860   2.686 -0.5997 -1.3726 -0.7535
 6595TIP3    H241277   2.581   6.746   2.783  1.1976 -1.1721 -0.8226
 6596TIP3   OH241278   6.335   1.742  15.161  0.0475 -0.8419  0.2220
 6596TIP3    H141279   6.266   1.739  15.094  0.1263  0.7496  0.0466
 6596TIP3    H241280   6.390   1.666  15.142 -0.6428 -1.1139 -0.7597
 6597TIP3   OH241281   2.189   5.972   1.642 -0.0174  0.1100 -0.2222
 6597TIP3    H141282   2.222   5.974   1.552 -1.9601 -1.8686 -1.0382
 6597TIP3    H241283   2.150   6.058   1.656  1.7723  1.0162 -0.6652
 6598TIP3   OH241284   4.402   5.425   4.351  0.5021 -0.1735  0.4144
 6598TIP3    H141285   4.417   5.440   4.258 -1.4247 -2.7897 -0.3841
 6598TIP3    H241286   4.336   5.356   4.354 -0.3234  0.6549  3.7369
 6599TIP3   OH241287   2.601   5.248   3.031  0.3250 -0.4644 -0.0633
 6599TIP3    H141288   2.569   5.299   2.956  1.7553 -1.9256 -1.7115
 6599TIP3    H241289   2.620   5.314   3.098 -0.3421  0.9285 -1.2099
 6600TIP3   OH241290   5.884   6.253  11.502  0.0892  0.0292 -0.0082
 6600TIP3    H141291   5.849   6.269  11.590  0.1873 -2.0031  0.4274
 6600TIP3    H241292   5.807   6.233  11.449  0.1632 -0.1071 -0.0640
 6601TIP3   OH241293   3.573   4.606  15.698  0.0363  0.1560  0.4467
 6601TIP3    H141294   3.597   4.541  15.632  0.4735 -0.2099  0.9622
 6601TIP3    H241295   3.627   4.585  15.774 -1.9182 -0.6877  1.6426
 6602TIP3   OH241296   3.506   3.741   0.903 -0.2071  0.3951 -0.0018
 6602TIP3    H141297   3.505   3.732   0.998  2.5050  0.2769  0.0446
 6602TIP3    H241298   3.427   3.792   0.883 -2.3553 -1.9972  2.0199
 6603TIP3   OH241299   2.698   4.442  15.267 -0.0453  0.0422 -0.2513
 6603TIP3    H141300   2.700   4.434  15.363  0.5011 -1.6699 -0.3913
 6603TIP3    H241301   2.631   4.381  15.239  0.3107 -0.0059 -1.0205
 6604TIP3   OH241302   0.718   3.763  14.783  0.3093  0.0134  0.1856
 6604TIP3    H141303   0.783   3.832  14.769  0.1649 -0.2411 -1.8212
 6604TIP3    H241304   0.757   3.708  14.852  1.1544  1.1755  0.6460
 6605TIP3   OH241305   6.281   4.448  13.775  0.3454 -0.0757 -0.3491
 6605TIP3    H141306   6.186   4.446  13.782  0.5211 -1.7369  1.9818
 6605TIP3    H241307   6.305   4.537  13.800 -0.5549  0.3358 -0.9020
 6606TIP3   OH241308   1.321   3.366  14.447 -0.2426  0.0469 -0.0299
 6606TIP3    H141309   1.260   3.322  14.388  0.8098 -1.2047 -0.2151
 6606TIP3    H241310   1.269   3.388  14.524 -0.3452 -3.5026  1.0043
 6607TIP3   OH241311   5.653   4.704   4.213 -0.1582  0.2950  0.0471
 6607TIP3    H141312   5.624   4.756   4.287  2.2312  0.0211  1.2395
 6607TIP3    H241313   5.695   4.627   4.253 -2.2696 -1.8260 -1.6438
 6608TIP3   OH241314   2.460   4.589  16.825 -0.3397  0.0328  0.1034
 6608TIP3    H141315   2.453   4.640  16.745 -1.1981  1.3295  0.9820
 6608TIP3    H241316   2.424   4.503  16.802 -3.9915  1.4944  0.0360
 6609TIP3   OH241317   5.430   4.541   1.945 -0.5646 -0.1089  0.1772
 6609TIP3    H141318   5.396   4.461   1.985 -1.6639 -0.2954 -1.0829
 6609TIP3    H241319   5.354   4.599   1.941 -0.0447  0.5645 -0.0110
 6610TIP3   OH241320   4.282   4.214   5.284 -0.8061  0.0792 -0.0010
 6610TIP3    H141321   4.282   4.190   5.377  0.5637  0.8819  0.2178
 6610TIP3    H241322   4.360   4.268   5.273 -0.9658  0.0016 -1.6249
 6611TIP3   OH241323   4.160   0.088   3.835  0.0564  0.5639  0.0770
 6611TIP3    H141324   4.068   0.081   3.813 -0.0933  0.3717  0.7603
 6611TIP3    H241325   4.166   0.168   3.888  0.3925  0.9540 -0.5388
 6612TIP3   OH241326   4.754   2.991   2.528  0.3704  0.1304 -0.0828
 6612TIP3    H141327   4.732   3.076   2.491  0.2048  0.2017  0.1783
 6612TIP3    H241328   4.772   2.936   2.452  0.3934  0.3756 -0.2552
 6613TIP3   OH241329   6.559   2.095  14.525 -0.1257 -1.1442  0.0359
 6613TIP3    H141330   6.621   2.077  14.596 -0.1738 -1.1690  0.0736
 6613TIP3    H241331   6.606   2.071  14.445  0.9751  1.5270 -0.1813
 6614TIP3   OH241332   2.258   0.579   2.650 -0.2913 -0.8768 -0.2343
 6614TIP3    H141333   2.272   0.547   2.739 -0.4658 -0.9571 -0.2347
 6614TIP3    H241334   2.163   0.594   2.645  0.1443  2.9326  0.8852
 6615TIP3   OH241335   1.839   5.003   3.820 -0.4228  0.3288 -0.3354
 6615TIP3    H141336   1.761   4.999   3.875 -0.9049 -0.8198 -1.0696
 6615TIP3    H241337   1.806   5.022   3.732  0.0284 -1.0435 -0.8196
 6616TIP3   OH241338   4.388   6.068   1.559  0.4188 -0.3185  1.2148
 6616TIP3    H141339   4.403   6.163   1.556 -2.4293  0.1417 -2.7068
 6616TIP3    H241340   4.295   6.059   1.579  0.8426 -2.3244  2.3634
 6617TIP3   OH241341   4.656   1.007   3.334 -0.2042 -0.5316 -0.1474
 6617TIP3    H141342   4.668   1.098   3.362 -0.2438 -0.7807  0.6863
 6617TIP3    H241343   4.563   0.990   3.347 -0.4148 -0.3283 -1.4031
 6618TIP3   OH241344   6.353   2.019   6.178 -0.0480 -0.0576  0.1570
 6618TIP3    H141345   6.298   2.091   6.148 -1.1908 -0.4084  1.3506
 6618TIP3    H241346   6.439   2.035   6.138 -0.6596  1.2183 -0.6525
 6619TIP3   OH241347   4.939   5.519   2.018 -0.7336  0.5181 -0.0116
 6619TIP3    H141348   4.846   5.506   2.000 -0.3066  0.0781 -2.0391
 6619TIP3    H241349   4.963   5.597   1.968  0.4390 -0.5633 -1.1569
 6620TIP3   OH241350   5.071   4.049   2.649 -0.3800 -0.3797  0.2956
 6620TIP3    H141351   5.103   4.018   2.565 -0.7240 -1.2321  0.4808
 6620TIP3    H241352   5.101   3.985   2.713 -0.6366 -0.0600  0.7481
 6621TIP3   OH241353   3.667   2.066  15.229  0.0217 -0.3784  0.2614
 6621TIP3    H141354   3.617   2.147  15.220  1.0997  0.1852 -0.9256
 6621TIP3    H241355   3.601   1.998  15.238 -0.9648  0.3910 -0.8716
 6622TIP3   OH241356   3.949   1.178   3.938  0.1863  0.3917 -0.1360
 6622TIP3    H141357   3.964   1.213   4.026  1.0279 -0.0430 -0.0991
 6622TIP3    H241358   3.964   1.084   3.947  0.2434  0.3412 -0.7327
 6623TIP3   OH241359   2.582   6.609   4.322 -0.2303 -0.4331 -0.0987
 6623TIP3    H141360   2.561   6.680   4.382 -0.8728 -0.1361 -0.6719
 6623TIP3    H241361   2.580   6.530   4.376  1.9654  0.1301  0.8617
 6624TIP3   OH241362   3.557   3.056   2.756 -0.0043  0.0168 -0.2499
 6624TIP3    H141363   3.597   2.972   2.779  1.1352  0.0475 -2.0055
 6624TIP3    H241364   3.607   3.121   2.806 -0.9401 -0.3347  1.1716
 6625TIP3   OH241365   5.651   6.203  15.142  0.1418 -0.1691 -0.2929
 6625TIP3    H141366   5.601   6.279  15.172  1.2588  0.5157 -0.1237
 6625TIP3    H241367   5.642   6.139  15.213  1.8807  1.0452  1.0727
 6626TIP3   OH241368   2.685   6.690   5.811  0.5454  0.8519  0.0298
 6626TIP3    H141369   2.685   6.614   5.752  0.2354  1.0320 -0.1975
 6626TIP3    H241370   2.771   6.731   5.796  1.2752 -0.2216  1.1344
 6627TIP3   OH241371   0.474   4.229   1.670  0.1114  0.2867  0.0889
 6627TIP3    H141372   0.411   4.172   1.628 -0.8526  0.8394  0.7577
 6627TIP3    H241373   0.470   4.311   1.621  0.7025  0.1432 -0.2018
 6628TIP3   OH241374   5.874   2.523  14.423  0.7287  0.1165  0.3853
 6628TIP3    H141375   5.822   2.601  14.404  0.0387 -0.4117  0.0681
 6628TIP3    H241376   5.811   2.462  14.462  1.5717  0.2364  1.9779
 6629TIP3   OH241377   5.371   4.272   2.600  0.1853 -0.0623 -0.3999
 6629TIP3    H141378   5.297   4.300   2.653 -0.6628 -2.5467 -0.2322
 6629TIP3    H241379   5.368   4.177   2.601  1.7592 -0.2017 -2.6663
 6630TIP3   OH241380   6.643   1.087  13.312 -0.3250 -0.8436  0.1796
 6630TIP3    H141381   6.619   1.160  13.369  0.4424  0.2797 -0.9017
 6630TIP3    H241382   6.737   1.078  13.323 -0.4153 -1.6650  0.2914
 6631TIP3   OH241383   3.584   6.349   2.643 -0.3866  0.8368 -0.0213
 6631TIP3    H141384   3.572   6.285   2.714  1.1362 -0.0516 -0.5547
 6631TIP3    H241385   3.590   6.433   2.688 -1.9155  0.5763  0.7257
 6632TIP3   OH241386   4.092   4.720  13.730  0.1073 -0.7906 -0.0971
 6632TIP3    H141387   4.125   4.777  13.661  1.5386 -1.3981  0.0817
 6632TIP3    H241388   4.148   4.643  13.727 -0.7442 -1.4563  0.7810
 6633TIP3   OH241389   2.987   1.395  12.292  0.5578 -0.0850 -0.5348
 6633TIP3    H141390   3.016   1.439  12.372  3.5529 -0.5205 -1.3038
 6633TIP3    H241391   3.015   1.304  12.304 -0.3968 -0.5048 -1.4049
 6634TIP3   OH241392   1.094   4.777  14.431 -0.1621  0.2001  0.5862
 6634TIP3    H141393   1.035   4.743  14.364  3.5030  0.2048 -2.8417
 6634TIP3    H241394   1.050   4.855  14.464 -3.7816 -1.8635  0.9520
 6635TIP3   OH241395   4.480   4.773   4.697 -0.1738 -0.4114 -0.2956
 6635TIP3    H141396   4.424   4.762   4.774 -2.0125  0.6528 -1.4397
 6635TIP3    H241397   4.524   4.689   4.687 -0.6411 -0.8621  1.3822
 6636TIP3   OH241398   5.739   6.597   3.044  0.0611 -0.0997 -0.1475
 6636TIP3    H141399   5.804   6.665   3.057 -0.4203  0.4865 -0.8229
 6636TIP3    H241400   5.741   6.546   3.126  0.9750  0.2381  0.0396
 6637TIP3   OH241401   3.824   0.523   0.540 -0.2086  0.0619 -1.2532
 6637TIP3    H141402   3.785   0.437   0.554  0.0036 -0.2063 -2.2720
 6637TIP3    H241403   3.755   0.585   0.562  0.4309 -0.3029  1.9480
 6638TIP3   OH241404   5.513   1.617   5.234  0.2187  0.5202 -0.3957
 6638TIP3    H141405   5.450   1.661   5.291  0.1100 -2.1926  1.7157
 6638TIP3    H241406   5.471   1.534   5.211  2.4335 -0.7251 -0.0989
 6639TIP3   OH241407   3.506   2.526  15.455  0.5155 -0.4415  0.2240
 6639TIP3    H141408   3.470   2.615  15.458  0.0576 -0.6574  1.8193
 6639TIP3    H241409   3.430   2.469  15.466  0.7868 -1.0416 -0.9675
 6640TIP3   OH241410   4.232   1.340  12.086  0.0901  0.2026  0.4631
 6640TIP3    H141411   4.184   1.378  12.012  0.0195 -1.6000 -0.4560
 6640TIP3    H241412   4.222   1.403  12.157 -0.3174  1.6954 -0.9067
 6641TIP3   OH241413   5.379   4.725  11.814 -0.2354 -0.1785  0.1913
 6641TIP3    H141414   5.294   4.682  11.812  0.1875 -0.9892 -0.3632
 6641TIP3    H241415   5.439   4.659  11.846  0.5875 -0.3096 -1.6120
 6642TIP3   OH241416   0.765   2.245   1.547 -0.1426  0.3402  0.1999
 6642TIP3    H141417   0.771   2.150   1.552 -1.2258  0.2652  0.3068
 6642TIP3    H241418   0.695   2.262   1.484 -0.3669  1.0467  0.6204
 6643TIP3   OH241419   6.658   0.727   0.376  0.4236  0.2661 -0.5234
 6643TIP3    H141420   6.629   0.767   0.295  0.3429  1.2598 -0.0059
 6643TIP3    H241421   6.585   0.671   0.403 -0.1945  1.1698 -0.3032
 6644TIP3   OH241422   6.332   3.094   4.547  0.0074 -0.1748  0.3960
 6644TIP3    H141423   6.252   3.047   4.523  0.7952 -1.2185 -0.2121
 6644TIP3    H241424   6.351   3.066   4.636  0.1428 -0.5427  0.2495
 6645TIP3   OH241425   6.250   5.565   1.496 -0.3065 -0.0101  0.3155
 6645TIP3    H141426   6.262   5.526   1.583  0.5016  0.0003  0.2155
 6645TIP3    H241427   6.292   5.651   1.503  0.6912 -0.4253 -0.3840
 6646TIP3   OH241428   2.674   1.623   5.220 -0.6441  0.4845 -1.1344
 6646TIP3    H141429   2.718   1.548   5.259  0.4563  1.0891 -1.2046
 6646TIP3    H241430   2.637   1.589   5.138 -1.2439 -0.2820 -0.5594
 6647TIP3   OH241431   2.704   5.161  17.284 -0.2760  0.1864  0.2385
 6647TIP3    H141432   2.759   5.219  17.336  0.7707 -1.7686  1.3389
 6647TIP3    H241433   2.725   5.183  17.193 -1.2884  2.8273  0.5953
 6648TIP3   OH241434   5.729   1.422   2.555  0.0678  0.3859  0.3041
 6648TIP3    H141435   5.668   1.480   2.510 -0.6618 -0.5487  0.0643
 6648TIP3    H241436   5.696   1.418   2.645 -0.5925 -0.5691  0.0404
 6649TIP3   OH241437   2.730   6.145  11.738 -0.1984 -0.2749 -0.3582
 6649TIP3    H141438   2.759   6.115  11.825  0.5349  0.8971 -0.1874
 6649TIP3    H241439   2.804   6.126  11.680 -0.9920 -1.7915 -0.9001
 6650TIP3   OH241440   2.945   1.582   2.177  0.1926 -0.1536 -0.3359
 6650TIP3    H141441   3.021   1.632   2.207 -0.2501 -0.6385  1.6570
 6650TIP3    H241442   2.871   1.641   2.193  0.1104  0.2063 -2.0031
 6651TIP3   OH241443   3.825   4.336   4.225 -0.3771 -0.0787 -0.3285
 6651TIP3    H141444   3.913   4.366   4.201 -0.3100 -0.4106 -0.4983
 6651TIP3    H241445   3.795   4.285   4.150 -1.3566  1.3518 -0.9353
 6652TIP3   OH241446   1.018   3.952  12.744 -0.0035 -0.0571 -0.6844
 6652TIP3    H141447   0.938   3.998  12.717 -1.7273 -1.9870  0.8768
 6652TIP3    H241448   1.067   4.016  12.796 -2.5321 -0.0070  1.7789
 6653TIP3   OH241449   2.548   5.567  13.651 -0.2453 -0.1471 -0.1364
 6653TIP3    H141450   2.620   5.528  13.603  0.3266  0.4369  0.2405
 6653TIP3    H241451   2.470   5.521  13.620  0.2516 -0.5498 -0.7823
 6654TIP3   OH241452   6.089   6.597   5.617  0.0714  0.0410  0.1454
 6654TIP3    H141453   6.080   6.505   5.641 -0.8966  0.1347  0.1410
 6654TIP3    H241454   6.000   6.629   5.609  0.3961  1.3177  1.3899
 6655TIP3   OH241455   3.473   1.864   0.043 -0.4274 -0.7543  0.1051
 6655TIP3    H141456   3.392   1.853  -0.007 -0.1568 -3.6851  0.2239
 6655TIP3    H241457   3.541   1.876  -0.023 -0.8446  1.0974 -0.0146
 6656TIP3   OH241458   5.113   2.590   1.134  0.0732  0.5302 -0.3448
 6656TIP3    H141459   5.193   2.624   1.094  0.8777 -0.2450  0.5509
 6656TIP3    H241460   5.047   2.594   1.065  1.1728  0.1633 -1.4286
 6657TIP3   OH241461   4.220   3.843  15.797 -0.0413 -0.0129  0.2319
 6657TIP3    H141462   4.299   3.879  15.837  0.5578 -1.5786  0.5076
 6657TIP3    H241463   4.251   3.799  15.717 -0.0882 -3.5857  2.0769
 6658TIP3   OH241464   6.699   2.267  11.716  0.3995  0.2331 -0.1270
 6658TIP3    H141465   6.777   2.241  11.667 -0.1223 -1.2652 -0.2005
 6658TIP3    H241466   6.634   2.199  11.695 -0.6651  1.0221  0.5611
 6659TIP3   OH241467   4.042   1.073   1.136 -0.3807 -0.0018 -0.2841
 6659TIP3    H141468   4.070   1.007   1.073 -1.4252 -0.4183 -0.3138
 6659TIP3    H241469   4.036   1.154   1.085 -0.9212 -0.2729 -0.6436
 6660TIP3   OH241470   6.059   0.885  16.721  0.1597  0.0883 -0.0416
 6660TIP3    H141471   6.068   0.940  16.798  0.4743 -1.2006  0.8666
 6660TIP3    H241472   6.084   0.941  16.648 -0.7813  1.5148  0.7228
 6661TIP3   OH241473   3.415   2.673   5.471  0.2457  0.0602 -0.3382
 6661TIP3    H141474   3.346   2.724   5.429 -0.5424  0.0621  0.9224
 6661TIP3    H241475   3.496   2.715   5.443 -0.3247  1.0590 -0.5423
 6662TIP3   OH241476   0.933   2.932   0.108 -0.6956  0.0983 -0.5832
 6662TIP3    H141477   0.898   2.869   0.045  0.5210  0.0312 -1.1952
 6662TIP3    H241478   1.007   2.972   0.064  0.2002  0.0193  0.8212
 6663TIP3   OH241479   6.334   6.701  15.754 -0.1372  0.8388 -0.1107
 6663TIP3    H141480   6.371   6.738  15.674  1.9025 -0.0841  0.3914
 6663TIP3    H241481   6.255   6.656  15.725 -1.7092  3.9930 -0.9845
 6664TIP3   OH241482   6.197   3.912   6.658 -0.1506  0.0489 -0.0897
 6664TIP3    H141483   6.106   3.886   6.675 -0.4182  0.1309 -1.3430
 6664TIP3    H241484   6.216   3.874   6.572  0.6582  0.9181 -0.2891
 6665TIP3   OH241485   0.271   5.912  13.393 -0.7621  0.4211  0.3040
 6665TIP3    H141486   0.232   5.873  13.315 -2.8039  0.4706  1.2715
 6665TIP3    H241487   0.239   5.858  13.466  0.3104  0.9680  1.1991
 6666TIP3   OH241488   6.248   3.831   6.390  0.1000 -0.3785  0.0873
 6666TIP3    H141489   6.322   3.771   6.383  0.5374 -0.0758  1.7377
 6666TIP3    H241490   6.185   3.800   6.326  1.5261 -0.8367 -1.1225
 6667TIP3   OH241491   4.664   5.260  10.028  0.6828  0.2038 -0.4120
 6667TIP3    H141492   4.628   5.228   9.946 -0.1512  0.9915 -0.3615
 6667TIP3    H241493   4.683   5.180  10.078 -0.3767 -0.2502 -0.7031
 6668TIP3   OH241494   0.442   4.051   4.604  0.5473  0.2047  0.3872
 6668TIP3    H141495   0.416   4.038   4.513  1.5615 -0.0141  0.1252
 6668TIP3    H241496   0.359   4.063   4.651  0.1118  2.9290 -0.9725
 6669TIP3   OH241497   2.555   1.278  16.835  0.7140 -0.2166  0.1370
 6669TIP3    H141498   2.544   1.343  16.905 -0.1278 -0.7142  0.4836
 6669TIP3    H241499   2.489   1.302  16.770  2.3587  1.0257 -1.1117
 6670TIP3   OH241500   6.399   3.068  16.243  0.1382  0.3668 -0.2146
 6670TIP3    H141501   6.334   3.121  16.290 -0.1087  0.7254 -0.9437
 6670TIP3    H241502   6.352   3.035  16.167  0.8875  0.8790 -0.9104
 6671TIP3   OH241503   4.237   3.996  12.181 -0.8606 -0.3719 -0.2659
 6671TIP3    H141504   4.146   4.016  12.158 -0.8750  0.5316  0.5439
 6671TIP3    H241505   4.255   4.052  12.257  0.0604 -1.2820  0.1882
 6672TIP3   OH241506   2.827   6.787  15.042  0.3320 -0.0889  0.0346
 6672TIP3    H141507   2.756   6.726  15.060  1.7028 -1.1678  1.8735
 6672TIP3    H241508   2.900   6.757  15.096  1.8729  1.6159 -1.0230
 6673TIP3   OH241509   3.835   2.998  11.089 -0.5929  0.5173  0.2561
 6673TIP3    H141510   3.904   2.955  11.038 -0.1041  0.8273  0.6491
 6673TIP3    H241511   3.773   2.928  11.109  1.7077 -0.7410  3.4751
 6674TIP3   OH241512   3.306   5.392  14.732  0.3645 -0.1447 -0.3260
 6674TIP3    H141513   3.270   5.377  14.645 -2.5165  3.4124  0.1313
 6674TIP3    H241514   3.286   5.311  14.780 -1.5296 -0.6305 -1.8628
 6675TIP3   OH241515   0.373   3.238   0.434 -0.0045  0.7227  0.1974
 6675TIP3    H141516   0.376   3.312   0.494 -1.3438  0.5852  0.4593
 6675TIP3    H241517   0.447   3.251   0.375  1.6326  0.6368  2.1394
 6676TIP3   OH241518   1.258   5.799  13.283 -0.6192 -0.5549 -0.5840
 6676TIP3    H141519   1.293   5.771  13.368 -1.1257 -0.5614 -0.3782
 6676TIP3    H241520   1.298   5.885  13.267 -1.3683 -0.0643  0.1658
 6677TIP3   OH241521   5.465   1.591  15.888  0.3362 -0.3669 -0.0595
 6677TIP3    H141522   5.463   1.570  15.795  1.4105 -1.7718  0.2197
 6677TIP3    H241523   5.442   1.509  15.932 -1.6737  0.6603  0.8890
 6678TIP3   OH241524   4.562   1.810  11.807 -0.1103  0.1019 -0.9001
 6678TIP3    H141525   4.481   1.822  11.858  0.9370 -1.4994  1.2458
 6678TIP3    H241526   4.538   1.746  11.740 -0.7762  0.0417 -0.6130
 6679TIP3   OH241527   5.402   5.450  13.491 -0.0352 -0.4619  0.1731
 6679TIP3    H141528   5.316   5.410  13.475  0.4529 -1.4139 -0.1665
 6679TIP3    H241529   5.412   5.450  13.586 -1.7053  2.4850  0.3799
 6680TIP3   OH241530   4.748   4.413  13.301 -0.2238  0.4300 -0.1544
 6680TIP3    H141531   4.709   4.482  13.355  2.1158 -0.2236  2.5035
 6680TIP3    H241532   4.728   4.332  13.347  0.7176 -0.2533 -0.9310
 6681TIP3   OH241533   3.955   5.483   1.392 -0.0481  0.0823 -0.0047
 6681TIP3    H141534   3.880   5.458   1.446  1.1067 -0.3981  1.4083
 6681TIP3    H241535   4.023   5.418   1.412  1.2310  1.3318 -0.1852
 6682TIP3   OH241536   2.936   4.818   2.778 -0.7889 -0.4784  0.1876
 6682TIP3    H141537   3.015   4.859   2.812  0.0629 -0.5226 -1.7129
 6682TIP3    H241538   2.895   4.777   2.855 -0.3491  1.7644  1.6496
 6683TIP3   OH241539   6.799   6.592  12.827  0.2577 -0.5394 -0.0778
 6683TIP3    H141540   6.737   6.587  12.900  0.8686 -3.0675  0.2902
 6683TIP3    H241541   6.764   6.532  12.762 -0.1073  1.4738 -1.7740
 6684TIP3   OH241542   4.659   3.230  12.633  0.1811 -0.1095  0.3791
 6684TIP3    H141543   4.603   3.206  12.707 -0.4536  0.2533  0.0208
 6684TIP3    H241544   4.748   3.226  12.668 -0.1908  1.4033  1.5533
 6685TIP3   OH241545   1.359   1.883  17.257  0.4063  0.1924 -0.0350
 6685TIP3    H141546   1.435   1.829  17.279  1.7468  1.7852 -0.6559
 6685TIP3    H241547   1.322   1.840  17.179  0.8694 -0.3962  0.0621
 6686TIP3   OH241548   4.185   0.324  11.230  0.5345  0.0586  0.3166
 6686TIP3    H141549   4.167   0.376  11.307  1.5435  1.7801 -0.5900
 6686TIP3    H241550   4.101   0.283  11.208 -0.4959  2.0328  0.5044
 6687TIP3   OH241551   6.503   1.633   4.914  0.5825  0.0789  0.4111
 6687TIP3    H141552   6.484   1.540   4.920  0.5809  0.0195 -0.4112
 6687TIP3    H241553   6.425   1.676   4.949 -0.2732 -0.1937 -1.1182
 6688TIP3   OH241554   0.222   3.637  13.557 -0.4050 -0.5623 -0.3072
 6688TIP3    H141555   0.178   3.655  13.640 -0.0865  1.8827 -0.6369
 6688TIP3    H241556   0.201   3.546  13.538 -1.4495 -0.8006  1.8679
 6689TIP3   OH241557   5.442   2.401  13.785 -0.6372 -0.1167 -0.4607
 6689TIP3    H141558   5.380   2.389  13.857 -1.2769  1.0143 -0.7954
 6689TIP3    H241559   5.466   2.494  13.790  2.0609 -0.8145  0.4674
 6690TIP3   OH241560   5.967   5.086   1.947  0.2520 -0.2265  0.1663
 6690TIP3    H141561   5.983   5.018   2.013 -1.0498  0.9735  1.7488
 6690TIP3    H241562   5.982   5.168   1.993 -0.8793  0.6371 -0.9671
 6691TIP3   OH241563   0.983   2.759   5.519  0.0577 -0.0876  0.9456
 6691TIP3    H141564   0.910   2.774   5.579 -1.7554  0.0630 -1.2205
 6691TIP3    H241565   0.989   2.663   5.513  1.3924 -0.1206  2.7082
 6692TIP3   OH241566   6.045   3.691   2.737 -0.0574 -0.2088  0.2004
 6692TIP3    H141567   6.059   3.604   2.775  0.1122 -1.3641 -2.3561
 6692TIP3    H241568   5.950   3.697   2.727 -0.0943  0.0494  0.7015
 6693TIP3   OH241569   2.758   4.270   6.651 -0.0035 -0.3066  0.0807
 6693TIP3    H141570   2.666   4.244   6.641 -0.0076  0.1845 -1.2443
 6693TIP3    H241571   2.779   4.249   6.742 -1.4699 -0.3039  0.4318
 6694TIP3   OH241572   3.229   5.566   3.867  0.4513 -0.2234 -0.3514
 6694TIP3    H141573   3.134   5.577   3.865  0.4665  0.5628  2.0036
 6694TIP3    H241574   3.243   5.472   3.859 -0.5711 -0.4401  0.3850
 6695TIP3   OH241575   2.690   4.811   2.215  0.4966 -0.4524 -0.0301
 6695TIP3    H141576   2.700   4.840   2.125  1.3019 -0.5702  0.0261
 6695TIP3    H241577   2.610   4.855   2.245  0.8223  0.4419 -0.4604
 6696TIP3   OH241578   0.024   6.790  14.595  0.1257  0.0350 -0.1775
 6696TIP3    H141579  -0.021   6.732  14.533  1.2075 -0.8061 -0.2025
 6696TIP3    H241580  -0.035   6.796  14.670 -0.6018 -0.0010 -0.7381
 6697TIP3   OH241581   0.649   3.697   5.006  0.4680 -0.6412 -0.5506
 6697TIP3    H141582   0.738   3.669   5.026 -0.3609 -1.7834  1.7060
 6697TIP3    H241583   0.595   3.619   5.020 -0.9842  0.2314 -1.1426
 6698TIP3   OH241584   0.110   1.697  13.646 -0.0746 -0.5417 -0.4326
 6698TIP3    H141585   0.166   1.637  13.598 -1.4253 -0.9938 -1.4915
 6698TIP3    H241586   0.055   1.640  13.701  0.4912 -0.1072  0.6025
 6699TIP3   OH241587   3.168   1.279  15.752 -0.5356 -0.2096  0.0128
 6699TIP3    H141588   3.114   1.353  15.723 -1.0163  0.5730  2.7517
 6699TIP3    H241589   3.167   1.284  15.847  0.7506 -2.8326  0.2262
 6700TIP3   OH241590   0.135   3.060   0.154 -0.3524  0.3423 -0.1302
 6700TIP3    H141591   0.153   3.013   0.073  0.9848 -0.1224  0.4279
 6700TIP3    H241592   0.040   3.072   0.154 -0.5943 -1.4659 -0.7569
 6701TIP3   OH241593   4.303   0.142  11.882 -0.6418 -0.2959  0.1367
 6701TIP3    H141594   4.359   0.098  11.818 -0.6936 -1.3733  0.8143
 6701TIP3    H241595   4.214   0.125  11.851 -0.6340  0.5952 -0.4060
 6702TIP3   OH241596   0.851   5.405  13.099 -0.1612  0.4855  0.5312
 6702TIP3    H141597   0.769   5.378  13.059  0.6855  0.8650 -1.5019
 6702TIP3    H241598   0.891   5.463  13.035  2.1276 -0.4225  1.0872
 6703TIP3   OH241599   0.005   1.552   5.286  0.3724  0.7253  0.0160
 6703TIP3    H141600  -0.060   1.622   5.288 -0.8576 -0.4165  0.7955
 6703TIP3    H241601  -0.047   1.471   5.287  1.8109 -0.2060  1.5244
 6704TIP3   OH241602   4.582   4.708  14.646 -0.1790  0.0030  0.4639
 6704TIP3    H141603   4.647   4.638  14.649  0.4613  0.6226  1.3049
 6704TIP3    H241604   4.600   4.754  14.564  1.3636  1.0162  1.3347
 6705TIP3   OH241605   1.254   2.800   6.133  0.2829 -0.5163 -0.2283
 6705TIP3    H141606   1.304   2.874   6.100  1.1723 -1.2427 -0.5443
 6705TIP3    H241607   1.306   2.767   6.207  0.3311 -1.3428 -0.6287
 6706TIP3   OH241608   2.886   1.203  11.554 -0.0440  0.1508  0.4912
 6706TIP3    H141609   2.870   1.169  11.642 -1.8453 -1.0614 -0.2756
 6706TIP3    H241610   2.808   1.180  11.504  1.3226 -0.0011 -1.6743
 6707TIP3   OH241611   6.566   1.644  16.555  0.0864 -0.4149  0.2321
 6707TIP3    H141612   6.641   1.647  16.615  1.1408 -1.7676 -0.9953
 6707TIP3    H241613   6.601   1.606  16.475 -1.3880  1.0507 -1.1473
 6708TIP3   OH241614   4.873   5.233  11.753 -0.0301  0.6073 -0.3000
 6708TIP3    H141615   4.929   5.160  11.778 -1.2569  0.3873  1.8978
 6708TIP3    H241616   4.917   5.310  11.788 -0.9368  0.4573  1.2198
 6709TIP3   OH241617   1.773   4.033  13.608 -0.4331 -0.3227 -0.4426
 6709TIP3    H141618   1.754   3.953  13.657 -2.6694  0.2836 -0.2572
 6709TIP3    H241619   1.829   4.084  13.666  1.4473 -1.9333 -0.7610
 6710TIP3   OH241620   4.302   5.250  13.665  0.2706  0.7159 -0.4251
 6710TIP3    H141621   4.306   5.256  13.569  0.9288  3.1095 -0.2916
 6710TIP3    H241622   4.223   5.200  13.683 -1.8151  3.2028 -2.1862
 6711TIP3   OH241623   3.013   6.467   0.529  0.4172 -0.6628 -0.1348
 6711TIP3    H141624   2.954   6.494   0.458  0.6649 -2.5333 -1.0880
 6711TIP3    H241625   2.954   6.435   0.598  0.2021  0.5655  0.2628
 6712TIP3   OH241626   3.300   1.253   4.363 -0.2879 -0.4127 -1.0115
 6712TIP3    H141627   3.293   1.340   4.401  1.3194 -0.2814 -1.0001
 6712TIP3    H241628   3.310   1.268   4.269 -1.3333 -0.6463 -1.1739
 6713TIP3   OH241629   6.607   6.794   4.043  0.1802 -0.0731 -0.2759
 6713TIP3    H141630   6.605   6.835   3.956  0.4987  1.0919  0.2562
 6713TIP3    H241631   6.693   6.817   4.078  0.3544 -1.1895  0.0473
 6714TIP3   OH241632   6.275   4.776  12.108  0.0161  0.1945  0.2498
 6714TIP3    H141633   6.221   4.852  12.087  0.8992  0.4406 -1.2100
 6714TIP3    H241634   6.315   4.752  12.024  1.6634 -0.3729  1.1868
 6715TIP3   OH241635   5.576   5.824  12.697 -0.6422  0.2510 -0.8410
 6715TIP3    H141636   5.609   5.750  12.646 -2.0222 -0.3236 -0.9223
 6715TIP3    H241637   5.501   5.856  12.647  1.0128  2.8398 -1.7140
 6716TIP3   OH241638   0.434   6.589   2.001  0.2910 -0.0022 -0.5109
 6716TIP3    H141639   0.426   6.618   2.092  0.7180  2.5190 -1.2336
 6716TIP3    H241640   0.355   6.622   1.958 -0.5724 -2.3436 -0.7956
 6717TIP3   OH241641   6.808   2.003   2.687 -0.1660 -0.2666  0.0965
 6717TIP3    H141642   6.813   1.981   2.594 -0.5488 -0.9628  0.2307
 6717TIP3    H241643   6.810   1.918   2.731 -0.7812  0.0201  0.6870
 6718TIP3   OH241644   4.306   0.328  13.286  0.5034  0.2741  0.4383
 6718TIP3    H141645   4.234   0.360  13.232 -0.9456 -0.6123  1.8117
 6718TIP3    H241646   4.265   0.267  13.347  2.9423 -2.8715 -0.9629
 6719TIP3   OH241647   0.493   0.984   1.329  0.3151 -0.4316  0.0769
 6719TIP3    H141648   0.587   0.983   1.308  0.2188  0.3211 -0.4395
 6719TIP3    H241649   0.486   1.046   1.402  0.0476  0.6619 -0.8500
 6720TIP3   OH241650   4.254   1.124  15.900 -0.5100  0.2092 -0.2461
 6720TIP3    H141651   4.220   1.100  15.813  1.3893  0.0090 -0.9613
 6720TIP3    H241652   4.226   1.053  15.957  0.2950 -0.8853 -1.1999
 6721TIP3   OH241653   2.787   1.507  12.947  0.3128  0.3051 -0.3713
 6721TIP3    H141654   2.692   1.513  12.951  0.2727  0.0603 -0.9967
 6721TIP3    H241655   2.814   1.571  12.881  0.6726  1.1726  0.5977
 6722TIP3   OH241656   0.115   1.139  13.356 -0.2633  0.3108 -0.4339
 6722TIP3    H141657   0.144   1.131  13.447 -1.0721  0.8765 -0.1161
 6722TIP3    H241658   0.176   1.085  13.306 -0.2465 -0.5904  0.5420
 6723TIP3   OH241659   1.279   2.444   4.257 -0.3605  0.3188  0.1249
 6723TIP3    H141660   1.347   2.384   4.286  0.0109  0.9135  0.4860
 6723TIP3    H241661   1.251   2.410   4.172  0.2636 -0.0182  0.0561
 6724TIP3   OH241662   0.406   3.878  10.273 -0.0502 -0.0065  0.5741
 6724TIP3    H141663   0.400   3.791  10.313 -2.3871  0.3428  1.0321
 6724TIP3    H241664   0.340   3.930  10.319  1.3997  2.0565  0.3831
 6725TIP3   OH241665   2.744   6.455   3.840  0.1751 -0.3494 -0.0269
 6725TIP3    H141666   2.725   6.509   3.917 -0.2564  1.2505 -1.2216
 6725TIP3    H241667   2.660   6.414   3.818  0.0033  0.2035 -0.4029
 6726TIP3   OH241668   4.251   2.235   3.694  0.0957 -0.1189 -0.3333
 6726TIP3    H141669   4.309   2.165   3.665  0.2579 -0.0322 -0.2176
 6726TIP3    H241670   4.309   2.308   3.715 -0.2170  0.9118 -2.8782
 6727TIP3   OH241671   0.752   6.707   5.521  0.1084 -0.1234  0.0720
 6727TIP3    H141672   0.730   6.696   5.428 -1.0082  0.3316  0.2793
 6727TIP3    H241673   0.846   6.694   5.524  0.1269 -0.3744 -1.0986
 6728TIP3   OH241674   1.224   5.616  16.878  0.0193  0.7035  0.0870
 6728TIP3    H141675   1.258   5.621  16.967 -0.4647  0.3142  0.2906
 6728TIP3    H241676   1.159   5.546  16.880 -1.0280  1.6653 -0.2416
 6729TIP3   OH241677   6.809   0.291   1.931 -0.1483 -0.3169 -0.0474
 6729TIP3    H141678   6.871   0.221   1.911  0.5891  0.1389  0.6356
 6729TIP3    H241679   6.847   0.369   1.890  0.7963  0.3913  2.0695
 6730TIP3   OH241680   2.838   1.037  17.143 -0.2039  0.1758  0.5125
 6730TIP3    H141681   2.929   1.065  17.149  0.3160 -1.5740  0.8616
 6730TIP3    H241682   2.822   1.026  17.049 -0.8699  3.0250  0.2303
 6731TIP3   OH241683   3.599   4.109   3.655  0.8383  0.4007  0.3978
 6731TIP3    H141684   3.655   4.038   3.623  0.2391  0.0403  0.1414
 6731TIP3    H241685   3.578   4.085   3.745  1.6177  0.8620  0.7121
 6732TIP3   OH241686   5.997   2.827   3.237  0.1013  0.3058  0.6624
 6732TIP3    H141687   5.942   2.767   3.187  3.0597 -1.9886  0.0353
 6732TIP3    H241688   6.000   2.906   3.183 -0.0701 -0.6748 -0.8260
 6733TIP3   OH241689   6.796   5.841   0.065  0.1154  0.1156 -0.2630
 6733TIP3    H141690   6.763   5.804   0.147 -0.2003  1.4369  0.2092
 6733TIP3    H241691   6.732   5.816  -0.001  0.0887 -0.4793 -0.0170
 6734TIP3   OH241692   3.947   1.579  12.427 -0.3188 -0.2424 -0.7005
 6734TIP3    H141693   4.030   1.580  12.475 -0.4573 -0.1410 -0.4629
 6734TIP3    H241694   3.910   1.492  12.444 -1.8727  0.8767  1.9815
 6735TIP3   OH241695   1.704   0.166   6.539 -0.0092 -0.0304  0.0911
 6735TIP3    H141696   1.629   0.125   6.581 -1.8948  2.6676 -0.4875
 6735TIP3    H241697   1.717   0.116   6.459 -0.4234 -1.2679  0.7842
 6736TIP3   OH241698   3.350   2.697  12.205 -0.1407 -0.4693 -0.3173
 6736TIP3    H141699   3.261   2.729  12.221 -0.8444 -2.7149  0.5179
 6736TIP3    H241700   3.364   2.710  12.111 -1.0674  0.6154 -0.3044
 6737TIP3   OH241701   4.713   2.045   1.242 -0.1885  0.1380  0.1029
 6737TIP3    H141702   4.715   1.950   1.230 -1.4515  0.0439  0.5469
 6737TIP3    H241703   4.759   2.059   1.325  1.3223  0.0628 -0.6996
 6738TIP3   OH241704   5.161   5.616   6.109 -0.2823  0.6280 -0.4317
 6738TIP3    H141705   5.253   5.622   6.082 -0.1116  1.4896  0.3373
 6738TIP3    H241706   5.164   5.616   6.205 -1.1151  1.0896 -0.4000
 6739TIP3   OH241707   0.898   4.244   3.574  0.1798 -0.3716  0.3807
 6739TIP3    H141708   0.901   4.316   3.637  1.5896  1.9527 -2.2004
 6739TIP3    H241709   0.958   4.178   3.608  1.1666  0.9832  1.2988
 6740TIP3   OH241710   2.834   4.977   3.959 -0.2112 -0.0147 -0.1814
 6740TIP3    H141711   2.746   4.954   3.928 -0.2976 -1.9501  1.4043
 6740TIP3    H241712   2.818   5.033   4.035  0.0003  4.8416 -3.4902
 6741TIP3   OH241713   1.587   5.104  16.731  0.4128 -0.3726  0.3983
 6741TIP3    H141714   1.652   5.144  16.789  0.6970 -1.8748  1.1391
 6741TIP3    H241715   1.583   5.012  16.758 -1.0770 -0.5957 -0.5009
 6742TIP3   OH241716   3.974   3.721   0.693 -0.0420  0.4582  0.3818
 6742TIP3    H141717   3.888   3.682   0.677  0.4636 -0.9768  1.1547
 6742TIP3    H241718   3.966   3.810   0.657 -3.2850  1.9436  4.3910
 6743TIP3   OH241719   3.736   1.847  11.502  0.2280 -0.4778 -0.8432
 6743TIP3    H141720   3.645   1.820  11.496  0.2640 -0.0215 -4.6187
 6743TIP3    H241721   3.736   1.940  11.477  1.8550 -0.8188 -2.2305
 6744TIP3   OH241722   5.599   4.285   4.838  0.0956  0.3292 -0.3497
 6744TIP3    H141723   5.606   4.348   4.909 -0.0365 -0.2993  0.2210
 6744TIP3    H241724   5.535   4.220   4.868  0.2731 -0.1114 -0.8992
 6745TIP3   OH241725   2.466   1.267   2.109 -0.1534  0.0010 -0.2650
 6745TIP3    H141726   2.390   1.302   2.061  0.7325  0.2139 -1.5192
 6745TIP3    H241727   2.447   1.174   2.118 -1.3613  0.3361  0.9320
 6746TIP3   OH241728   5.692   2.658   2.641 -0.0399 -0.6752  0.0422
 6746TIP3    H141729   5.690   2.707   2.558 -0.1691 -0.8476 -0.0551
 6746TIP3    H241730   5.752   2.586   2.624 -0.0006 -0.6624  0.1267
 6747TIP3   OH241731   4.388   6.602   4.710 -0.9348  0.2186 -0.2211
 6747TIP3    H141732   4.415   6.625   4.799  0.0905 -1.7872  0.0246
 6747TIP3    H241733   4.321   6.666   4.688 -0.2976  1.5208  1.5163
 6748TIP3   OH241734   3.100   1.971  15.919 -0.3433  0.2589 -0.0122
 6748TIP3    H141735   3.033   1.999  15.857 -0.3492 -0.5536 -0.3828
 6748TIP3    H241736   3.058   1.903  15.972 -0.1601  0.5396  0.4959
 6749TIP3   OH241737   1.791   4.754  15.213  0.0681  0.4434  0.0017
 6749TIP3    H141738   1.702   4.787  15.229 -0.7853 -1.6543 -0.1851
 6749TIP3    H241739   1.786   4.714  15.126  1.3595  0.8551 -0.2654
 6750TIP3   OH241740   5.897   2.063   6.000 -0.2374 -0.0220  0.0462
 6750TIP3    H141741   5.925   2.108   6.079 -2.6622  0.1559  0.8384
 6750TIP3    H241742   5.901   2.131   5.932 -1.1041  0.6474  0.6523
 6751TIP3   OH241743   0.448   3.012  12.911 -0.3584 -0.2031 -0.6290
 6751TIP3    H141744   0.505   2.940  12.885  0.4554  0.3288 -0.3297
 6751TIP3    H241745   0.373   2.969  12.953 -1.9176 -1.1315 -4.1257
 6752TIP3   OH241746   6.803   5.542  11.574  0.2199 -0.1947  0.0884
 6752TIP3    H141747   6.756   5.559  11.656 -0.5345 -1.4904 -0.0630
 6752TIP3    H241748   6.868   5.476  11.598  1.9533  1.5480  0.2845
 6753TIP3   OH241749   5.069   3.613   2.931 -0.0407 -0.2627 -1.0128
 6753TIP3    H141750   5.097   3.526   2.901 -0.6710 -0.5258 -0.8507
 6753TIP3    H241751   5.034   3.598   3.019 -0.8636  0.0233 -1.2861
 6754TIP3   OH241752   5.403   5.805  10.802 -0.4254 -0.0870  0.1147
 6754TIP3    H141753   5.407   5.709  10.810  0.9703  0.0184  1.0476
 6754TIP3    H241754   5.456   5.824  10.725 -0.2800 -0.0520  0.2199
 6755TIP3   OH241755   3.637   0.321   0.012 -0.2610  0.1068 -0.1975
 6755TIP3    H141756   3.575   0.393   0.003 -0.6793 -0.0190  1.5191
 6755TIP3    H241757   3.656   0.317   0.106 -0.1121 -1.9020 -0.2853
 6756TIP3   OH241758   2.996   5.081  17.288 -0.1983  0.6787 -0.2938
 6756TIP3    H141759   2.957   5.106  17.372 -2.0839  2.0776 -1.5184
 6756TIP3    H241760   3.017   5.165  17.246  0.9778 -0.0057 -1.1100
 6757TIP3   OH241761   3.960   0.568   3.521  0.0034 -0.3763 -0.0944
 6757TIP3    H141762   4.009   0.594   3.442  0.8082 -0.6916  0.2988
 6757TIP3    H241763   3.979   0.475   3.531 -4.3341 -1.6764 -2.5607
 6758TIP3   OH241764   1.483   4.287  14.164  0.2856 -0.1026 -0.0187
 6758TIP3    H141765   1.461   4.209  14.113 -0.8838  0.4029 -0.3023
 6758TIP3    H241766   1.488   4.256  14.255  0.7084 -0.6812 -0.2420
 6759TIP3   OH241767   4.668   6.804   1.985 -0.3503 -0.5927 -0.1555
 6759TIP3    H141768   4.626   6.724   1.954 -0.8031 -0.1635 -0.6607
 6759TIP3    H241769   4.620   6.874   1.942  2.2408 -0.1431 -2.4486
 6760TIP3   OH241770   1.270   5.495  15.070  0.3527  0.2993  0.4252
 6760TIP3    H141771   1.285   5.421  15.129  1.0775  0.3287  0.2833
 6760TIP3    H241772   1.195   5.469  15.017  0.7303 -0.4192  0.2336
 6761TIP3   OH241773   4.651   4.281  14.377  0.2409  0.3280  0.2394
 6761TIP3    H141774   4.690   4.325  14.301 -0.0950  1.0428  0.4704
 6761TIP3    H241775   4.650   4.348  14.445  1.1279 -0.5041  1.0758
 6762TIP3   OH241776   3.109   1.645   0.587  0.4013 -0.5236  0.1039
 6762TIP3    H141777   3.045   1.704   0.627 -0.4152 -0.1694 -1.6989
 6762TIP3    H241778   3.183   1.645   0.649 -0.2064  1.1992  0.8624
 6763TIP3   OH241779   0.512   2.268  13.310  0.1648 -0.0230  0.4303
 6763TIP3    H141780   0.560   2.202  13.360  0.0943  1.2813  2.2614
 6763TIP3    H241781   0.453   2.308  13.373 -0.1630  1.4374 -0.7717
 6764TIP3   OH241782   3.826   3.429   6.367  0.0737  0.0885 -0.4130
 6764TIP3    H141783   3.862   3.517   6.360  0.5570 -0.0967 -0.2481
 6764TIP3    H241784   3.853   3.386   6.286 -0.8164  0.3267 -0.8490
 6765TIP3   OH241785   6.755   3.796   2.834 -0.5217 -0.6312  0.0656
 6765TIP3    H141786   6.661   3.798   2.817 -0.6828 -0.2076  0.9615
 6765TIP3    H241787   6.766   3.733   2.904 -0.3845  0.7584  1.3274
 6766TIP3   OH241788   0.455   4.452  14.678 -0.9243 -0.4129 -0.2014
 6766TIP3    H141789   0.536   4.480  14.720 -0.8671  0.0325 -0.6082
 6766TIP3    H241790   0.462   4.356  14.674 -0.9219 -0.4564  0.7779
 6767TIP3   OH241791   0.389   0.201   3.145  0.2313 -0.0624  0.3595
 6767TIP3    H141792   0.437   0.217   3.226  0.2424 -0.5848  0.4571
 6767TIP3    H241793   0.304   0.245   3.158  0.5342  0.5328  0.3361
 6768TIP3   OH241794   4.499   5.089   3.447 -0.5893  0.6341 -0.6825
 6768TIP3    H141795   4.498   4.998   3.479  2.0005  0.2915 -1.4856
 6768TIP3    H241796   4.578   5.095   3.394 -0.9868  3.2474 -1.0361
 6769TIP3   OH241797   3.516   5.066   1.890 -0.2017 -0.2123 -0.3271
 6769TIP3    H141798   3.449   4.998   1.892  0.3512 -0.7576  0.0905
 6769TIP3    H241799   3.506   5.109   1.805 -0.1855 -1.1907 -0.8250
 6770TIP3   OH241800   0.188   2.159   4.153  0.3734 -0.5166  0.1999
 6770TIP3    H141801   0.123   2.209   4.104  0.1326 -2.8562 -1.9988
 6770TIP3    H241802   0.260   2.221   4.168 -0.2060  0.6838 -1.8197
 6771TIP3   OH241803   4.269   4.917  11.992 -0.0945  0.4195  0.5305
 6771TIP3    H141804   4.208   4.891  11.924  0.2903  0.5845  0.1136
 6771TIP3    H241805   4.286   4.838  12.043  0.9688 -0.1134 -0.6410
 6772TIP3   OH241806   6.185   4.819   5.203  0.8391  0.1878 -0.1243
 6772TIP3    H141807   6.112   4.835   5.262  1.3596  0.6283  0.4000
 6772TIP3    H241808   6.238   4.898   5.207  1.0311  0.1110 -0.9664
 6773TIP3   OH241809   1.993   4.517  16.255  0.2863 -0.2538  0.5285
 6773TIP3    H141810   1.909   4.475  16.274 -0.6060  1.3155  0.2181
 6773TIP3    H241811   2.000   4.514  16.159 -0.8449  2.1608  0.3113
 6774TIP3   OH241812   6.660   3.191   5.257  0.5465  0.3129 -0.1591
 6774TIP3    H141813   6.692   3.272   5.298  0.9957  0.4841 -0.8457
 6774TIP3    H241814   6.572   3.214   5.225 -0.1364 -0.0464  1.3745
 6775TIP3   OH241815   0.218   6.370  16.660 -0.1555  0.6829 -0.4267
 6775TIP3    H141816   0.218   6.419  16.578  0.9825  0.9988 -0.2419
 6775TIP3    H241817   0.196   6.280  16.633 -0.5591  0.9435 -0.9786
 6776TIP3   OH241818   2.336   5.966  13.197  0.1788 -0.5083 -0.1248
 6776TIP3    H141819   2.386   5.896  13.155  0.1998 -0.6800  0.1838
 6776TIP3    H241820   2.306   5.928  13.280  1.3379  0.2753  0.6681
 6777TIP3   OH241821   4.206   1.478   5.064 -0.1061 -0.3378 -0.6591
 6777TIP3    H141822   4.265   1.458   5.137 -0.9317  0.0586  0.1236
 6777TIP3    H241823   4.253   1.544   5.013  0.6508 -0.9094 -0.7244
 6778TIP3   OH241824   3.689   3.455   2.113  0.0863 -0.4058  0.9683
 6778TIP3    H141825   3.608   3.407   2.096  0.4741 -0.5385 -0.6022
 6778TIP3    H241826   3.720   3.421   2.197 -0.7289 -1.4045  0.8752
 6779TIP3   OH241827   4.380   0.384  12.009  0.2282  0.1530  0.3765
 6779TIP3    H141828   4.382   0.428  11.924 -2.8106  1.6580  1.0389
 6779TIP3    H241829   4.339   0.299  11.992 -0.9064  0.6901  0.4514
 6780TIP3   OH241830   5.898   0.390   4.269  0.3877 -0.2562 -0.1754
 6780TIP3    H141831   5.906   0.356   4.180  0.1940  0.8619 -0.6255
 6780TIP3    H241832   5.975   0.446   4.280 -2.1750  3.7919 -1.5352
 6781TIP3   OH241833   3.332   2.872   0.841  0.1005  0.0378 -0.5663
 6781TIP3    H141834   3.315   2.782   0.813  0.6986  0.2098 -1.4852
 6781TIP3    H241835   3.388   2.863   0.918 -0.2717 -0.3876 -0.3429
 6782TIP3   OH241836   6.260   6.558  12.871  0.5818 -0.6616 -0.6172
 6782TIP3    H141837   6.342   6.604  12.887  0.8991 -0.0738 -3.6767
 6782TIP3    H241838   6.210   6.571  12.952  3.2124 -0.5057  1.0545
 6783TIP3   OH241839   3.449   1.941  15.326  0.1656  0.0490  0.2127
 6783TIP3    H141840   3.388   1.963  15.255  1.7450 -0.2120 -1.2616
 6783TIP3    H241841   3.420   1.855  15.356 -0.7047  0.2957  0.1087
 6784TIP3   OH241842   2.215   3.800   3.451  0.0220 -0.0232 -0.4954
 6784TIP3    H141843   2.176   3.885   3.471  0.5546  0.0022  0.4385
 6784TIP3    H241844   2.149   3.756   3.397 -0.3718  0.8683 -0.7588
 6785TIP3   OH241845   2.774   3.363  13.165 -0.0203 -0.0872 -0.0707
 6785TIP3    H141846   2.746   3.289  13.218  2.2430 -0.6935  0.3272
 6785TIP3    H241847   2.770   3.331  13.075 -2.0002  0.3218 -0.1489
 6786TIP3   OH241848   6.530   0.602   4.430  0.8059  0.2552 -0.0495
 6786TIP3    H141849   6.453   0.658   4.436  0.4073 -0.6109  4.5533
 6786TIP3    H241850   6.602   0.662   4.413  0.0202  1.8965  2.2375
 6787TIP3   OH241851   0.968   2.911  12.312  0.1040 -0.4428 -0.1221
 6787TIP3    H141852   1.057   2.942  12.325 -0.1600  0.1690  0.2995
 6787TIP3    H241853   0.948   2.932  12.221  1.0996 -2.4591 -0.8221
 6788TIP3   OH241854   0.074   1.269  16.485 -0.0158 -0.0093 -0.3667
 6788TIP3    H141855   0.080   1.223  16.402  0.4030 -2.0461  0.7507
 6788TIP3    H241856   0.146   1.233  16.537  0.4401  2.0771  0.4679
 6789TIP3   OH241857   4.459   1.148   1.648 -0.5284  0.3287 -0.1044
 6789TIP3    H141858   4.544   1.108   1.627  0.1107  0.8172  1.4453
 6789TIP3    H241859   4.443   1.124   1.739 -0.9788  2.0786  0.2956
 6790TIP3   OH241860   0.810   5.597  12.056  0.5206  0.1622  0.2185
 6790TIP3    H141861   0.845   5.552  12.133 -0.8248  1.1828  1.4596
 6790TIP3    H241862   0.841   5.687  12.065 -0.3755  0.4933  0.0441
 6791TIP3   OH241863   6.140   0.051   3.993 -0.1086 -0.3253 -0.4744
 6791TIP3    H141864   6.085   0.022   3.920  0.3516  2.4078 -1.9651
 6791TIP3    H241865   6.125  -0.014   4.062 -2.3766 -1.6432 -2.1581
 6792TIP3   OH241866   0.877   1.909   5.461 -0.0858  0.4008  0.0081
 6792TIP3    H141867   0.872   1.813   5.463 -2.0934  0.5042  0.5398
 6792TIP3    H241868   0.788   1.937   5.440  0.4875  2.1657 -0.1300
 6793TIP3   OH241869   4.811   5.904  10.540 -0.4382 -0.3475  0.3348
 6793TIP3    H141870   4.898   5.921  10.503  0.1700 -0.5949  1.6008
 6793TIP3    H241871   4.783   5.822  10.500 -1.2236  1.0194 -2.0329
 6794TIP3   OH241872   5.240   2.927   6.156 -0.2414  0.6379 -0.0339
 6794TIP3    H141873   5.149   2.953   6.147 -0.5721 -0.1443  0.9732
 6794TIP3    H241874   5.287   2.982   6.094 -1.3349  1.3931 -0.1987
 6795TIP3   OH241875   2.266   5.206  12.845  0.6149 -0.3682  0.4934
 6795TIP3    H141876   2.273   5.160  12.929  0.1440  0.8799  1.2321
 6795TIP3    H241877   2.318   5.153  12.785 -0.6975 -2.3980  1.0846
 6796TIP3   OH241878   5.774   2.715  14.181  0.4612  0.0130 -0.2764
 6796TIP3    H141879   5.811   2.729  14.094  0.1483 -1.2820 -0.6247
 6796TIP3    H241880   5.694   2.664  14.166 -0.0467  0.4998  0.6921
 6797TIP3   OH241881   4.187   0.177  12.178 -0.1171  0.3764 -0.5115
 6797TIP3    H141882   4.169   0.270  12.173 -2.0344  0.0390 -0.1812
 6797TIP3    H241883   4.115   0.141  12.229 -0.2594 -1.5234 -2.0069
 6798TIP3   OH241884   5.264   3.898   1.387 -0.5042  0.9100  0.3718
 6798TIP3    H141885   5.331   3.958   1.418  1.0594 -1.1657  1.0730
 6798TIP3    H241886   5.199   3.895   1.458 -0.0878  1.0008  0.7570
 6799TIP3   OH241887   0.897   4.716  17.219 -0.0859  0.4644 -0.0179
 6799TIP3    H141888   0.813   4.753  17.192  0.8488  3.0405  0.5398
 6799TIP3    H241889   0.915   4.648  17.153 -1.2009  1.8684 -1.8147
 6800TIP3   OH241890   3.560   2.440   2.833 -0.1801  0.5220 -0.6291
 6800TIP3    H141891   3.535   2.391   2.911  0.7097  2.2564  0.7978
 6800TIP3    H241892   3.498   2.513   2.830 -0.8375 -0.0741 -2.1343
 6801TIP3   OH241893   2.811   0.646  13.986  0.0974 -0.2499 -0.0531
 6801TIP3    H141894   2.788   0.655  14.078  0.9774  0.5200  0.1005
 6801TIP3    H241895   2.828   0.553  13.974  1.1137 -0.1887  0.8404
 6802TIP3   OH241896   0.382   2.708  15.322  0.0230  0.5548  0.3561
 6802TIP3    H141897   0.289   2.697  15.342  0.2060 -0.1178  0.8419
 6802TIP3    H241898   0.401   2.640  15.258 -0.0623  1.3586 -0.5342
 6803TIP3   OH241899   3.657   0.564   4.771  0.8176 -0.0270 -0.4269
 6803TIP3    H141900   3.627   0.655   4.777 -0.8282 -0.6546  1.4930
 6803TIP3    H241901   3.752   0.569   4.783  0.4820  1.2641  2.0290
 6804TIP3   OH241902   2.090   0.280   6.066 -0.0343  0.0048  0.0550
 6804TIP3    H141903   2.178   0.310   6.042  0.0302 -0.8105 -0.7701
 6804TIP3    H241904   2.102   0.233   6.148  0.5446 -1.3428 -0.7876
 6805TIP3   OH241905   1.817   6.156   6.162  0.3479 -0.1776 -0.4903
 6805TIP3    H141906   1.853   6.206   6.236  0.2238 -0.0086 -0.5447
 6805TIP3    H241907   1.802   6.068   6.198 -1.3825  0.3794  0.1870
 6806TIP3   OH241908   3.540   5.129   0.101 -0.2653 -0.0647  0.1634
 6806TIP3    H141909   3.568   5.212   0.139  0.2202 -0.3013  0.3262
 6806TIP3    H241910   3.504   5.080   0.176  0.7151 -0.5407  0.3216
 6807TIP3   OH241911   2.559   5.334   6.480 -0.3776 -0.2334 -0.2440
 6807TIP3    H141912   2.468   5.340   6.449 -1.6562  0.1387  3.3922
 6807TIP3    H241913   2.578   5.421   6.514 -0.4154 -1.6198  3.5206
 6808TIP3   OH241914   2.267   1.956   4.817 -0.1286 -0.9747  0.0171
 6808TIP3    H141915   2.241   1.908   4.895 -2.3097  1.5148  0.8479
 6808TIP3    H241916   2.189   2.004   4.790  1.4043  0.4464 -2.0512
 6809TIP3   OH241917   2.548   1.036   2.473  0.1967  0.1267 -0.5377
 6809TIP3    H141918   2.472   1.055   2.529 -0.3187  0.7816 -1.4479
 6809TIP3    H241919   2.512   0.983   2.402  0.5918  0.4659 -0.9883
 6810TIP3   OH241920   5.543   1.341  14.610  0.5520  0.2995  0.2538
 6810TIP3    H141921   5.555   1.339  14.705 -1.8801  1.3455  0.6188
 6810TIP3    H241922   5.482   1.269  14.592  0.1399  0.7891 -0.3539
 6811TIP3   OH241923   5.344   1.393   4.921 -0.0180  0.2145 -0.0411
 6811TIP3    H141924   5.249   1.387   4.906 -0.4812  2.3302  1.8738
 6811TIP3    H241925   5.353   1.404   5.015  2.0350  2.2322 -0.4383
 6812TIP3   OH241926   5.941   1.117   0.428  0.3851  0.1373  0.0967
 6812TIP3    H141927   5.864   1.091   0.479  1.7635 -0.6096  1.8565
 6812TIP3    H241928   5.914   1.196   0.382 -0.0636  2.4668  4.1508
 6813TIP3   OH241929   4.510   0.355  16.116 -0.3731  0.2825 -0.1601
 6813TIP3    H141930   4.472   0.337  16.202 -1.2682  1.7815 -0.2330
 6813TIP3    H241931   4.604   0.363  16.133 -0.5119  0.2924  0.6271
 6814TIP3   OH241932   2.498   2.842   0.645 -0.1320 -0.0461  0.1389
 6814TIP3    H141933   2.460   2.814   0.728 -0.7049 -0.4394 -0.2567
 6814TIP3    H241934   2.429   2.828   0.581 -0.3103  1.9035 -0.1359
 6815TIP3   OH241935   6.234   3.216  14.007  0.5939 -0.3586 -0.3674
 6815TIP3    H141936   6.278   3.275  13.946  0.9840 -0.3843 -0.1149
 6815TIP3    H241937   6.256   3.250  14.093 -1.6796  0.9271 -0.2408
 6816TIP3   OH241938   6.050   0.125  11.435  0.0493 -0.3733 -0.5384
 6816TIP3    H141939   5.957   0.143  11.450 -0.0062 -0.0319 -1.2711
 6816TIP3    H241940   6.095   0.168  11.508 -0.3603 -0.4381 -0.2468
 6817TIP3   OH241941   0.760   5.812  14.284 -0.1392 -0.7024 -0.1179
 6817TIP3    H141942   0.692   5.785  14.223  1.2520 -2.4883 -0.9442
 6817TIP3    H241943   0.749   5.907  14.292 -2.5033 -0.9071 -0.4597
 6818TIP3   OH241944   2.522   1.042  13.439  0.7271 -0.3821  0.4684
 6818TIP3    H141945   2.581   1.009  13.508 -0.3660  1.5178  2.3775
 6818TIP3    H241946   2.447   1.077  13.487 -1.9136 -2.6006 -1.9305
 6819TIP3   OH241947   3.138   6.635  12.513  0.4409  0.0903  0.3558
 6819TIP3    H141948   3.072   6.587  12.463  1.1681 -0.1956 -0.3649
 6819TIP3    H241949   3.133   6.599  12.601  0.3111 -0.6392  0.0580
 6820TIP3   OH241950   1.652   3.751   1.211  0.2976  0.5894  0.3335
 6820TIP3    H141951   1.667   3.791   1.297  0.3468  2.9435 -0.7273
 6820TIP3    H241952   1.560   3.770   1.193  0.0165 -0.7891  0.3006
 6821TIP3   OH241953   3.731   1.809  10.571 -0.5053 -0.1136 -0.2458
 6821TIP3    H141954   3.743   1.793  10.477 -0.5913  2.3251 -0.7061
 6821TIP3    H241955   3.803   1.866  10.595 -0.5943 -0.5652  1.1505
 6822TIP3   OH241956   0.972   4.875  16.558 -0.5228 -0.5283 -0.3596
 6822TIP3    H141957   0.972   4.858  16.652 -0.0565  0.9588 -0.0879
 6822TIP3    H241958   1.051   4.927  16.543 -1.1614  0.1595 -1.4086
 6823TIP3   OH241959   4.787   1.390  15.987 -0.3920  0.0328  0.6949
 6823TIP3    H141960   4.781   1.466  16.045 -0.1406  0.9918 -0.5305
 6823TIP3    H241961   4.777   1.426  15.899 -0.8677 -1.4298  0.1387
 6824TIP3   OH241962   4.367   4.551   2.562 -0.8376 -0.3011 -0.3844
 6824TIP3    H141963   4.346   4.613   2.632 -0.8264 -2.4928  1.6592
 6824TIP3    H241964   4.286   4.542   2.513 -1.1982  0.4006  0.0735
 6825TIP3   OH241965   4.602   3.239   2.210  0.0019  0.2425 -0.2877
 6825TIP3    H141966   4.544   3.255   2.136 -0.4852  0.8135  0.2059
 6825TIP3    H241967   4.677   3.194   2.173  0.6206  2.1945 -1.4462
 6826TIP3   OH241968   4.820   1.298  14.193 -0.7922 -0.4122  0.3355
 6826TIP3    H141969   4.893   1.316  14.133 -1.3253  0.5228 -0.0442
 6826TIP3    H241970   4.821   1.203  14.205 -0.3161 -0.5404 -0.6953
 6827TIP3   OH241971   0.078   5.512   4.297 -0.1780  0.3000 -0.0896
 6827TIP3    H141972   0.022   5.435   4.295  0.1481  0.0301  0.7515
 6827TIP3    H241973   0.140   5.499   4.226 -0.1085 -0.2305  0.0686
 6828TIP3   OH241974   6.629   3.684  16.175 -0.4249 -0.0308  0.3753
 6828TIP3    H141975   6.618   3.636  16.093 -0.8918 -1.8589  1.4643
 6828TIP3    H241976   6.540   3.698  16.206 -0.3369  2.6063 -0.4981
 6829TIP3   OH241977   5.315   3.304  11.666  0.5737 -0.0131 -0.3303
 6829TIP3    H141978   5.294   3.211  11.659  2.0481 -0.2852 -1.3559
 6829TIP3    H241979   5.280   3.343  11.586 -2.5406  0.8440  1.3623
 6830TIP3   OH241980   3.435   3.426   5.512 -0.5148  0.6535 -0.3866
 6830TIP3    H141981   3.436   3.511   5.468  0.8085  0.3581 -0.9332
 6830TIP3    H241982   3.469   3.364   5.447 -0.7033 -0.1658  0.2829
 6831TIP3   OH241983   2.473   1.783   4.433  0.3316  0.0559  0.0474
 6831TIP3    H141984   2.563   1.808   4.413  1.0063 -2.1623  0.1805
 6831TIP3    H241985   2.474   1.687   4.433 -1.9252  0.0021  0.5282
 6832TIP3   OH241986   5.469   0.335  15.213  0.3867 -0.7457  0.0573
 6832TIP3    H141987   5.473   0.286  15.295 -1.9947 -0.9057  0.1327
 6832TIP3    H241988   5.395   0.296  15.166  0.6258  0.5079 -1.4010
 6833TIP3   OH241989   5.298   3.545  13.879 -0.4009 -0.1043  0.3373
 6833TIP3    H141990   5.317   3.616  13.940  0.7070  1.1293 -1.3962
 6833TIP3    H241991   5.316   3.582  13.792  0.7310 -2.6733 -0.5750
 6834TIP3   OH241992   0.598   1.061  13.159 -0.3615  0.4254  0.0567
 6834TIP3    H141993   0.602   1.132  13.224 -0.1023 -0.7256  1.3133
 6834TIP3    H241994   0.514   1.017  13.177  0.8155 -1.4041  1.2472
 6835TIP3   OH241995   5.918   6.151  12.486 -0.2188 -0.4281  0.7721
 6835TIP3    H141996   5.928   6.199  12.404 -0.5225 -0.0467  0.9554
 6835TIP3    H241997   6.008   6.133  12.514 -0.1115 -0.3048  0.5015
 6836TIP3   OH241998   5.858   1.368  11.837  0.4410 -0.3562 -0.3330
 6836TIP3    H141999   5.854   1.431  11.909 -0.5520 -1.3938  0.5394
 6836TIP3    H242000   5.839   1.420  11.759 -1.3756  0.2379  0.4810
 6837TIP3   OH242001   2.594   2.958   3.600  0.1855 -0.0996 -0.2278
 6837TIP3    H142002   2.634   2.885   3.647  0.5620  0.4633  0.3410
 6837TIP3    H242003   2.655   2.978   3.529  1.8788  1.9584  1.7404
 6838TIP3   OH242004   3.794   2.796   1.223  1.0097  0.3626 -0.0080
 6838TIP3    H142005   3.764   2.865   1.283 -0.0254 -0.5234  0.5106
 6838TIP3    H242006   3.855   2.744   1.275 -0.9443 -1.2371  0.7514
 6839TIP3   OH242007   3.275   0.514  14.252 -0.5369 -0.3698  0.2432
 6839TIP3    H142008   3.277   0.576  14.324  1.1809 -1.2844  1.0092
 6839TIP3    H242009   3.341   0.545  14.191 -1.7990  0.2492 -0.8447
 6840TIP3   OH242010   0.661   3.319  14.062  0.3991  0.3450 -0.3252
 6840TIP3    H142011   0.632   3.235  14.027  1.9194 -0.9346  1.3880
 6840TIP3    H242012   0.752   3.304  14.088  0.6771  2.5088  0.0739
 6841TIP3   OH242013   5.884   4.665  12.294  0.3407  0.5741 -0.0920
 6841TIP3    H142014   5.887   4.741  12.236 -0.6053  0.4283 -0.3479
 6841TIP3    H242015   5.973   4.631  12.294  0.9195  2.0350  0.5030
 6842TIP3   OH242016   0.237   4.146   4.306 -0.1668 -0.0110  0.2846
 6842TIP3    H142017   0.321   4.161   4.263 -0.3001 -0.1300 -0.0213
 6842TIP3    H242018   0.243   4.057   4.341 -0.3746 -0.2249 -0.2219
 6843TIP3   OH242019   5.267   5.879   6.184 -0.0905  0.3463  0.0429
 6843TIP3    H142020   5.171   5.880   6.184 -0.1204  0.6600 -1.9217
 6843TIP3    H242021   5.291   5.828   6.261 -1.8201  0.9866  1.0322
 6844TIP3   OH242022   4.093   1.121  15.657 -0.5912 -0.8925 -0.5961
 6844TIP3    H142023   4.079   1.216  15.655 -0.7994 -0.9463 -1.7408
 6844TIP3    H242024   4.160   1.105  15.591  1.7391 -1.1884  1.7367
 6845TIP3   OH242025   4.658   2.659   5.794 -0.2207  0.0685 -0.2308
 6845TIP3    H142026   4.590   2.722   5.815  0.5042  0.9519 -0.5176
 6845TIP3    H242027   4.718   2.706   5.736  1.8172  0.0389  1.7604
 6846TIP3   OH242028   4.645   2.762  16.501 -0.3965  0.1977 -0.3437
 6846TIP3    H142029   4.554   2.761  16.470  0.1142 -0.1990 -1.8445
 6846TIP3    H242030   4.685   2.836  16.456 -0.0593  0.5924  0.5913
 6847TIP3   OH242031   4.749   0.412  16.844  0.3781 -0.3681 -0.3411
 6847TIP3    H142032   4.828   0.455  16.876 -0.1668  0.5212 -0.1914
 6847TIP3    H242033   4.728   0.347  16.911  0.7520 -0.3281 -0.1872
 6848TIP3   OH242034   6.015   0.298   4.041 -0.1836 -0.0874 -0.0062
 6848TIP3    H142035   6.092   0.329   3.993 -0.2186 -0.0076 -0.0108
 6848TIP3    H242036   6.024   0.203   4.041  0.7799 -0.0211  1.4009
 6849TIP3   OH242037   6.688   3.427  12.364 -0.4684  0.2904 -0.5250
 6849TIP3    H142038   6.659   3.467  12.446 -0.2812 -0.4794 -0.0735
 6849TIP3    H242039   6.659   3.336  12.370  1.7637 -0.4450 -0.1696
 6850TIP3   OH242040   1.986   4.937  15.672 -0.1985  0.7532  0.2455
 6850TIP3    H142041   1.949   4.914  15.587  0.2732 -0.1767  0.2803
 6850TIP3    H242042   1.921   4.994  15.712 -1.7244 -1.0518  0.4175
 6851TIP3   OH242043   3.623   3.676   2.447  0.1877 -0.5807  0.3364
 6851TIP3    H142044   3.710   3.645   2.472  0.9628  0.9644 -0.3829
 6851TIP3    H242045   3.639   3.761   2.407 -1.6211 -0.4930 -0.2209
 6852TIP3   OH242046   3.645   4.301   2.922 -0.3728  0.0692  0.3857
 6852TIP3    H142047   3.620   4.294   3.014 -1.2779 -0.3082  0.1150
 6852TIP3    H242048   3.622   4.217   2.884 -3.3576  1.4384 -0.9834
 6853TIP3   OH242049   5.618   0.573  15.157  0.3180  0.2985  0.0489
 6853TIP3    H142050   5.684   0.571  15.227 -0.3507  2.1687  0.7735
 6853TIP3    H242051   5.577   0.487  15.161 -0.1636  0.5874  2.4444
 6854TIP3   OH242052   2.108   5.386   0.823 -0.0571 -0.1826  0.1703
 6854TIP3    H142053   2.067   5.470   0.847  0.3146  0.2772 -0.7760
 6854TIP3    H242054   2.055   5.320   0.867  1.1029  0.6767  2.9694
 6855TIP3   OH242055   0.907   4.567   1.620 -0.3728 -0.0362  0.0951
 6855TIP3    H142056   0.871   4.479   1.623 -2.8348  0.9764  1.3167
 6855TIP3    H242057   1.002   4.554   1.620 -0.7001 -2.6824 -0.5609
 6856TIP3   OH242058   3.781   6.762  15.861  0.6238  0.1404 -0.5065
 6856TIP3    H142059   3.757   6.850  15.831 -0.2003  0.2054  0.3303
 6856TIP3    H242060   3.752   6.704  15.791 -1.2211  0.2969  0.0932
 6857TIP3   OH242061   4.698   6.754  15.528 -0.2934 -0.8183 -0.5931
 6857TIP3    H142062   4.626   6.716  15.478 -0.6885 -0.4018 -0.3414
 6857TIP3    H242063   4.656   6.799  15.601  0.0783  1.2886 -1.6485
 6858TIP3   OH242064   5.231   2.232   0.395 -0.8486  0.6950  0.1941
 6858TIP3    H142065   5.189   2.205   0.476 -1.4589  0.7891 -0.0877
 6858TIP3    H242066   5.324   2.221   0.411 -0.9713  0.6747  0.8948
 6859TIP3   OH242067   2.736   4.038  14.436  0.1123 -0.1331  0.1157
 6859TIP3    H142068   2.828   4.011  14.434 -0.1367 -1.0398  0.5775
 6859TIP3    H242069   2.739   4.134  14.441  1.0445 -0.2204  1.4730
 6860TIP3   OH242070   0.292   0.274   4.063 -0.2321  0.1300  0.2591
 6860TIP3    H142071   0.377   0.317   4.076 -0.4426  0.4341  0.6030
 6860TIP3    H242072   0.304   0.186   4.100 -0.1944  0.3058  0.6553
 6861TIP3   OH242073   0.722   6.374   3.666 -0.0390 -0.0808  0.2706
 6861TIP3    H142074   0.743   6.441   3.600 -2.6634 -0.4340 -0.9897
 6861TIP3    H242075   0.745   6.291   3.624 -1.3265 -0.2807 -0.0517
 6862TIP3   OH242076   1.197   0.840  16.124  0.0575 -0.1208  0.2664
 6862TIP3    H142077   1.246   0.884  16.054 -0.7228  1.0230  0.4370
 6862TIP3    H242078   1.178   0.753  16.089 -1.4149  0.8668 -1.4501
 6863TIP3   OH242079   2.710   0.752  16.463 -0.3555 -0.1466 -0.2459
 6863TIP3    H142080   2.634   0.800  16.430 -1.3489  0.2413  2.4280
 6863TIP3    H242081   2.772   0.820  16.488  0.4136 -0.4298 -1.3704
 6864TIP3   OH242082   2.027   5.643  16.945 -0.2405  0.0118  0.1395
 6864TIP3    H142083   2.037   5.676  17.035  0.3128  3.2369 -1.0341
 6864TIP3    H242084   1.956   5.697  16.909  0.0105 -0.8094 -1.5816
 6865TIP3   OH242085   2.140   0.768   2.932  0.7679  0.3874  0.1242
 6865TIP3    H142086   2.180   0.855   2.925 -0.0533  0.8010  0.5345
 6865TIP3    H242087   2.046   0.784   2.925  0.6983 -0.6901 -2.0544
 6866TIP3   OH242088   0.061   3.150  11.513  0.0424  0.0539  0.0318
 6866TIP3    H142089   0.089   3.069  11.557  1.6097  1.1345  1.1041
 6866TIP3    H242090  -0.027   3.167  11.548  0.5184 -0.1144  1.3599
 6867TIP3   OH242091   5.423   1.061  15.386 -0.1207  0.2221  0.2905
 6867TIP3    H142092   5.505   1.077  15.338  0.8987 -1.0385  1.5628
 6867TIP3    H242093   5.384   1.148  15.396  1.1148  0.8519 -0.2510
 6868TIP3   OH242094   2.097   1.892   0.726 -0.1283 -0.2784  0.1515
 6868TIP3    H142095   2.139   1.890   0.812 -1.1492  0.3615  0.6908
 6868TIP3    H242096   2.168   1.884   0.663  0.7294  0.2007  1.0495
 6869TIP3   OH242097   5.407   5.776   0.508  0.5868  0.4330  0.6467
 6869TIP3    H142098   5.341   5.833   0.547 -1.2328 -2.7541  2.4342
 6869TIP3    H242099   5.478   5.774   0.571  0.5513  0.5322  0.6899
 6870TIP3   OH242100   6.239   6.296  16.731  0.4844  0.6221  0.3357
 6870TIP3    H142101   6.227   6.259  16.819  0.9693  1.7289  0.8863
 6870TIP3    H242102   6.281   6.227  16.681  2.3287  0.7803  1.6367
 6871TIP3   OH242103   1.896   6.502  14.136  0.1271 -0.1595  0.1971
 6871TIP3    H142104   1.820   6.465  14.179  0.4866 -0.7269  0.3484
 6871TIP3    H242105   1.863   6.534  14.052 -0.8716  2.2779  1.4727
 6872TIP3   OH242106   4.341   1.413  13.446  0.4094  0.1414 -0.0329
 6872TIP3    H142107   4.332   1.327  13.485  2.3197  0.5070  1.2868
 6872TIP3    H242108   4.263   1.461  13.473 -0.3791 -0.9787 -0.3058
 6873TIP3   OH242109   1.575   5.338   0.289 -0.3206  0.5264  0.3101
 6873TIP3    H142110   1.530   5.406   0.339  1.8844  2.9123 -0.8336
 6873TIP3    H242111   1.658   5.325   0.335 -0.0947 -0.3195 -0.3210
 6874TIP3   OH242112   1.829   3.064  13.570 -0.6315  0.8638 -0.2946
 6874TIP3    H142113   1.779   2.983  13.576 -0.7277  0.7787 -1.9707
 6874TIP3    H242114   1.766   3.133  13.592 -0.9883  0.6155 -0.5412
 6875TIP3   OH242115   0.464   4.633   3.375  0.0932  0.3023  0.6609
 6875TIP3    H142116   0.540   4.631   3.317 -1.9027 -1.8075 -2.0410
 6875TIP3    H242117   0.463   4.546   3.416  0.4907  1.1751  2.6120
 6876TIP3   OH242118   5.084   4.906  16.154 -0.2808  0.2756 -0.7157
 6876TIP3    H142119   5.063   4.996  16.180  1.2539  0.6210 -0.5750
 6876TIP3    H242120   5.026   4.888  16.080 -0.9290  1.2206 -0.4480
 6877TIP3   OH242121   0.953   4.574   4.804  0.0109 -0.5425  0.3474
 6877TIP3    H142122   0.896   4.547   4.732 -1.0679 -2.0355  1.7300
 6877TIP3    H242123   1.016   4.503   4.813 -0.9293 -1.2058  1.9867
 6878TIP3   OH242124   3.920   0.958   1.816 -0.3104 -0.4043 -0.3005
 6878TIP3    H142125   3.928   0.987   1.725 -1.9080  0.9525 -0.0447
 6878TIP3    H242126   3.842   0.903   1.817 -0.9508  0.5064  0.4529
 6879TIP3   OH242127   5.059   1.837  11.548 -0.3351 -0.3115 -0.4991
 6879TIP3    H142128   5.059   1.927  11.582 -1.7787 -0.2547 -0.6097
 6879TIP3    H242129   5.119   1.790  11.605  0.2451  0.6738 -0.2838
 6880TIP3   OH242130   0.576   0.600  12.796  0.4494  0.1727 -0.4387
 6880TIP3    H142131   0.499   0.628  12.847 -0.0331  0.9466 -1.5715
 6880TIP3    H242132   0.540   0.550  12.723  1.2016 -1.7182  0.4672
 6881TIP3   OH242133   2.073   2.015   3.617 -0.6553 -0.0154  0.2769
 6881TIP3    H142134   2.055   1.922   3.601 -0.7232  0.0072  0.2190
 6881TIP3    H242135   2.111   2.018   3.705  1.2250 -0.3357 -0.5015
 6882TIP3   OH242136   1.284   2.677   5.740 -0.8178  0.4901 -0.5567
 6882TIP3    H142137   1.291   2.630   5.657 -0.0512 -0.1912 -0.1031
 6882TIP3    H242138   1.363   2.731   5.744  0.1878 -1.0343  0.6942
 6883TIP3   OH242139   1.567   2.953   6.081  0.0672 -0.2331 -0.3501
 6883TIP3    H142140   1.634   3.017   6.107 -0.2832 -0.1205  0.2668
 6883TIP3    H242141   1.486   3.004   6.075 -0.3322 -0.7310  0.7280
 6884TIP3   OH242142   2.817   0.100   1.238 -0.2263 -0.1703  0.3329
 6884TIP3    H142143   2.874   0.165   1.278  0.1104  0.6808 -1.4671
 6884TIP3    H242144   2.786   0.046   1.311  2.1628 -0.0958  1.4372
 6885TIP3   OH242145   2.661   4.007   2.573 -0.2011 -0.6119 -0.1779
 6885TIP3    H142146   2.650   4.021   2.667 -0.8543  0.4008 -0.4053
 6885TIP3    H242147   2.749   4.039   2.554 -1.4144  2.6390 -0.5669
 6886TIP3   OH242148   4.387   4.180  15.139 -0.0712  0.6490 -0.2093
 6886TIP3    H142149   4.399   4.218  15.052 -0.5128  2.7731  0.6312
 6886TIP3    H242150   4.318   4.115  15.128  0.1608  0.6134 -1.5128
 6887TIP3   OH242151   0.421   4.212   0.191 -0.1819  0.2151  0.0532
 6887TIP3    H142152   0.463   4.128   0.208  1.6586  0.6753 -2.0316
 6887TIP3    H242153   0.342   4.210   0.246  0.1133 -2.6130  0.4870
 6888TIP3   OH242154   3.395   5.630  11.300 -0.6365 -0.3519  0.1076
 6888TIP3    H142155   3.451   5.556  11.276 -1.2061 -1.0922  1.0382
 6888TIP3    H242156   3.308   5.592  11.312 -0.8075  0.3665  1.1797
 6889TIP3   OH242157   0.947   3.122   5.464 -0.1925  0.1679  0.4089
 6889TIP3    H142158   1.021   3.148   5.520 -0.2066 -0.6852  0.8263
 6889TIP3    H242159   0.987   3.095   5.382 -0.1206  0.7063  0.2595
 6890TIP3   OH242160   5.285   2.540   6.547 -1.1439 -0.0256  0.2421
 6890TIP3    H142161   5.229   2.498   6.482 -1.2811 -0.9061  0.9188
 6890TIP3    H242162   5.224   2.580   6.609 -1.0141  0.3690  0.1191
 6891TIP3   OH242163   4.076   5.816  16.220  0.0887 -0.0241  0.8201
 6891TIP3    H142164   4.002   5.865  16.186 -1.4467 -0.5988  3.2091
 6891TIP3    H242165   4.143   5.882  16.237 -1.5245  1.1398  2.9022
 6892TIP3   OH242166   3.488   0.331  15.268 -0.1293  0.1584  0.0349
 6892TIP3    H142167   3.400   0.327  15.307 -0.5274 -1.9228 -0.9649
 6892TIP3    H242168   3.496   0.420  15.235 -0.6893  1.2568  2.7886
 6893TIP3   OH242169   5.085   3.521   2.488  0.1073 -0.8920 -0.6741
 6893TIP3    H142170   5.005   3.563   2.518  0.6321  0.0048 -0.4842
 6893TIP3    H242171   5.155   3.571   2.530  0.7281 -2.7726  0.5520
 6894TIP3   OH242172   3.617   4.671  11.779 -0.0214 -0.5713  0.8634
 6894TIP3    H142173   3.678   4.651  11.707  0.1841 -0.8420  1.1098
 6894TIP3    H242174   3.672   4.670  11.858 -0.1167  0.4210  0.9480
 6895TIP3   OH242175   4.797   4.164   5.728 -0.0535 -0.0395 -0.1149
 6895TIP3    H142176   4.781   4.098   5.661 -1.3812 -0.1707  0.3149
 6895TIP3    H242177   4.710   4.195   5.753  0.3510 -0.5837  2.1218
 6896TIP3   OH242178   5.095   2.140   4.909  0.3032  0.5528  0.4569
 6896TIP3    H142179   5.035   2.066   4.916 -0.4793  1.2651  1.4040
 6896TIP3    H242180   5.140   2.142   4.994 -0.7508  2.0569  0.9970
 6897TIP3   OH242181   0.254   2.676  11.422  0.7362 -0.0393  0.1206
 6897TIP3    H142182   0.341   2.711  11.442  0.8885  1.2075 -2.4972
 6897TIP3    H242183   0.268   2.582  11.409  1.1870 -0.3056  2.4420
 6898TIP3   OH242184   4.199   1.597   5.369  0.2484  0.1134 -0.0835
 6898TIP3    H142185   4.188   1.611   5.463  1.8062  0.5589  0.0457
 6898TIP3    H242186   4.117   1.630   5.330 -0.5347 -0.3688  1.1297
 6899TIP3   OH242187   2.305   3.365  15.875 -0.4850  0.5909  0.0158
 6899TIP3    H142188   2.236   3.367  15.809 -0.9033 -2.0843  0.3365
 6899TIP3    H242189   2.259   3.377  15.958 -0.8026 -2.6013  0.3578
 6900TIP3   OH242190   4.321   3.291  12.888  0.4172 -0.2479  0.0816
 6900TIP3    H142191   4.395   3.325  12.838 -1.2685  0.3896 -2.0217
 6900TIP3    H242192   4.278   3.369  12.924 -0.8447 -0.4105 -1.0360
 6901TIP3   OH242193   3.231   0.854   1.085  0.3713  0.3831  0.3125
 6901TIP3    H142194   3.183   0.920   1.136 -0.0343  0.0816  0.3185
 6901TIP3    H242195   3.221   0.882   0.994  0.3401  0.4206  0.3272
 6902TIP3   OH242196   2.799   4.516   5.402 -0.0364 -0.2304 -0.4027
 6902TIP3    H142197   2.790   4.491   5.310  0.3948 -2.5065  0.1532
 6902TIP3    H242198   2.713   4.500   5.440 -0.0651  0.1959 -0.2840
 6903TIP3   OH242199   1.764   5.510  15.548 -0.5687 -0.5076 -0.2789
 6903TIP3    H142200   1.735   5.423  15.521  2.0577 -0.7661 -2.3556
 6903TIP3    H242201   1.773   5.560  15.467  1.6323  0.5519  0.5830
 6904TIP3   OH242202   3.468   4.235   1.632  0.4739  0.4983 -0.3669
 6904TIP3    H142203   3.550   4.194   1.606  0.7261  0.1997  0.8656
 6904TIP3    H242204   3.400   4.170   1.611  0.5232  0.8087 -1.5308
 6905TIP3   OH242205   3.196   0.157  11.414 -0.3237 -0.4488 -0.2174
 6905TIP3    H142206   3.181   0.191  11.502 -0.2868 -1.1096  0.0453
 6905TIP3    H242207   3.233   0.231  11.365 -0.3140 -0.0938  0.3266
 6906TIP3   OH242208   1.834   2.561  11.801 -0.4033  0.2045 -0.3715
 6906TIP3    H142209   1.861   2.526  11.716  1.6131  1.3757 -0.2300
 6906TIP3    H242210   1.913   2.557  11.855 -1.3095  0.7977  1.0244
 6907TIP3   OH242211   1.650   2.123  13.988 -0.3393  0.3028  0.1668
 6907TIP3    H142212   1.606   2.103  14.071  0.9252 -0.3979  0.6866
 6907TIP3    H242213   1.675   2.215  13.996  0.7177 -0.0447  1.0188
 6908TIP3   OH242214   0.403   4.374   3.495 -0.4070  0.0954 -0.2220
 6908TIP3    H142215   0.342   4.390   3.423 -1.4440  0.4436  0.7201
 6908TIP3    H242216   0.447   4.292   3.471 -2.4136 -1.0431 -0.1236
 6909TIP3   OH242217   5.518   0.139   1.444 -0.3099  0.3038 -0.3127
 6909TIP3    H142218   5.534   0.223   1.401 -0.4407  1.1237  1.1889
 6909TIP3    H242219   5.605   0.104   1.463 -0.2440 -0.2812 -1.6158
 6910TIP3   OH242220   1.503   6.805  16.627  0.4310 -0.0265 -0.1474
 6910TIP3    H142221   1.414   6.787  16.659  0.9054  1.7763  2.3110
 6910TIP3    H242222   1.542   6.719  16.615 -1.7287 -0.8734 -1.5768
 6911TIP3   OH242223   6.522   4.371   3.424  0.3268 -0.0452  0.3293
 6911TIP3    H142224   6.455   4.323   3.473  0.9502 -1.0190  0.2506
 6911TIP3    H242225   6.555   4.308   3.360  0.5424  0.7692 -0.3779
 6912TIP3   OH242226   5.870   3.485  15.652  0.3986 -0.5081  0.3235
 6912TIP3    H142227   5.842   3.571  15.682  0.2267 -1.1102  1.9775
 6912TIP3    H242228   5.888   3.436  15.733 -0.1679 -2.2375 -0.5675
 6913TIP3   OH242229   5.298   0.595  11.817  0.4252  0.5728 -0.6832
 6913TIP3    H142230   5.279   0.590  11.724 -2.7337  0.8771 -0.1088
 6913TIP3    H242231   5.244   0.667  11.849  2.4263  1.2927  1.1775
 6914TIP3   OH242232   2.213   2.813   5.059  0.0270 -0.1158 -0.0506
 6914TIP3    H142233   2.173   2.878   5.117 -1.3181  0.0805 -1.1854
 6914TIP3    H242234   2.297   2.853   5.033  0.9491 -0.4851  2.2496
 6915TIP3   OH242235   2.294   2.819   4.464  0.3295 -0.4926 -0.0797
 6915TIP3    H142236   2.215   2.849   4.509  0.1044 -0.5191 -0.4559
 6915TIP3    H242237   2.339   2.899   4.437  0.2487 -0.4787 -0.1769
 6916TIP3   OH242238   0.586   2.130   4.665  0.3944  0.0943  0.3435
 6916TIP3    H142239   0.656   2.194   4.650  0.7857 -0.9328 -2.5183
 6916TIP3    H242240   0.624   2.069   4.729  2.1786 -0.4978 -1.2311
 6917TIP3   OH242241   3.326   3.509  15.522 -0.0387 -0.8551 -0.4149
 6917TIP3    H142242   3.401   3.457  15.549 -0.3419 -0.0732  2.0920
 6917TIP3    H242243   3.343   3.596  15.560 -2.3299 -0.7544  0.4541
 6918TIP3   OH242244   0.210   4.986  12.623 -0.4445 -0.5097 -1.0480
 6918TIP3    H142245   0.218   4.947  12.536  1.3716  0.2453 -1.2443
 6918TIP3    H242246   0.282   5.050  12.627  0.0272 -1.1507  1.3156
 6919TIP3   OH242247   6.738   0.188  11.954 -0.0778 -0.1787 -0.9903
 6919TIP3    H142248   6.726   0.267  12.007 -1.5890 -2.5704  2.3731
 6919TIP3    H242249   6.680   0.201  11.879 -0.7354  1.6696 -0.1920
 6920TIP3   OH242250   6.733   4.321   2.374  0.5289  0.5541 -0.1072
 6920TIP3    H142251   6.697   4.287   2.455  0.2685 -0.4056 -0.6254
 6920TIP3    H242252   6.696   4.409   2.366 -0.0071  0.3748  0.4384
 6921TIP3   OH242253   5.316   6.080  11.850  0.6173 -0.6571  0.1968
 6921TIP3    H142254   5.340   6.013  11.785  2.4456  1.1969 -1.0756
 6921TIP3    H242255   5.398   6.123  11.872 -0.7544  2.3997 -0.3946
 6922TIP3   OH242256   3.195   4.863   3.560  0.0362 -0.4828 -0.6245
 6922TIP3    H142257   3.257   4.792   3.581  0.0496  0.0093  1.1261
 6922TIP3    H242258   3.121   4.819   3.519  0.0016 -1.5558  0.5325
 6923TIP3   OH242259   4.851   4.117  10.572 -0.5598  0.0022 -0.1190
 6923TIP3    H142260   4.931   4.066  10.568 -0.0778  0.6719  0.7425
 6923TIP3    H242261   4.794   4.079  10.505  0.5213 -0.3943 -0.8177
 6924TIP3   OH242262   3.371   1.387   2.297  0.2275  0.4698 -0.1013
 6924TIP3    H142263   3.336   1.396   2.385  0.7316  0.8782  0.0605
 6924TIP3    H242264   3.299   1.415   2.239 -0.3627 -0.5425  0.1447
 6925TIP3   OH242265   4.629   2.038  13.002 -0.3388  0.2493  0.3644
 6925TIP3    H142266   4.544   1.996  13.010 -0.4290  0.2473 -0.5425
 6925TIP3    H242267   4.679   2.006  13.077 -0.4307 -1.4479 -0.2688
 6926TIP3   OH242268   5.252   2.569  16.483 -0.5036  0.2885 -0.0764
 6926TIP3    H142269   5.209   2.504  16.428 -0.6892 -0.7522  1.2654
 6926TIP3    H242270   5.180   2.610  16.532 -0.3387  1.1693 -0.5786
 6927TIP3   OH242271   0.551   4.917   0.119 -0.2373 -0.0324  0.6320
 6927TIP3    H142272   0.471   4.866   0.130 -0.0860 -0.1082  1.3857
 6927TIP3    H242273   0.544   4.988   0.182  0.1076  0.1836  0.4310
 6928TIP3   OH242274   3.230   0.235   0.388  0.0596  0.4921 -0.1512
 6928TIP3    H142275   3.190   0.316   0.356  0.1836  0.9379  0.7818
 6928TIP3    H242276   3.298   0.215   0.325 -1.4734 -0.1563 -1.6384
 6929TIP3   OH242277   0.594   3.929   5.179 -0.0190 -0.2515  0.6297
 6929TIP3    H142278   0.617   3.838   5.158  0.2201 -0.4100  1.5586
 6929TIP3    H242279   0.640   3.981   5.113 -0.6242 -0.8430 -0.2601
 6930TIP3   OH242280   6.006   6.499  17.133 -0.5681  0.6931  0.0048
 6930TIP3    H142281   6.019   6.551  17.053 -0.2222  0.7541  0.1009
 6930TIP3    H242282   6.082   6.440  17.135 -0.6612  0.5806  0.2039
 6931TIP3   OH242283   2.877   6.774  14.116 -0.0087  0.5584 -0.4617
 6931TIP3    H142284   2.888   6.792  14.210  1.1159  1.3323 -0.7276
 6931TIP3    H242285   2.783   6.775  14.103 -0.1212  3.7217  0.0766
 6932TIP3   OH242286   4.391   3.433   5.852  0.2940  0.0561 -0.3759
 6932TIP3    H142287   4.348   3.363   5.802  1.2136  0.0212 -1.1389
 6932TIP3    H242288   4.457   3.388   5.904 -1.3954 -0.0478  1.7591
 6933TIP3   OH242289   0.214   5.710  17.256 -0.4913 -0.1528 -0.4816
 6933TIP3    H142290   0.162   5.785  17.287 -1.2817 -1.3853  1.2594
 6933TIP3    H242291   0.149   5.642  17.239  0.4684 -1.4046  0.8339
 6934TIP3   OH242292   1.296   2.839  13.246  0.1304  0.8589  0.7726
 6934TIP3    H142293   1.266   2.853  13.156  0.9064  1.0660  0.5400
 6934TIP3    H242294   1.366   2.774  13.237  1.7259  2.5092  0.9644
 6935TIP3   OH242295   1.641   6.255   1.995 -0.3036  0.2474  0.3925
 6935TIP3    H142296   1.650   6.347   2.017  0.0567  0.1343  0.7209
 6935TIP3    H242297   1.673   6.208   2.072 -1.5288 -0.1592  0.6619
 6936TIP3   OH242298   0.038   1.091  10.964  0.0813  0.1028  0.1143
 6936TIP3    H142299  -0.001   1.016  11.009 -2.7816  2.0822  1.1024
 6936TIP3    H242300   0.068   1.056  10.880 -1.9341 -2.0037  0.2119
 6937TIP3   OH242301   3.476   3.143   6.190 -0.0114  0.0906  0.3293
 6937TIP3    H142302   3.444   3.067   6.240 -1.3001  1.3265  1.4443
 6937TIP3    H242303   3.399   3.200   6.182  1.2518  1.8648  0.6285
 6938TIP3   OH242304   5.833   5.560  14.202 -0.0496  0.0914  0.3213
 6938TIP3    H142305   5.802   5.650  14.213  0.2783 -0.0230  2.3650
 6938TIP3    H242306   5.791   5.511  14.273  1.2558 -0.9744  0.3753
 6939TIP3   OH242307   6.147   4.596   2.864  0.3691  0.1606 -0.2581
 6939TIP3    H142308   6.222   4.653   2.848  1.2038  0.0138  2.7980
 6939TIP3    H242309   6.073   4.642   2.825  1.5890  1.6343 -0.8982
 6940TIP3   OH242310   3.374   6.505   0.061 -0.0267 -0.3024  0.3486
 6940TIP3    H142311   3.308   6.540   0.121  0.1040 -1.7600  1.3757
 6940TIP3    H242312   3.441   6.468   0.119 -0.3062 -2.4838 -0.6769
 6941TIP3   OH242313   2.152   6.511  13.893 -0.1189 -0.2642  0.0734
 6941TIP3    H142314   2.169   6.551  13.978 -0.5335 -0.4392  0.2403
 6941TIP3    H242315   2.142   6.418  13.911  1.4564 -0.5292 -0.4000
 6942TIP3   OH242316   4.047   4.625   3.331  0.3441  0.1936  0.2623
 6942TIP3    H142317   4.014   4.535   3.334  0.3199  0.1772 -0.5437
 6942TIP3    H242318   3.976   4.677   3.368  0.2837 -0.0959  0.5578
 6943TIP3   OH242319   0.904   2.430  12.921 -0.3544  0.0480  0.3161
 6943TIP3    H142320   0.833   2.477  12.878  1.3887  0.8323 -1.8283
 6943TIP3    H242321   0.912   2.348  12.872 -0.4780 -0.5194  1.2305
 6944TIP3   OH242322   2.581   0.305   3.121  0.4325 -0.0832 -0.2065
 6944TIP3    H142323   2.618   0.350   3.044  0.7944  2.5020  1.3970
 6944TIP3    H242324   2.488   0.328   3.119  0.9401  2.3142  1.5929
 6945TIP3   OH242325   1.951   1.137  16.154 -0.0801  0.2090  0.3544
 6945TIP3    H142326   1.951   1.043  16.169  0.5221  0.2628  0.7241
 6945TIP3    H242327   1.859   1.163  16.162 -0.5006 -0.6364 -1.6703
 6946TIP3   OH242328   4.546   4.138  14.791  0.4009 -0.0940 -0.1494
 6946TIP3    H142329   4.575   4.229  14.785 -0.2422  0.1150 -0.1596
 6946TIP3    H242330   4.626   4.087  14.787  0.7255  0.4517 -0.7486
 6947TIP3   OH242331   4.951   2.406  14.717  0.3557  0.1474 -0.4248
 6947TIP3    H142332   5.024   2.448  14.762 -0.2015 -0.0857  0.7128
 6947TIP3    H242333   4.948   2.448  14.631  0.0785  2.1217  0.5321
 6948TIP3   OH242334   2.385   5.326   2.522  0.2131  0.7631 -0.6521
 6948TIP3    H142335   2.313   5.344   2.461  0.0663  2.5529  0.0167
 6948TIP3    H242336   2.345   5.327   2.608  0.4588 -1.6043 -0.4831
 6949TIP3   OH242337   3.933   3.816   5.762 -0.3936  0.1512  0.2004
 6949TIP3    H142338   3.855   3.850   5.720  0.3908 -0.2505 -1.6098
 6949TIP3    H242339   4.005   3.841   5.704  0.6972 -0.5478  1.2164
 6950TIP3   OH242340   3.535   4.678  14.102 -0.4610 -0.0866  0.0254
 6950TIP3    H142341   3.442   4.683  14.080 -0.3144  0.0865 -0.5646
 6950TIP3    H242342   3.565   4.595  14.063 -0.0337  0.5766 -1.0901
 6951TIP3   OH242343   4.233   1.537  12.264  0.5621  0.4344 -0.2946
 6951TIP3    H142344   4.186   1.522  12.346  0.9500 -0.2078 -0.1813
 6951TIP3    H242345   4.291   1.610  12.283  0.1333  0.7524 -0.2137
 6952TIP3   OH242346   5.197   0.462  16.771 -0.4694  0.2608 -0.0755
 6952TIP3    H142347   5.249   0.435  16.696 -0.5293 -0.0843  0.0055
 6952TIP3    H242348   5.255   0.449  16.846  0.5927  3.2821 -0.3081
 6953TIP3   OH242349   5.280   3.751   0.648 -0.7534 -0.0765 -0.7119
 6953TIP3    H142350   5.215   3.685   0.671 -1.0600  0.3998 -0.2018
 6953TIP3    H242351   5.358   3.728   0.699 -0.7129 -0.3017 -0.8734
 6954TIP3   OH242352   0.887   5.938  14.770  0.8194  0.5958  0.3293
 6954TIP3    H142353   0.798   5.904  14.778  0.7316  1.3803  3.0562
 6954TIP3    H242354   0.942   5.861  14.757 -0.1345  0.0374 -0.4560
 6955TIP3   OH242355   0.581   4.716  16.380 -0.0615 -0.3489 -0.7391
 6955TIP3    H142356   0.505   4.658  16.377 -0.6013  0.2973  0.2005
 6955TIP3    H242357   0.552   4.797  16.338 -0.8549  0.9533  2.1483
 6956TIP3   OH242358   0.013   2.833   4.483 -0.2294  0.0958  0.3846
 6956TIP3    H142359  -0.041   2.912   4.480  1.8330  1.6147  1.5596
 6956TIP3    H242360   0.036   2.816   4.392 -0.6441  0.8852  0.1294
 6957TIP3   OH242361   6.675   2.397   6.605 -0.1297  0.4098 -0.3012
 6957TIP3    H142362   6.730   2.476   6.610  0.4770  0.1214 -1.8686
 6957TIP3    H242363   6.588   2.427   6.629 -0.0298  1.7352 -1.4938
 6958TIP3   OH242364   5.725   4.924   1.819  0.1979  0.2384  0.1752
 6958TIP3    H142365   5.741   4.881   1.735 -1.1167  1.3808 -0.6801
 6958TIP3    H242366   5.809   4.918   1.866  0.3505 -2.2513 -0.3541
 6959TIP3   OH242367   1.977   3.025   5.049 -0.1938  0.2815 -0.0926
 6959TIP3    H142368   1.935   2.944   5.021 -0.7627  1.4573 -2.8216
 6959TIP3    H242369   1.910   3.092   5.039  1.1569  1.5739 -0.8207
 6960TIP3   OH242370   2.146   5.203   2.905 -0.5962 -0.2222  0.1266
 6960TIP3    H142371   2.214   5.245   2.959  0.2667  1.0281 -1.8718
 6960TIP3    H242372   2.194   5.139   2.852 -1.2028 -0.3180 -0.3041
 6961TIP3   OH242373   3.990   1.934   1.695 -0.2492 -0.1835 -0.7377
 6961TIP3    H142374   3.949   1.978   1.620 -0.6154 -1.8423 -1.5408
 6961TIP3    H242375   3.951   1.976   1.771 -1.9289 -0.3167 -1.4925
 6962TIP3   OH242376   4.255   4.783   3.433  0.3583  1.0543  0.2139
 6962TIP3    H142377   4.174   4.734   3.424  0.4716  0.6756  1.2448
 6962TIP3    H242378   4.244   4.858   3.374 -0.9232  1.2493  0.6795
 6963TIP3   OH242379   1.951   3.997   3.601  0.1464  0.2481 -0.0212
 6963TIP3    H142380   1.916   4.084   3.580  1.7637  1.1261  0.8237
 6963TIP3    H242381   1.875   3.946   3.629 -0.6742  1.6728  0.3839
 6964TIP3   OH242382   2.139   6.656   2.426 -0.1119 -0.2180 -0.0041
 6964TIP3    H142383   2.183   6.669   2.510 -0.7398  0.8012  0.1779
 6964TIP3    H242384   2.207   6.622   2.368  0.4661 -0.3707  0.7640
 6965TIP3   OH242385   4.654   0.498  12.079  0.1670  0.0481  0.0189
 6965TIP3    H142386   4.562   0.471  12.083  0.4575 -0.6870  2.1491
 6965TIP3    H242387   4.660   0.550  11.998 -2.0705 -0.0456 -0.2381
 6966TIP3   OH242388   1.931   0.796  11.706  0.0792  0.1490 -0.2193
 6966TIP3    H142389   1.969   0.771  11.790  0.2213  2.1876  0.3480
 6966TIP3    H242390   1.865   0.728  11.689 -0.4838  0.1084  1.9206
 6967TIP3   OH242391   5.657   1.423   4.448 -0.3611 -0.3204  0.5891
 6967TIP3    H142392   5.676   1.516   4.436  2.4126 -1.0006 -0.5140
 6967TIP3    H242393   5.562   1.417   4.434 -0.2073  1.9379 -1.9021
 6968TIP3   OH242394   3.833   2.216  15.718 -0.0097 -0.3036 -0.7350
 6968TIP3    H142395   3.891   2.179  15.785 -0.1479 -1.7717 -1.3936
 6968TIP3    H242396   3.792   2.291  15.760 -1.3958 -2.2006  1.4258
 6969TIP3   OH242397   0.792   0.382  12.747 -0.0504 -0.4379  0.2730
 6969TIP3    H142398   0.730   0.312  12.769  0.4951 -0.8259  0.5878
 6969TIP3    H242399   0.745   0.436  12.684 -0.0599 -1.7442 -0.8837
 6970TIP3   OH242400   3.326   4.310  15.657  0.1935  0.1704  0.1452
 6970TIP3    H142401   3.414   4.282  15.680 -0.2463 -1.7547 -0.3963
 6970TIP3    H242402   3.289   4.344  15.739  1.8614  2.2437  0.0703
 6971TIP3   OH242403   4.687   5.606   1.286  0.1146 -0.2847 -0.4300
 6971TIP3    H142404   4.605   5.620   1.239 -0.5391 -1.4196  0.3492
 6971TIP3    H242405   4.660   5.584   1.375  1.3500  3.6642  1.0271
 6972TIP3   OH242406   5.296   4.995  10.621  0.6121  0.0532  0.2039
 6972TIP3    H142407   5.309   5.022  10.712 -0.4493  0.6628  0.1869
 6972TIP3    H242408   5.234   4.923  10.626 -1.1888  1.5273 -0.1756
 6973TIP3   OH242409   1.178   3.801  15.886  0.0410 -0.7606  0.1920
 6973TIP3    H142410   1.268   3.819  15.858  0.1772 -1.3032  0.2698
 6973TIP3    H242411   1.126   3.873  15.850  0.5175 -0.4164  0.1971
 6974TIP3   OH242412   2.641   5.935   0.868 -0.8985  0.2313  0.1700
 6974TIP3    H142413   2.681   6.021   0.873  2.2142 -1.1958  0.6647
 6974TIP3    H242414   2.638   5.915   0.774  2.7232 -1.0400  0.2730
 6975TIP3   OH242415   5.547   3.221   5.386 -0.8646  0.0252 -0.2638
 6975TIP3    H142416   5.515   3.287   5.447 -1.3603 -0.9877  0.5828
 6975TIP3    H242417   5.602   3.163   5.439 -0.4355 -0.2528 -0.9984
 6976TIP3   OH242418   5.589   1.766  13.650  0.0600 -0.9980  0.2077
 6976TIP3    H142419   5.542   1.683  13.638  0.9090 -1.5345  0.5815
 6976TIP3    H242420   5.540   1.812  13.719  0.1203 -1.5897  0.6449
 6977TIP3   OH242421   0.240   3.160   4.525  0.4114 -0.1432  0.0825
 6977TIP3    H142422   0.252   3.188   4.615  0.2978  1.5957 -0.4251
 6977TIP3    H242423   0.182   3.084   4.531  0.9313 -0.4407  1.5095
 6978TIP3   OH242424   4.924   2.424   1.887  0.0577 -0.5114 -0.2613
 6978TIP3    H142425   4.997   2.484   1.893  0.8445 -1.6353  1.7148
 6978TIP3    H242426   4.854   2.464   1.939  0.9354 -1.7619  1.9451
 6979TIP3   OH242427   1.107   6.332   1.832  0.5081  0.0941 -0.1940
 6979TIP3    H142428   1.197   6.314   1.859  0.4068 -1.3842 -0.8234
 6979TIP3    H242429   1.063   6.248   1.839 -0.4061  0.4512 -1.5686
 6980TIP3   OH242430   5.485   3.454   1.982 -0.1020 -0.2553 -0.0486
 6980TIP3    H142431   5.533   3.469   2.064  0.1513 -0.1779 -0.2123
 6980TIP3    H242432   5.552   3.435   1.917 -0.4952 -4.3015  0.6080
 6981TIP3   OH242433   1.977   0.953   2.555 -0.1775  0.4080 -0.1710
 6981TIP3    H142434   2.063   0.980   2.525  0.1920  0.0733  0.5739
 6981TIP3    H242435   1.924   1.033   2.551  0.4355  0.8430  0.3302
 6982TIP3   OH242436   2.343   5.631   1.722  0.0771  0.0644 -0.1338
 6982TIP3    H142437   2.398   5.598   1.651 -0.3046 -0.0150 -0.3906
 6982TIP3    H242438   2.261   5.584   1.713  0.0095  0.0946  0.3294
 6983TIP3   OH242439   1.728   5.578  15.122  0.0785 -0.1565  0.5281
 6983TIP3    H142440   1.707   5.506  15.180  1.9069 -1.4112 -0.3074
 6983TIP3    H242441   1.755   5.536  15.040  0.9864  1.4685 -0.0329
 6984TIP3   OH242442   6.149   0.556  12.051 -0.5638  0.1075 -0.1544
 6984TIP3    H142443   6.153   0.624  11.984  1.9707  2.2299  2.0268
 6984TIP3    H242444   6.072   0.578  12.103 -0.8809  0.1655 -0.6508
 6985TIP3   OH242445   0.084   0.848   3.025 -0.3162 -0.2373 -0.0325
 6985TIP3    H142446   0.179   0.836   3.038 -0.8249 -1.2283  3.3890
 6985TIP3    H242447   0.067   0.938   3.053 -0.7726 -0.9488  2.0281
 6986TIP3   OH242448   0.655   1.823  12.207 -0.4780  0.1088 -0.1520
 6986TIP3    H142449   0.618   1.741  12.175 -2.6530  0.6869  0.8288
 6986TIP3    H242450   0.736   1.797  12.252 -0.0488 -1.2406 -1.6742
 6987TIP3   OH242451   4.216   4.009  16.463  0.5011 -0.4552  0.2367
 6987TIP3    H142452   4.262   3.931  16.433  0.8101 -0.0976 -0.2313
 6987TIP3    H242453   4.126   3.998  16.432  0.8722  0.0267 -1.0512
 6988TIP3   OH242454   4.829   5.016  15.307  0.4345  0.1252 -0.2766
 6988TIP3    H142455   4.832   4.958  15.383  0.7241 -0.0808 -0.4462
 6988TIP3    H242456   4.842   4.958  15.231  0.6529  0.3999 -0.4510
 6989TIP3   OH242457   0.699   1.052   0.009 -0.4097  0.5912  0.1062
 6989TIP3    H142458   0.683   1.146  -0.000 -0.6723  0.6275  0.9134
 6989TIP3    H242459   0.628   1.020   0.064 -0.2905 -0.0754 -0.1144
 6990TIP3   OH242460   4.419   5.707  15.280  0.7928  0.2526 -0.2138
 6990TIP3    H142461   4.501   5.663  15.256  0.3440 -0.0045 -1.3055
 6990TIP3    H242462   4.364   5.637  15.317  0.0872 -0.1309 -1.9306
 6991TIP3   OH242463   4.049   1.057  11.443  0.0016  0.2365 -0.5077
 6991TIP3    H142464   4.076   0.965  11.439  0.3717  0.3022  0.2994
 6991TIP3    H242465   4.085   1.088  11.526 -0.9298  0.8537 -0.3292
 6992TIP3   OH242466   0.578   5.438  15.188  0.3231 -0.4509  0.2473
 6992TIP3    H142467   0.520   5.485  15.129  1.5165  1.0559  0.2291
 6992TIP3    H242468   0.658   5.424  15.138 -0.2573 -3.1958  0.0107
 6993TIP3   OH242469   4.057   5.412   3.840  0.3935 -0.1422  0.2585
 6993TIP3    H142470   4.017   5.432   3.924 -0.4550  0.2956 -0.2396
 6993TIP3    H242471   3.988   5.431   3.776  0.7721 -1.2083 -0.4779
 6994TIP3   OH242472   1.811   1.856  15.599 -0.2779 -0.0849 -0.9332
 6994TIP3    H142473   1.900   1.841  15.631 -0.1921  1.9529 -0.1882
 6994TIP3    H242474   1.819   1.860  15.504  0.4629  0.3750 -0.8478
 6995TIP3   OH242475   3.479   3.862  15.079 -0.2146  0.0871  0.9559
 6995TIP3    H142476   3.542   3.804  15.122 -1.2929 -1.9503 -0.1094
 6995TIP3    H242477   3.472   3.827  14.990 -1.2366  1.6133  0.4206
 6996TIP3   OH242478   5.080   1.456   2.255 -0.0610 -0.0378 -0.7384
 6996TIP3    H142479   5.051   1.449   2.346 -0.6858 -0.4898 -0.9732
 6996TIP3    H242480   5.059   1.372   2.216 -1.4498  0.7841 -1.7909
 6997TIP3   OH242481   1.967   3.884  16.670 -0.6983  0.4872  0.8515
 6997TIP3    H142482   1.891   3.832  16.644 -0.3925  0.2007  0.5253
 6997TIP3    H242483   2.036   3.819  16.685 -0.1257  0.8413 -0.1927
 6998TIP3   OH242484   1.506   4.066  14.870 -0.2055  0.0492  0.1498
 6998TIP3    H142485   1.565   4.009  14.919 -0.9196  0.1105  1.1081
 6998TIP3    H242486   1.437   4.008  14.838 -0.1068  0.1249 -0.2041
 6999TIP3   OH242487   1.575   4.118   3.825 -0.0472 -0.4574  0.6009
 6999TIP3    H142488   1.529   4.091   3.904  1.0130 -0.4771  1.2115
 6999TIP3    H242489   1.596   4.036   3.780 -1.0876 -0.4294  0.0305
 7000TIP3   OH242490   4.933   0.900  15.730 -0.4921 -0.4021 -0.0960
 7000TIP3    H142491   4.968   0.935  15.648  2.6137 -0.2924  1.2278
 7000TIP3    H242492   4.880   0.971  15.766  0.5865  0.6260 -0.5352
 7001TIP3   OH242493   0.860   0.177   2.117  0.5777 -0.0191 -0.3040
 7001TIP3    H142494   0.844   0.235   2.043  1.0699  1.1894  0.5142
 7001TIP3    H242495   0.857   0.235   2.194  2.2546 -0.8647  0.4344
 7002TIP3   OH242496   0.310   0.955   2.018 -0.6692  0.6046  0.2811
 7002TIP3    H142497   0.238   0.915   2.067 -0.4564  0.6757  0.6579
 7002TIP3    H242498   0.269   1.022   1.964 -0.8428  0.8926  0.7655
 7003TIP3   OH242499   0.343   3.398   6.687 -0.5654 -0.3173  0.0918
 7003TIP3    H142500   0.346   3.360   6.775  0.4394  1.0701  0.6857
 7003TIP3    H242501   0.432   3.430   6.672 -0.9815  0.3557 -1.0261
 7004TIP3   OH242502   5.693   0.358   3.091  0.4815 -0.3249  0.2836
 7004TIP3    H142503   5.689   0.263   3.097 -0.2932 -0.1912  2.2022
 7004TIP3    H242504   5.611   0.384   3.049  0.4802 -0.4589  0.2049
 7005TIP3   OH242505   4.564   2.212  12.473  0.4112 -0.5297  0.5694
 7005TIP3    H142506   4.498   2.235  12.538  1.2115  0.6136  0.9911
 7005TIP3    H242507   4.626   2.156  12.520  1.1191  0.4911  0.8672
 7006TIP3   OH242508   0.439   3.886   4.067  0.3026 -0.5977  0.4145
 7006TIP3    H142509   0.473   3.878   3.978  2.4278 -4.0440  1.4574
 7006TIP3    H242510   0.364   3.826   4.070  0.0050 -0.2105  0.8390
 7007TIP3   OH242511   2.102   0.518  16.319  0.3651 -0.6118 -0.1078
 7007TIP3    H142512   2.138   0.581  16.257 -0.1466 -0.4302 -0.2224
 7007TIP3    H242513   2.024   0.561  16.356  1.2360 -0.2979  1.4174
 7008TIP3   OH242514   5.686   4.763  16.588 -0.4767 -0.5277  0.0456
 7008TIP3    H142515   5.631   4.841  16.591 -0.3842 -0.4454 -0.3732
 7008TIP3    H242516   5.658   4.716  16.510 -1.6631 -1.7626  1.1855
 7009TIP3   OH242517   3.881   5.474   4.506  0.6397 -0.2526  0.3637
 7009TIP3    H142518   3.862   5.395   4.455  1.7585 -0.8321  0.8202
 7009TIP3    H242519   3.850   5.546   4.451 -0.8861 -1.0311  0.1763
 7010TIP3   OH242520   4.199   4.714   2.823  0.3161 -0.1943  0.0537
 7010TIP3    H142521   4.110   4.725   2.857 -0.0247 -0.4507 -0.7447
 7010TIP3    H242522   4.203   4.769   2.746  0.8060 -0.2962  0.0035
 7011TIP3   OH242523   4.807   2.452   3.943  0.2647 -0.4035 -0.4223
 7011TIP3    H142524   4.800   2.445   4.039  1.0073  0.9498 -0.2508
 7011TIP3    H242525   4.873   2.520   3.930 -1.0849  0.6251 -1.9153
 7012TIP3   OH242526   3.646   2.187   0.525  0.2683 -0.4833  0.1165
 7012TIP3    H142527   3.646   2.173   0.620  0.8543 -1.2397  0.0082
 7012TIP3    H242528   3.562   2.152   0.496  0.2270 -0.5510  0.3149
 7013TIP3   OH242529   6.089   4.577   2.221 -0.0323  0.5516 -0.4191
 7013TIP3    H142530   6.041   4.507   2.266 -0.9894  1.3680 -0.1560
 7013TIP3    H242531   6.180   4.564   2.249 -0.5589  0.8651  1.5522
 7014TIP3   OH242532   6.744   0.739   2.843 -0.0879 -0.0772 -0.6297
 7014TIP3    H142533   6.710   0.655   2.875  0.6104  0.2574  1.0253
 7014TIP3    H242534   6.812   0.763   2.906 -1.5963  2.6984  0.0124
 7015TIP3   OH242535   2.316   5.853   2.393  0.0810  0.2167 -0.3167
 7015TIP3    H142536   2.244   5.877   2.335 -0.5657 -0.7164  0.0915
 7015TIP3    H242537   2.356   5.937   2.418 -1.0784  0.7546 -0.2542
 7016TIP3   OH242538   3.541   3.434   6.679 -0.1101  0.1529  0.0631
 7016TIP3    H142539   3.452   3.444   6.644 -0.1178  1.1372  0.3344
 7016TIP3    H242540   3.552   3.510   6.736  0.5445 -0.5032  0.8188
 7017TIP3   OH242541   4.459   6.551   0.976  0.6062 -0.2444  0.1951
 7017TIP3    H142542   4.534   6.511   1.020  1.4189  0.0581 -0.9044
 7017TIP3    H242543   4.454   6.507   0.892 -0.5956 -0.4195  0.3502
 7018TIP3   OH242544   6.059   4.812   4.393  0.3707  0.6372  0.2335
 7018TIP3    H142545   6.047   4.749   4.463  0.6775  1.5861  1.1599
 7018TIP3    H242546   6.112   4.767   4.327 -0.3748 -0.4363  0.3694
 7019TIP3   OH242547   3.261   3.737  11.395 -1.0870 -0.7508 -0.3364
 7019TIP3    H142548   3.250   3.718  11.488  0.3778  0.2484  0.0683
 7019TIP3    H242549   3.266   3.652  11.353 -0.6550 -1.2143  0.6449
 7020TIP3   OH242550   6.317   3.283   2.824  0.1141 -0.3512  0.0330
 7020TIP3    H142551   6.320   3.190   2.799  0.6173 -0.5659  0.8628
 7020TIP3    H242552   6.259   3.285   2.900 -1.7986  0.3654 -1.4165
 7021TIP3   OH242553   4.499   3.337  16.582  0.1290  0.1794 -0.9115
 7021TIP3    H142554   4.510   3.288  16.500 -1.9731 -1.0055 -0.5206
 7021TIP3    H242555   4.416   3.383  16.572 -0.4345 -0.4097  0.7392
 7022TIP3   OH242556   4.091   1.473  13.472 -0.5682  0.5520  0.3202
 7022TIP3    H142557   4.049   1.557  13.456 -0.8895  0.5301  1.0139
 7022TIP3    H242558   4.020   1.416  13.504 -0.0774  0.4481  1.2605
 7023TIP3   OH242559   2.619   1.518  13.983  0.0070 -0.9112  0.1345
 7023TIP3    H142560   2.691   1.515  14.047 -0.2708 -0.0147  0.4972
 7023TIP3    H242561   2.663   1.528  13.898  0.2909  0.7444  0.4565
 7024TIP3   OH242562   6.500   2.750  14.595 -1.1233  0.1737 -0.3066
 7024TIP3    H142563   6.454   2.671  14.567  1.2147 -1.1147 -0.6296
 7024TIP3    H242564   6.485   2.813  14.524 -0.2969 -1.0641 -1.6112
 7025TIP3   OH242565   5.106   0.857   5.027 -0.1397  0.5635 -0.5550
 7025TIP3    H142566   5.180   0.826   5.079 -0.8160 -0.6864 -0.3257
 7025TIP3    H242567   5.124   0.825   4.938 -0.5029  0.0866 -0.4571
 7026TIP3   OH242568   5.319   5.373  15.592  0.5988  0.0051 -0.2494
 7026TIP3    H142569   5.342   5.426  15.516 -2.7106  0.1790 -1.2120
 7026TIP3    H242570   5.291   5.437  15.658  0.2401 -0.3260 -0.0776
 7027TIP3   OH242571   4.698   5.817  11.639 -0.0390  0.1395 -0.4796
 7027TIP3    H142572   4.657   5.883  11.583  1.5315  1.8940  0.4018
 7027TIP3    H242573   4.778   5.792  11.593  1.2432  1.5585  0.9200
 7028TIP3   OH242574   1.354   4.148   5.921  0.1521  0.5660 -0.2684
 7028TIP3    H142575   1.260   4.161   5.930  0.3436  0.7043  1.5989
 7028TIP3    H242576   1.364   4.054   5.906 -0.3467  0.7155 -1.6122
 7029TIP3   OH242577   5.195   3.042   2.232 -0.4293 -0.4015 -0.5029
 7029TIP3    H142578   5.193   3.083   2.319 -0.1929 -2.5004  0.5406
 7029TIP3    H242579   5.253   3.097   2.181  0.4007  0.2048  1.0442
 7030TIP3   OH242580   6.594   1.092  11.382 -0.1319 -0.1273  0.2633
 7030TIP3    H142581   6.650   1.135  11.447  0.9932 -0.6065 -0.3716
 7030TIP3    H242582   6.604   1.145  11.303  1.8525 -1.9167 -0.7462
 7031TIP3   OH242583   3.914   2.985   2.787  0.6223 -0.1290  0.0870
 7031TIP3    H142584   3.862   3.055   2.827  0.5342 -0.2990  0.2678
 7031TIP3    H242585   3.918   3.009   2.694  0.9117  0.3157  0.2136
 7032TIP3   OH242586   5.990   1.044  13.262 -0.0965  0.0150 -0.4154
 7032TIP3    H142587   6.014   1.051  13.169 -1.4905  0.1785 -0.7782
 7032TIP3    H242588   5.929   0.970  13.265 -0.5328  0.4047  0.2743
 7033TIP3   OH242589   0.522   6.375  15.532 -0.1398  0.4673  0.4723
 7033TIP3    H142590   0.530   6.280  15.530 -0.3086  0.4157  1.9411
 7033TIP3    H242591   0.532   6.399  15.624 -0.7205  1.8122  0.2098
 7034TIP3   OH242592   5.390   3.166   4.325 -0.6353  0.7702 -0.0386
 7034TIP3    H142593   5.335   3.142   4.400 -1.5498  0.5689 -0.7524
 7034TIP3    H242594   5.421   3.254   4.344 -3.0755  1.8183 -0.6347
 7035TIP3   OH242595   1.618   6.272  16.972  0.0309  0.4854  0.2201
 7035TIP3    H142596   1.524   6.283  16.958  0.2648  1.4681 -0.6672
 7035TIP3    H242597   1.656   6.279  16.885  0.6092 -3.6837  0.0830
 7036TIP3   OH242598   1.568   4.203   2.535  0.2056 -0.5808 -0.0569
 7036TIP3    H142599   1.606   4.207   2.448  0.8149 -2.6088  0.0967
 7036TIP3    H242600   1.636   4.238   2.593  0.3475 -0.5922 -0.2169
 7037TIP3   OH242601   4.502   4.355   5.288 -0.4318 -0.2895  0.0730
 7037TIP3    H142602   4.574   4.292   5.277  0.1048  0.5810 -1.6083
 7037TIP3    H242603   4.539   4.425   5.341  0.4395  0.8136 -1.9021
 7038TIP3   OH242604   4.225   3.554   3.389 -0.2189 -0.5821  0.4091
 7038TIP3    H142605   4.152   3.591   3.339 -1.4952 -1.6702  1.4354
 7038TIP3    H242606   4.253   3.478   3.338 -0.4392 -0.7248  0.4991
 7039TIP3   OH242607   5.600   3.758  13.992  0.6997 -0.0521 -0.4007
 7039TIP3    H142608   5.634   3.677  14.029  1.0470  0.3047  0.0618
 7039TIP3    H242609   5.551   3.799  14.063  0.2463 -0.0119 -0.7307
 7040TIP3   OH242610   3.905   1.716  13.310  0.3387 -0.1575  0.6057
 7040TIP3    H142611   3.963   1.718  13.235  1.8394 -1.7074  1.6786
 7040TIP3    H242612   3.817   1.707  13.273  0.7627  2.2498 -1.0300
 7041TIP3   OH242613   1.521   0.904   4.980  0.3799  0.0755  0.1293
 7041TIP3    H142614   1.436   0.874   5.012 -0.2987  0.6885 -1.0462
 7041TIP3    H242615   1.538   0.848   4.904  0.8544  0.2123  0.1373
 7042TIP3   OH242616   0.605   6.081  11.059  0.8565 -0.3456 -0.9491
 7042TIP3    H142617   0.590   6.058  10.967  0.6789  1.4508 -1.3869
 7042TIP3    H242618   0.700   6.081  11.068  0.8314 -2.7493 -0.5377
 7043TIP3   OH242619   4.495   3.411  16.871  0.8227 -0.0454 -0.3805
 7043TIP3    H142620   4.471   3.319  16.866  0.5895 -0.0754  1.0375
 7043TIP3    H242621   4.569   3.413  16.932  0.9095  0.6792 -0.5006
 7044TIP3   OH242622   0.282   6.627   5.021  0.0575  0.4695  0.1460
 7044TIP3    H142623   0.256   6.547   4.974  1.6724 -0.7978  1.3923
 7044TIP3    H242624   0.323   6.681   4.954  0.0647 -0.2578 -0.4457
 7045TIP3   OH242625   0.536   3.735   3.199  0.4466 -0.2079 -0.5473
 7045TIP3    H142626   0.507   3.821   3.170  0.5880  0.9584  2.5198
 7045TIP3    H242627   0.496   3.674   3.138 -1.6190  1.8849 -1.3764
 7046TIP3   OH242628   5.387   0.112  14.604  0.1188 -0.2052  0.3442
 7046TIP3    H142629   5.447   0.132  14.676  1.4240  0.2663 -0.8538
 7046TIP3    H242630   5.420   0.031  14.566 -0.4964 -0.3844  0.1719
 7047TIP3   OH242631   5.457   0.393   0.892 -0.0346  0.3664 -0.0907
 7047TIP3    H142632   5.370   0.417   0.922  0.0517  1.4589 -0.6979
 7047TIP3    H242633   5.461   0.298   0.903 -0.3884  0.5982  2.3346
 7048TIP3   OH242634   3.064   5.214  16.890  0.1706  0.0567  0.3323
 7048TIP3    H142635   3.125   5.145  16.865 -0.5692  0.0668 -1.5718
 7048TIP3    H242636   3.010   5.229  16.812 -1.9940  0.3542  1.8396
 7049TIP3   OH242637   6.358   5.790   1.617  0.0109  0.4028  0.7683
 7049TIP3    H142638   6.350   5.881   1.588  0.7232  0.5266  0.9461
 7049TIP3    H242639   6.426   5.793   1.685 -0.5122 -0.1372  1.3147
 7050TIP3   OH242640   3.286   3.525   5.243  0.6903  0.2102 -0.1668
 7050TIP3    H142641   3.224   3.475   5.296  0.4749  0.2182 -0.4145
 7050TIP3    H242642   3.239   3.604   5.218  0.9013  0.3580 -0.1043
 7051TIP3   OH242643   5.967   4.459  14.009  0.0408 -0.3043 -0.2026
 7051TIP3    H142644   5.909   4.393  13.972  0.3405 -1.0319  0.6075
 7051TIP3    H242645   6.042   4.409  14.042  0.4958  0.4882 -0.0142
 7052TIP3   OH242646   5.251   6.549   3.048 -0.2642 -0.0981  0.7827
 7052TIP3    H142647   5.226   6.462   3.078 -1.5711 -0.4411 -1.2062
 7052TIP3    H242648   5.190   6.608   3.093  0.4054 -0.2291  1.8730
 7053TIP3   OH242649   6.531   5.284  11.925 -0.5833 -0.0739  0.1321
 7053TIP3    H142650   6.600   5.312  11.985  0.4662 -1.9506 -0.1597
 7053TIP3    H242651   6.577   5.260  11.845 -1.7908  0.5437 -0.7630
 7054TIP3   OH242652   4.223   5.373  10.946  0.2923 -0.6437  0.8149
 7054TIP3    H142653   4.192   5.289  10.911 -2.5382 -0.0308  1.6836
 7054TIP3    H242654   4.200   5.437  10.878  2.9846 -0.6143 -0.1102
 7055TIP3   OH242655   4.523   0.920  15.979 -0.4882 -0.4129  0.2679
 7055TIP3    H142656   4.595   0.909  16.042  0.0707  1.3692 -0.0441
 7055TIP3    H242657   4.558   0.884  15.897  0.3010  1.0129 -0.0424
 7056TIP3   OH242658   5.831   1.978  16.297 -0.2591  0.4920 -0.5393
 7056TIP3    H142659   5.800   1.890  16.273 -0.0253 -0.0208  1.0231
 7056TIP3    H242660   5.780   2.036  16.241 -0.4384 -0.6339 -1.5743
 7057TIP3   OH242661   0.118   3.819  13.363  0.6742 -0.1564  0.1831
 7057TIP3    H142662   0.181   3.763  13.408  0.4125 -0.1932  0.5065
 7057TIP3    H242663   0.056   3.758  13.324 -0.5296 -0.0659  1.8797
 7058TIP3   OH242664   3.445   0.611  13.551 -0.2896  0.1432 -0.0541
 7058TIP3    H142665   3.454   0.690  13.497  0.6100 -0.1495 -0.3372
 7058TIP3    H242666   3.531   0.598  13.589 -0.5655 -0.4347  0.3696
 7059TIP3   OH242667   4.343   1.546  17.108  0.0978  0.5155 -0.3204
 7059TIP3    H142668   4.419   1.516  17.157 -0.7252 -1.7996 -0.3942
 7059TIP3    H242669   4.306   1.616  17.162  1.4173  0.6456  0.4397
 7060TIP3   OH242670   6.246   1.856  14.430 -0.1836 -0.4225 -0.1062
 7060TIP3    H142671   6.243   1.952  14.435  0.4687 -0.3628 -0.6967
 7060TIP3    H242672   6.301   1.830  14.504  1.6740 -0.1624 -1.3307
 7061TIP3   OH242673   5.965   2.072  12.635 -0.6614 -0.4919 -0.5855
 7061TIP3    H142674   6.042   2.016  12.640 -1.4426 -1.5201  0.2386
 7061TIP3    H242675   5.941   2.088  12.726 -1.5390 -0.3469 -0.8376
 7062TIP3   OH242676   1.924   1.196  11.435 -0.2537 -0.1746  0.1138
 7062TIP3    H142677   1.842   1.161  11.399  0.8270 -0.5227 -2.1175
 7062TIP3    H242678   1.940   1.142  11.513 -1.3413 -1.1447 -0.3047
 7063TIP3   OH242679   1.134   6.417  16.300 -0.3745 -0.3090  0.0032
 7063TIP3    H142680   1.156   6.420  16.207  0.1785  1.2336  0.1641
 7063TIP3    H242681   1.119   6.508  16.324 -3.0381 -0.9177  0.8499
 7064TIP3   OH242682   4.460   1.891  14.839 -0.2721  0.0177  0.5769
 7064TIP3    H142683   4.402   1.956  14.800 -1.6396 -1.2920  0.3831
 7064TIP3    H242684   4.537   1.941  14.867 -1.2367  1.6828  0.3119
 7065TIP3   OH242685   0.495   2.394  16.878 -0.0245  0.1145  0.0753
 7065TIP3    H142686   0.530   2.469  16.829  0.1886  0.2458  0.4279
 7065TIP3    H242687   0.567   2.331  16.880 -0.2494 -0.1557 -0.3381
 7066TIP3   OH242688   6.796   2.766  15.060  0.2078 -1.0121 -0.0837
 7066TIP3    H142689   6.842   2.729  14.984 -0.8449  0.2512 -1.3543
 7066TIP3    H242690   6.703   2.751  15.041 -0.1347  0.5283  0.2933
 7067TIP3   OH242691   4.187   2.098   5.975  0.0676  0.2547  0.3300
 7067TIP3    H142692   4.123   2.032   5.949  0.8178  0.3967 -1.9986
 7067TIP3    H242693   4.204   2.080   6.068 -0.9079 -1.8263  0.1310
 7068TIP3   OH242694   4.679   0.311  15.481 -0.7168 -0.6844  0.0664
 7068TIP3    H142695   4.652   0.251  15.411 -1.8465  0.6141 -0.6196
 7068TIP3    H242696   4.758   0.354  15.447 -0.9267 -0.4846 -0.1669
 7069TIP3   OH242697   0.010   4.285  17.273 -0.6928  0.1860 -0.4873
 7069TIP3    H142698   0.083   4.223  17.260  0.8027  1.5257  1.2297
 7069TIP3    H242699  -0.060   4.231  17.310  0.1371 -0.7380 -0.2210
 7070TIP3   OH242700   0.877   5.040  16.304 -0.3430 -0.3208 -0.8234
 7070TIP3    H142701   0.882   5.131  16.335  1.3745 -1.0490  1.2057
 7070TIP3    H242702   0.891   4.987  16.383  1.7236 -2.3100 -2.4531
 7071TIP3   OH242703   0.440   5.480   3.993 -0.4233 -0.2586 -0.2187
 7071TIP3    H142704   0.438   5.432   4.076  0.0076  0.2903  0.1172
 7071TIP3    H242705   0.512   5.542   4.003 -0.4829 -0.0637 -0.9395
 7072TIP3   OH242706   6.117   5.217  11.252  0.2666 -0.0212  0.0313
 7072TIP3    H142707   6.066   5.237  11.173  2.0361 -3.2397 -2.0304
 7072TIP3    H242708   6.208   5.221  11.223  1.0959  1.4029  2.6318
 7073TIP3   OH242709   2.471   0.463  12.988 -0.0585 -0.1918 -0.7164
 7073TIP3    H142710   2.493   0.372  13.011  1.3763  0.4919  0.7440
 7073TIP3    H242711   2.414   0.492  13.059 -1.7594 -0.4116 -1.9756
 7074TIP3   OH242712   6.448   4.003   1.683 -0.0724 -0.2070 -0.0202
 7074TIP3    H142713   6.436   3.998   1.588  0.0245  3.1425 -0.2709
 7074TIP3    H242714   6.530   3.957   1.700 -0.0283 -0.7280 -1.5616
 7075TIP3   OH242715   1.732   4.631   3.847  0.2143  0.1189 -0.0224
 7075TIP3    H142716   1.820   4.643   3.812 -0.6191 -0.9194 -2.6050
 7075TIP3    H242717   1.707   4.543   3.819 -0.3550 -1.0036  3.6661
 7076TIP3   OH242718   6.441   0.679   2.168 -0.4019 -0.4392  0.8541
 7076TIP3    H142719   6.405   0.597   2.135 -1.5776  0.0787  0.8396
 7076TIP3    H242720   6.398   0.693   2.252 -0.6563  0.4670  0.5807
 7077TIP3   OH242721   2.748   1.511  13.353 -0.3642 -0.4913  0.2926
 7077TIP3    H142722   2.689   1.473  13.288 -0.4209  0.7129 -0.3681
 7077TIP3    H242723   2.701   1.504  13.436 -0.8327 -0.8510 -0.0064
 7078TIP3   OH242724   6.439   3.561  11.802 -0.1335  0.1415  0.0514
 7078TIP3    H142725   6.500   3.572  11.875 -0.9778 -0.5943  0.8954
 7078TIP3    H242726   6.459   3.632  11.742  2.4080 -0.8502 -0.3045
 7079TIP3   OH242727   2.604   5.718  11.631 -0.1419  0.1110 -0.3038
 7079TIP3    H142728   2.692   5.702  11.664  0.4868  0.4451 -1.8070
 7079TIP3    H242729   2.547   5.680  11.698  1.0982  0.8971  1.2328
 7080TIP3   OH242730   0.279   4.357  16.406  0.1313  0.0133 -0.0607
 7080TIP3    H142731   0.310   4.436  16.450  1.7295 -0.5496 -0.1259
 7080TIP3    H242732   0.246   4.301  16.477  2.0159 -0.5862  0.3718
 7081TIP3   OH242733   6.754   4.608   3.875 -0.0464 -0.0199  0.0394
 7081TIP3    H142734   6.778   4.618   3.783  1.2670  0.2894  0.4003
 7081TIP3    H242735   6.667   4.646   3.882  0.1778  0.6786 -0.9081
 7082TIP3   OH242736   0.883   0.369   2.348  0.0481 -0.1394 -0.0762
 7082TIP3    H142737   0.855   0.373   2.440  0.4106  0.3566  0.0106
 7082TIP3    H242738   0.908   0.458   2.326 -1.2345  0.0083 -1.0400
 7083TIP3   OH242739   1.504   1.498  16.077  0.3242  0.4998 -0.1287
 7083TIP3    H142740   1.491   1.590  16.054  0.4022  0.4170 -0.5168
 7083TIP3    H242741   1.599   1.487  16.079  0.3171  0.4821  0.1418
 7084TIP3   OH242742   6.785   3.190   2.683  0.0083 -0.0218  0.3910
 7084TIP3    H142743   6.780   3.181   2.588  1.6451  2.2566  0.0535
 7084TIP3    H242744   6.713   3.251   2.705 -0.5583 -0.7806  0.6615
 7085TIP3   OH242745   5.287   6.210   3.513 -0.4035  0.1441 -0.2227
 7085TIP3    H142746   5.327   6.235   3.596 -0.8223 -0.8928  0.2919
 7085TIP3    H242747   5.286   6.114   3.514 -1.4613  0.1373 -0.9229
 7086TIP3   OH242748   5.582   2.619  12.993  0.2225 -0.4801 -0.9826
 7086TIP3    H142749   5.512   2.647  13.053 -0.6905 -2.6605 -0.9968
 7086TIP3    H242750   5.576   2.680  12.919 -0.0559  0.8701  0.1183
 7087TIP3   OH242751   5.165   2.284   5.904  0.2115 -0.3383 -0.0957
 7087TIP3    H142752   5.252   2.324   5.907  0.3577 -0.6457 -0.1254
 7087TIP3    H242753   5.136   2.297   5.814 -0.1790  0.6046  0.1693
 7088TIP3   OH242754   2.172   2.417   1.232  0.0057  0.8245 -0.1306
 7088TIP3    H142755   2.139   2.374   1.153  2.1752  3.2486 -2.4687
 7088TIP3    H242756   2.108   2.485   1.250 -0.8698 -0.1919  0.6637
 7089TIP3   OH242757   4.018   4.667  11.247 -0.0140  0.3346  0.0997
 7089TIP3    H142758   3.993   4.759  11.259 -0.5157  0.5906 -2.6471
 7089TIP3    H242759   4.000   4.626  11.332 -3.8761  1.8515  0.1061
 7090TIP3   OH242760   2.961   5.111   6.107  0.5235  0.3943 -0.2465
 7090TIP3    H142761   2.872   5.127   6.139  0.9453  0.6575  0.8299
 7090TIP3    H242762   2.994   5.041   6.163  0.7515 -0.1949 -1.1096
 7091TIP3   OH242763   0.428   4.663  12.880 -0.4208 -0.7155 -0.4132
 7091TIP3    H142764   0.350   4.695  12.834  1.2604  0.6260 -2.4414
 7091TIP3    H242765   0.449   4.580  12.836 -0.9195 -1.2811  0.4031
 7092TIP3   OH242766   1.232   6.377  13.163 -0.4816  0.2653  0.4785
 7092TIP3    H142767   1.258   6.400  13.252 -0.7908  3.0899 -0.1057
 7092TIP3    H242768   1.141   6.348  13.172 -0.6710  0.9915  1.0418
 7093TIP3   OH242769   3.264   0.256   5.943 -0.1177 -0.3604  0.5043
 7093TIP3    H142770   3.223   0.212   6.018 -1.0618  1.3433  1.0170
 7093TIP3    H242771   3.228   0.212   5.866  1.8735 -3.0259  1.0244
 7094TIP3   OH242772   0.640   6.368  11.521 -0.2289  0.4512  0.1604
 7094TIP3    H142773   0.713   6.406  11.571 -0.3211 -0.2385  0.8263
 7094TIP3    H242774   0.673   6.283  11.492 -1.4550 -0.7287  2.1556
 7095TIP3   OH242775   5.701   4.067  15.289 -0.7533  0.1733  0.1172
 7095TIP3    H142776   5.610   4.038  15.295 -1.3762  2.1350  0.4608
 7095TIP3    H242777   5.696   4.160  15.265  1.1596  0.3132  0.1195
 7096TIP3   OH242778   3.465   0.633  15.539 -0.1674 -0.4092  0.2391
 7096TIP3    H142779   3.495   0.645  15.449 -1.3209 -1.1395 -0.2460
 7096TIP3    H242780   3.380   0.676  15.542 -0.3636 -0.8371  0.8504
 7097TIP3   OH242781   2.351   4.387  17.167  0.3521 -0.1849  0.3292
 7097TIP3    H142782   2.379   4.297  17.184  0.9658 -0.2437 -0.9170
 7097TIP3    H242783   2.426   4.441  17.191 -0.6116  0.1512  2.7120
 7098TIP3   OH242784   0.314   4.146   5.484 -0.0020 -0.0026  0.6155
 7098TIP3    H142785   0.305   4.157   5.389  1.3105 -0.4258  0.4413
 7098TIP3    H242786   0.389   4.088   5.495 -1.3134 -1.5031  1.8578
 7099TIP3   OH242787   5.403   1.870   2.682  0.2219 -0.0997 -0.0340
 7099TIP3    H142788   5.382   1.942   2.742  1.1209 -0.2384  0.4502
 7099TIP3    H242789   5.388   1.907   2.595 -1.1044  0.1011  0.2562
 7100TIP3   OH242790   1.731   0.405  14.424  0.7571 -0.3839  0.0233
 7100TIP3    H142791   1.663   0.470  14.405  0.1981 -0.6141  1.2327
 7100TIP3    H242792   1.755   0.370  14.338 -1.9940 -1.6547 -0.2552
 7101TIP3   OH242793   5.808   0.690  14.626 -0.2161 -0.3370  0.1127
 7101TIP3    H142794   5.897   0.671  14.596 -0.0984 -0.7905  0.7346
 7101TIP3    H242795   5.819   0.721  14.715 -0.7138 -0.7623  0.3267
 7102TIP3   OH242796   3.266   3.462  12.887  0.0669 -0.3181 -0.1662
 7102TIP3    H142797   3.314   3.515  12.952 -0.4501 -1.6754  1.3722
 7102TIP3    H242798   3.175   3.491  12.895  0.0015 -0.4944 -0.2680
 7103TIP3   OH242799   5.915   1.596   0.330 -0.0279 -0.0378  0.5186
 7103TIP3    H142800   5.994   1.648   0.315  0.6416 -0.6887  1.6907
 7103TIP3    H242801   5.853   1.627   0.264  0.9887  0.9255 -0.0080
 7104TIP3   OH242802   6.113   1.904   5.650  0.1651  0.3135  0.0376
 7104TIP3    H142803   6.070   1.875   5.730  1.4642 -3.2502 -0.4659
 7104TIP3    H242804   6.200   1.933   5.679  0.1674  0.2634  0.0810
 7105TIP3   OH242805   2.463   6.370   3.768  0.2625 -0.2737  0.4948
 7105TIP3    H142806   2.441   6.420   3.690 -0.0833 -1.2442 -0.0367
 7105TIP3    H242807   2.467   6.279   3.738  1.0347 -0.5549  1.4112
 7106TIP3   OH242808   4.604   4.636   1.625  0.1693 -0.0816 -0.0636
 7106TIP3    H142809   4.601   4.601   1.714  2.4352 -1.5968 -0.5436
 7106TIP3    H242810   4.512   4.637   1.596 -0.2223 -3.0396  0.9674
 7107TIP3   OH242811   1.383   5.961   3.145  0.2745  0.1297 -0.2427
 7107TIP3    H142812   1.318   6.032   3.146 -1.2541 -1.2033  2.3965
 7107TIP3    H242813   1.450   5.989   3.207 -0.7982 -1.0903  1.5103
 7108TIP3   OH242814   1.113   4.529  13.831  0.4335  0.0783 -0.3341
 7108TIP3    H142815   1.195   4.480  13.837  1.1228  0.9068 -2.5243
 7108TIP3    H242816   1.067   4.490  13.756 -0.5974  0.4820  0.0711
 7109TIP3   OH242817   5.756   5.318  10.717 -0.3116  0.3067 -0.1032
 7109TIP3    H142818   5.752   5.410  10.745 -1.1534  0.0246  0.7371
 7109TIP3    H242819   5.799   5.273  10.790  2.1549  0.3659 -1.4497
 7110TIP3   OH242820   2.573   4.693  12.943  0.2491  0.0946  0.2641
 7110TIP3    H142821   2.542   4.604  12.927  0.3061  0.1180  0.0256
 7110TIP3    H242822   2.631   4.685  13.019  0.9796 -0.2199 -0.3189
 7111TIP3   OH242823   2.658   2.613   0.027  0.0799  0.2445  0.2870
 7111TIP3    H142824   2.669   2.707   0.039  1.2146  0.0548  0.8351
 7111TIP3    H242825   2.702   2.573   0.102  2.3358 -0.7930 -1.5008
 7112TIP3   OH242826   0.074   6.548   2.778  0.5239  0.0852  0.4740
 7112TIP3    H142827  -0.009   6.525   2.737 -0.5613  1.9139  1.6053
 7112TIP3    H242828   0.132   6.571   2.705  0.2006 -1.6428 -0.3442
 7113TIP3   OH242829   3.244   6.562  11.600  0.3714  0.0008 -0.0033
 7113TIP3    H142830   3.260   6.468  11.607  0.4105 -0.1468 -1.7443
 7113TIP3    H242831   3.182   6.582  11.670  2.6086 -0.7570  2.2668
 7114TIP3   OH242832   4.651   4.510  13.019 -0.3194  0.8569  0.3172
 7114TIP3    H142833   4.682   4.465  13.098  1.9532 -0.5608 -1.3220
 7114TIP3    H242834   4.556   4.500  13.022 -0.2888  0.9319  2.9292
 7115TIP3   OH242835   3.279   3.859   4.282  0.4393  0.1635  0.2661
 7115TIP3    H142836   3.247   3.857   4.192 -1.8322  0.1755  1.0495
 7115TIP3    H242837   3.372   3.840   4.275  0.3868  0.6833 -2.1343
 7116TIP3   OH242838   3.513   1.190  13.620 -0.4964  1.1262 -0.0080
 7116TIP3    H142839   3.493   1.177  13.527 -1.1176  1.1489  0.1196
 7116TIP3    H242840   3.544   1.281  13.624 -0.6767  1.1959 -0.1577
 7117TIP3   OH242841   3.355   4.143  15.444  0.4514  0.0751  0.3358
 7117TIP3    H142842   3.445   4.110  15.436  0.3598 -0.1954  0.4405
 7117TIP3    H242843   3.358   4.202  15.519  0.9349  1.3690 -0.6676
 7118TIP3   OH242844   4.322   5.010  10.282  0.1989 -0.3926 -0.4012
 7118TIP3    H142845   4.362   5.032  10.198  2.3142  1.6007  1.0691
 7118TIP3    H242846   4.257   5.079  10.297 -0.3108 -0.8521 -0.4829
 7119TIP3   OH242847   0.591   4.551   3.152  0.1795  0.6988  0.3360
 7119TIP3    H142848   0.543   4.469   3.160  0.4482  0.4141 -1.0007
 7119TIP3    H242849   0.560   4.590   3.070 -0.1848  2.0901  1.1004
 7120TIP3   OH242850   3.895   5.130   6.526 -0.3790  0.2929 -0.0941
 7120TIP3    H142851   3.940   5.153   6.445 -0.2536 -0.0181 -0.1158
 7120TIP3    H242852   3.876   5.036   6.517 -0.7961  0.3634  0.0261
 7121TIP3   OH242853   2.105   5.436   2.460 -0.4418 -0.0040 -0.2327
 7121TIP3    H142854   2.127   5.503   2.396 -1.3664  1.1549  0.6330
 7121TIP3    H242855   2.009   5.433   2.460 -0.4316 -0.6638  0.4091
 7122TIP3   OH242856   4.234   5.928   4.912 -0.8240 -0.4212 -0.2351
 7122TIP3    H142857   4.234   5.843   4.869 -2.2847  0.1059 -1.3406
 7122TIP3    H242858   4.184   5.914   4.993 -0.4429 -0.7719 -0.0592
 7123TIP3   OH242859   3.637   6.664   5.726  0.3211  0.1731 -0.0348
 7123TIP3    H142860   3.577   6.630   5.660  0.5677  0.5268 -0.4367
 7123TIP3    H242861   3.586   6.660   5.808 -0.2786  0.5398 -0.3854
 7124TIP3   OH242862   3.130   5.094   3.197  0.8559 -0.2213  0.1067
 7124TIP3    H142863   3.224   5.108   3.184  0.4729  2.9486  0.1944
 7124TIP3    H242864   3.113   5.129   3.285 -0.3609 -0.9675  0.1728
 7125TIP3   OH242865   5.699   2.153   0.555 -0.5474 -0.2107 -0.0381
 7125TIP3    H142866   5.606   2.172   0.541 -0.4617 -0.5536 -1.1235
 7125TIP3    H242867   5.711   2.160   0.650 -1.9371 -1.3340  0.2431
 7126TIP3   OH242868   4.921   2.532   2.185  0.2023  0.2924  0.7166
 7126TIP3    H142869   4.874   2.487   2.255 -1.1014  0.8713  0.2207
 7126TIP3    H242870   4.878   2.617   2.178  0.8785  0.5702 -0.2184
 7127TIP3   OH242871   4.666   3.540  14.054  0.0715 -0.6047  0.5646
 7127TIP3    H142872   4.743   3.595  14.072 -0.8721  1.8309 -2.2908
 7127TIP3    H242873   4.596   3.579  14.107 -0.2226  0.0467 -0.2774
 7128TIP3   OH242874   3.226   0.282  11.666  0.6430 -0.2211  0.1914
 7128TIP3    H142875   3.300   0.247  11.716  0.9509 -0.5907 -0.5122
 7128TIP3    H242876   3.150   0.264  11.720  0.8843 -1.3434  0.1792
 7129TIP3   OH242877   5.975   1.852  15.911  0.3037  0.2566  0.6126
 7129TIP3    H142878   5.900   1.831  15.855  1.8761 -1.3030 -0.9811
 7129TIP3    H242879   6.033   1.904  15.855  0.5495  1.1970  1.7341
 7130TIP3   OH242880   4.077   4.439   2.601 -0.2097  0.6036 -0.2406
 7130TIP3    H142881   4.046   4.349   2.611 -1.1431  0.6022 -2.8818
 7130TIP3    H242882   4.087   4.471   2.691 -0.2958 -1.9744  0.7201
 7131TIP3   OH242883   4.512   5.015  13.563  0.1710 -0.4658  0.0500
 7131TIP3    H142884   4.515   4.919  13.563  0.6623 -0.4770 -2.2245
 7131TIP3    H242885   4.449   5.037  13.495  0.4363  0.8420  0.2137
 7132TIP3   OH242886   3.680   4.052   1.175 -0.6747  0.6968  0.5301
 7132TIP3    H142887   3.595   4.018   1.203 -1.2681  1.4214 -0.3396
 7132TIP3    H242888   3.665   4.081   1.085  0.4741  0.9171  0.4058
 7133TIP3   OH242889   6.269   2.375   1.349 -0.0259  0.1718  0.5805
 7133TIP3    H142890   6.220   2.362   1.430  0.2200 -0.6852  0.5941
 7133TIP3    H242891   6.361   2.368   1.374  0.1449  2.3429  0.6555
 7134TIP3   OH242892   1.381   0.026  10.986 -0.4279 -0.0461  0.0961
 7134TIP3    H142893   1.472  -0.001  10.982 -0.7247 -0.8449 -2.9530
 7134TIP3    H242894   1.331  -0.053  10.968 -1.8390  0.0433  3.2835
 7135TIP3   OH242895   1.290   5.764   2.984 -0.1752  0.1975  0.0803
 7135TIP3    H142896   1.299   5.807   2.899  1.4818  0.4106  0.3468
 7135TIP3    H242897   1.341   5.818   3.044 -1.3467  0.0525  1.2213
 7136TIP3   OH242898   0.136   6.397   4.921  0.8319 -0.1073  0.2010
 7136TIP3    H142899   0.170   6.321   4.968 -1.0838 -0.0956  1.6724
 7136TIP3    H242900   0.044   6.376   4.904  0.8499  0.9757 -1.2888
 7137TIP3   OH242901   0.178   5.388   3.787 -0.2762 -0.3848  0.0356
 7137TIP3    H142902   0.168   5.456   3.720 -0.8261 -0.1516  0.3567
 7137TIP3    H242903   0.259   5.343   3.762  0.6393  1.0297  0.3915
 7138TIP3   OH242904   4.726   6.057  13.347 -0.1081 -0.4384  0.1105
 7138TIP3    H142905   4.684   5.977  13.316 -0.1979 -0.8996  1.3792
 7138TIP3    H242906   4.726   6.049  13.442  0.0773  0.9784  0.2462
 7139TIP3   OH242907   2.174   1.136   5.648 -0.4610  0.0689  0.3360
 7139TIP3    H142908   2.206   1.081   5.577 -2.0487 -1.8822  1.0724
 7139TIP3    H242909   2.104   1.189   5.608 -1.0701 -0.7281  0.3295
 7140TIP3   OH242910   1.370   1.105   4.293  0.3571  0.0403  0.1877
 7140TIP3    H142911   1.382   1.179   4.234 -0.4237  0.8692  1.0579
 7140TIP3    H242912   1.275   1.100   4.306  0.3313 -1.5786 -0.4573
 7141TIP3   OH242913   3.176   4.476   0.111 -0.2331 -0.3145 -0.1439
 7141TIP3    H142914   3.185   4.504   0.020 -1.5866 -0.1206 -0.2288
 7141TIP3    H242915   3.223   4.393   0.116 -0.5004 -0.5245 -1.1208
 7142TIP3   OH242916   5.657   5.769   1.027  0.6840  0.1465 -0.0716
 7142TIP3    H142917   5.673   5.797   1.117 -0.9554  2.7137 -0.5559
 7142TIP3    H242918   5.587   5.704   1.034 -0.0696  1.0162  0.3897
 7143TIP3   OH242919   4.798   2.575   0.155  0.3115  0.2427 -0.2864
 7143TIP3    H142920   4.812   2.482   0.176  2.5637  0.5593 -0.2438
 7143TIP3    H242921   4.882   2.617   0.176 -0.8322  2.3859  0.1685
 7144TIP3   OH242922   6.298   4.838  11.186  0.2374 -0.0700 -0.6920
 7144TIP3    H142923   6.280   4.804  11.098 -0.3859  2.5592 -1.6578
 7144TIP3    H242924   6.391   4.861  11.184  0.7111 -1.8693  0.0300
 7145TIP3   OH242925   0.588   3.040  10.800 -0.3806  0.1666  0.2221
 7145TIP3    H142926   0.594   2.948  10.827  0.0069  0.2234  0.3354
 7145TIP3    H242927   0.678   3.073  10.807 -0.4288  0.4151 -0.3129
 7146TIP3   OH242928   6.064   5.063  15.264  0.0831 -0.1360 -1.0481
 7146TIP3    H142929   6.048   5.058  15.170 -0.2433  0.8291 -1.0511
 7146TIP3    H242930   6.004   5.131  15.295  0.6004 -0.0406 -0.2459
 7147TIP3   OH242931   0.859   0.859   3.353 -0.6747  0.6678 -0.0584
 7147TIP3    H142932   0.921   0.794   3.386 -1.5294  0.3058  0.8545
 7147TIP3    H242933   0.773   0.818   3.363 -1.1394  1.5276 -0.4540
 7148TIP3   OH242934   0.149   4.924   2.372  0.7709  0.1383 -0.1367
 7148TIP3    H142935   0.238   4.926   2.407  0.6111  3.0521  0.2347
 7148TIP3    H242936   0.150   4.990   2.302 -1.7573  2.1996  1.6802
 7149TIP3   OH242937   4.455   2.165  11.620  0.2930 -0.2631  0.0654
 7149TIP3    H142938   4.482   2.161  11.529  0.6556  0.8270  0.1210
 7149TIP3    H242939   4.385   2.100  11.627 -0.3197  0.2536 -1.1883
 7150TIP3   OH242940   0.813   0.269   0.524  0.3383  0.1302 -0.2395
 7150TIP3    H142941   0.765   0.207   0.469  1.0047  0.7335 -1.4961
 7150TIP3    H242942   0.903   0.238   0.524  0.4166  0.3470  0.2077
 7151TIP3   OH242943   1.763   1.325  15.812  0.2613 -0.7950  0.4196
 7151TIP3    H142944   1.755   1.366  15.726  0.3333 -1.0820  0.2751
 7151TIP3    H242945   1.753   1.397  15.874 -0.7664 -0.7312  0.1977
 7152TIP3   OH242946   1.620   2.322  12.693 -0.5960  0.3420  0.4412
 7152TIP3    H142947   1.545   2.292  12.642 -0.5367 -0.0060  0.5580
 7152TIP3    H242948   1.634   2.413  12.665  1.0957 -0.6424 -2.1085
 7153TIP3   OH242949   4.538   5.720   4.926 -0.0532 -0.3399  0.0013
 7153TIP3    H142950   4.463   5.718   4.866 -0.2076  1.1758  0.1228
 7153TIP3    H242951   4.559   5.628   4.941 -2.7495 -0.8381  1.0654
 7154TIP3   OH242952   1.984   2.905  11.972 -0.3743 -0.3808 -0.3009
 7154TIP3    H142953   2.055   2.863  11.924 -0.7193 -1.3784  0.0573
 7154TIP3    H242954   1.952   2.974  11.912 -0.2820 -1.0969 -1.1838
 7155TIP3   OH242955   5.286   4.615  15.771  0.2931  0.1148 -0.0192
 7155TIP3    H142956   5.267   4.562  15.693  1.8041 -1.6941  0.7929
 7155TIP3    H242957   5.218   4.592  15.833  0.8783 -0.8118  0.2885
 7156TIP3   OH242958   5.889   1.767  12.331 -0.1156 -0.2003  0.1446
 7156TIP3    H142959   5.960   1.716  12.370  0.6201  0.1372 -0.7416
 7156TIP3    H242960   5.823   1.772  12.400  1.2545  0.5936  1.4382
 7157TIP3   OH242961   5.765   3.801   1.762 -0.1830 -0.4210 -0.5033
 7157TIP3    H142962   5.707   3.788   1.687 -0.3547 -0.6180 -0.3355
 7157TIP3    H242963   5.739   3.885   1.799 -1.5182 -1.3137  0.6136
 7158TIP3   OH242964   5.895   0.364  13.325 -0.1503 -0.3191 -0.1917
 7158TIP3    H142965   5.821   0.408  13.367  0.0920  0.5734 -0.6762
 7158TIP3    H242966   5.859   0.330  13.243  0.1717  0.8635 -0.8337
 7159TIP3   OH242967   3.972   0.291   0.778  0.2341 -0.0837 -0.3796
 7159TIP3    H142968   3.948   0.341   0.856 -2.0824  1.5214 -2.0485
 7159TIP3    H242969   3.911   0.218   0.777  0.5812 -0.3765 -0.4644
 7160TIP3   OH242970   5.906   4.530  13.464 -0.1482 -0.3506  0.4462
 7160TIP3    H142971   5.860   4.605  13.426  2.9241  1.6643  0.4957
 7160TIP3    H242972   5.949   4.488  13.390 -0.9234 -1.4348  0.5912
 7161TIP3   OH242973   0.417   4.785   4.711 -0.6112 -0.0575  0.3453
 7161TIP3    H142974   0.472   4.806   4.636 -0.9324 -2.3240 -0.5589
 7161TIP3    H242975   0.479   4.772   4.783 -0.2090  0.6744  0.1357
 7162TIP3   OH242976   0.443   6.277   3.467 -0.0624  0.0004  0.2100
 7162TIP3    H142977   0.510   6.211   3.481 -0.5255 -0.9553 -1.9560
 7162TIP3    H242978   0.366   6.228   3.439 -1.3185  1.2012  1.4161
 7163TIP3   OH242979   6.670   4.731  10.451  0.3358 -0.7417 -0.3639
 7163TIP3    H142980   6.645   4.814  10.411 -0.1550 -1.4432 -1.5144
 7163TIP3    H242981   6.634   4.735  10.540  0.0443  0.1484 -0.5222
 7164TIP3   OH242982   0.144   6.810  12.732  0.3596  0.2910  0.6402
 7164TIP3    H142983   0.092   6.736  12.761 -2.5095  1.4484 -1.2981
 7164TIP3    H242984   0.212   6.772  12.677 -0.6972 -0.9436  0.1812
 7165TIP3   OH242985   1.648   4.151   5.530 -0.0349 -0.2592  0.2376
 7165TIP3    H142986   1.739   4.175   5.544  0.4525 -0.9318 -1.6190
 7165TIP3    H242987   1.622   4.198   5.451 -1.4408  0.2590  0.9777
 7166TIP3   OH242988   1.148   4.010  16.985  0.4675 -0.4061 -0.2671
 7166TIP3    H142989   1.086   3.945  17.020 -0.6836  0.4094 -0.7608
 7166TIP3    H242990   1.209   4.025  17.057 -0.9475  0.0741  0.8521
 7167TIP3   OH242991   3.776   1.397  13.251 -0.0204  0.8727  0.1966
 7167TIP3    H142992   3.767   1.438  13.165  0.5128 -1.1349 -0.8434
 7167TIP3    H242993   3.691   1.410  13.293 -0.9805  0.0224 -1.4662
 7168TIP3   OH242994   1.023   0.921  12.248 -0.0198 -0.1186 -0.2205
 7168TIP3    H142995   1.067   0.986  12.193  2.2594 -1.9043 -0.5742
 7168TIP3    H242996   1.076   0.915  12.327 -2.6412  1.5784  1.7319
 7169TIP3   OH242997   6.521   4.485   5.652  0.4317  0.8141 -0.0106
 7169TIP3    H142998   6.488   4.395   5.645 -1.6990  1.3526  2.2699
 7169TIP3    H242999   6.540   4.496   5.745  0.4457  2.8135 -0.2350
 7170TIP3   OH243000   2.130   1.171   0.133  0.1777 -0.6617  0.2799
 7170TIP3    H143001   2.117   1.218   0.051 -0.7761  0.3650  0.9976
 7170TIP3    H243002   2.051   1.190   0.184  1.7735  0.6735  2.3510
 7171TIP3   OH243003   0.394   5.075  15.368  0.3522  0.2421  0.2400
 7171TIP3    H143004   0.394   5.080  15.464 -0.2718 -1.3357  0.3254
 7171TIP3    H243005   0.324   5.014  15.347  0.0621  1.0809 -1.2591
 7172TIP3   OH243006   0.905   0.100   0.865  0.2397 -0.4392  0.2529
 7172TIP3    H143007   0.972   0.059   0.920  0.0585 -1.8417 -0.5349
 7172TIP3    H243008   0.941   0.186   0.843  1.5169 -0.9293  0.3476
 7173TIP3   OH243009   6.499   0.702  11.139 -0.5466  0.5991 -0.0454
 7173TIP3    H143010   6.514   0.626  11.083  1.3433  1.3109 -0.5372
 7173TIP3    H243011   6.407   0.725  11.124 -0.7680 -0.7906 -0.8726
 7174TIP3   OH243012   1.892   3.134   4.240  0.0934  0.0946  0.1974
 7174TIP3    H143013   1.874   3.163   4.150 -2.7567 -2.4934 -0.1636
 7174TIP3    H243014   1.814   3.158   4.290 -1.3279 -4.4236  0.3960
 7175TIP3   OH243015   5.842   1.927  16.570 -0.2772 -0.4184  0.2768
 7175TIP3    H143016   5.938   1.925  16.574 -0.1732  0.7724 -1.1180
 7175TIP3    H243017   5.823   1.956  16.481 -1.9312 -0.0743  0.7302
 7176TIP3   OH243018   4.578   6.748   4.451  0.1778  0.1124 -0.1706
 7176TIP3    H143019   4.535   6.662   4.455 -1.4518  0.8862 -0.7374
 7176TIP3    H243020   4.641   6.746   4.523  0.2673 -1.6198 -0.2742
 7177TIP3   OH243021   6.746   6.027   0.395  0.0745  0.3800 -0.2164
 7177TIP3    H143022   6.749   6.037   0.491 -0.4741  0.3979 -0.2043
 7177TIP3    H243023   6.696   6.102   0.364 -0.9257 -0.3513 -0.4064
 7178TIP3   OH243024   5.230   3.066   4.507 -0.3628 -0.5794 -0.1252
 7178TIP3    H143025   5.193   3.006   4.572 -0.8561 -1.1059 -0.8833
 7178TIP3    H243026   5.219   3.153   4.546 -1.7758 -0.7830 -0.0364
 7179TIP3   OH243027   4.826   3.602  13.811  0.2186  0.8526  0.1911
 7179TIP3    H143028   4.734   3.589  13.833 -0.2239  1.5774 -1.1966
 7179TIP3    H243029   4.859   3.513  13.797 -0.0967  0.5464  1.3454
 7180TIP3   OH243030   2.022   0.444   1.194  0.2554 -0.0561 -0.1077
 7180TIP3    H143031   2.041   0.518   1.137 -3.7070  1.1274 -0.0484
 7180TIP3    H243032   2.047   0.474   1.281  1.1283  0.2203 -0.4492
 7181TIP3   OH243033   2.027   2.500  11.988 -0.6334  0.2071  1.0111
 7181TIP3    H143034   2.110   2.489  11.942 -1.4492 -0.8859 -0.2591
 7181TIP3    H243035   2.047   2.555  12.063  0.7741  2.0491 -0.6601
 7182TIP3   OH243036   4.271   3.152   1.853  0.2411 -0.5114  0.1248
 7182TIP3    H143037   4.304   3.146   1.943 -0.3390 -1.2617  0.3065
 7182TIP3    H243038   4.186   3.106   1.857 -0.1549  0.1565 -0.6259
 7183TIP3   OH243039   1.932   0.889   2.277 -0.4834 -0.3703  0.2180
 7183TIP3    H143040   1.927   0.903   2.372 -0.9223 -1.5467  0.3898
 7183TIP3    H243041   1.986   0.960   2.244 -0.0188 -0.1614  1.4121
 7184TIP3   OH243042   5.683   3.620  12.023  0.0687 -0.2067 -0.5385
 7184TIP3    H143043   5.669   3.535  12.066 -0.1552 -0.1578 -0.5119
 7184TIP3    H243044   5.648   3.608  11.935 -0.3593 -0.0119 -0.3991
 7185TIP3   OH243045   2.608   5.928   5.386 -0.0171 -0.0260 -0.3842
 7185TIP3    H143046   2.565   5.983   5.452 -0.2943 -0.6374 -0.0522
 7185TIP3    H243047   2.686   5.977   5.360 -0.1594  0.4287  0.0588
 7186TIP3   OH243048   0.219   2.629  13.570 -0.1404 -0.6417  0.0047
 7186TIP3    H143049   0.125   2.634  13.551 -0.4411 -4.3912  0.1682
 7186TIP3    H243050   0.225   2.645  13.664 -0.7251 -1.2088  0.1467
 7187TIP3   OH243051   4.394   1.750  12.296 -0.2648 -0.6033  0.1691
 7187TIP3    H143052   4.448   1.825  12.271  0.2014 -1.3476 -1.1188
 7187TIP3    H243053   4.445   1.705  12.364  0.8789 -1.4411 -1.2138
 7188TIP3   OH243054   6.674   5.168  15.966 -0.7108 -0.1892  0.2402
 7188TIP3    H143055   6.612   5.240  15.980  0.1214  0.8060 -1.1142
 7188TIP3    H243056   6.757   5.212  15.947  0.4027 -1.5066  1.9322
 7189TIP3   OH243057   0.221   1.725   6.176 -0.0549 -0.0876  0.6235
 7189TIP3    H143058   0.141   1.775   6.192 -1.8273 -2.6511  0.0032
 7189TIP3    H243059   0.218   1.653   6.239 -0.0895 -2.2489 -1.7469
 7190TIP3   OH243060   6.379   3.364  16.722  0.4659  0.5009  0.2610
 7190TIP3    H143061   6.342   3.284  16.760  0.4009  0.4205  0.0270
 7190TIP3    H243062   6.318   3.388  16.653  1.3526 -0.1837 -0.7869
 7191TIP3   OH243063   5.917   6.141  16.010  0.0954 -0.2142 -0.1743
 7191TIP3    H143064   5.944   6.059  16.051  0.2069  0.6218  1.4722
 7191TIP3    H243065   5.880   6.115  15.926  0.8428 -1.8789 -0.0070
 7192TIP3   OH243066   5.151   2.664  16.760 -0.3989 -0.7355  0.7360
 7192TIP3    H143067   5.094   2.718  16.704  0.2857 -1.5254 -0.7678
 7192TIP3    H243068   5.238   2.701  16.746 -0.1706 -1.1671  1.0262
 7193TIP3   OH243069   4.336   2.138  13.618  0.1363  0.3963 -0.1000
 7193TIP3    H143070   4.286   2.214  13.589 -0.5371 -0.1435 -0.3785
 7193TIP3    H243071   4.302   2.066  13.565  0.9361 -0.0497 -0.0051
 7194TIP3   OH243072   1.993   4.075   2.898  0.5342 -1.2829  0.0670
 7194TIP3    H143073   1.956   4.006   2.953  0.8154 -1.7154 -0.2842
 7194TIP3    H243074   2.086   4.079   2.922  0.0907  0.4663  1.6499
 7195TIP3   OH243075   3.532   4.273   6.411 -0.5014 -0.1733 -0.2200
 7195TIP3    H143076   3.469   4.242   6.475  1.0083  0.8648  1.8125
 7195TIP3    H243077   3.495   4.355   6.377 -0.3541  0.3126  0.7924
 7196TIP3   OH243078   5.137   1.746  16.492 -0.3739 -0.2019 -0.0943
 7196TIP3    H143079   5.146   1.665  16.542 -1.6634  0.2227  0.8639
 7196TIP3    H243080   5.216   1.796  16.512  0.9784 -1.6803 -1.5892
 7197TIP3   OH243081   3.784   0.629   4.385  0.2565  0.3887 -0.5768
 7197TIP3    H143082   3.708   0.629   4.443 -0.5949  0.8627 -1.6624
 7197TIP3    H243083   3.801   0.536   4.367  1.5420  0.1581  1.6970
 7198TIP3   OH243084   5.093   3.377   2.795 -0.3018 -0.5607 -0.7319
 7198TIP3    H143085   5.033   3.344   2.728  0.0147  0.1326 -1.3526
 7198TIP3    H243086   5.177   3.335   2.775  0.1237  0.6795 -1.5785
 7199TIP3   OH243087   2.757   5.560  11.306  0.1306  0.0822 -0.4524
 7199TIP3    H143088   2.833   5.559  11.248  0.2714  0.7586 -0.2744
 7199TIP3    H243089   2.790   5.593  11.389  0.2796 -2.4025  0.5213
 7200TIP3   OH243090   0.390   2.398  11.627  0.1961  0.1583 -0.1722
 7200TIP3    H143091   0.485   2.389  11.625  0.1785 -0.1407  0.1647
 7200TIP3    H243092   0.374   2.490  11.646  0.4294 -0.0436  1.0439
 7201TIP3   OH243093   2.486   5.219   4.712  0.7472 -0.3472 -0.8022
 7201TIP3    H143094   2.498   5.148   4.649 -0.4099  0.8900 -2.4633
 7201TIP3    H243095   2.551   5.285   4.688  2.2934 -1.1099  1.1682
 7202TIP3   OH243096   3.939   0.834   4.472  0.4759  0.2380  0.2601
 7202TIP3    H143097   3.888   0.753   4.470  2.0318 -0.7402 -0.0251
 7202TIP3    H243098   3.911   0.881   4.393  0.8352 -0.8096 -0.5020
 7203TIP3   OH243099   6.392   2.930   5.183 -0.5217  0.6792 -0.3059
 7203TIP3    H143100   6.448   2.932   5.261  1.6195 -0.3356 -1.7856
 7203TIP3    H243101   6.427   2.860   5.130 -1.9453  1.3900 -2.2321
 7204TIP3   OH243102   0.431   3.840   0.777 -0.1016 -0.1438  0.0515
 7204TIP3    H143103   0.398   3.754   0.805  0.6103 -0.0826  1.0729
 7204TIP3    H243104   0.497   3.863   0.842  1.6058 -0.0194 -1.6924
 7205TIP3   OH243105   4.944   4.599  15.658  0.5064  0.6073 -0.0815
 7205TIP3    H143106   4.940   4.551  15.740 -0.6199  1.4286  0.3545
 7205TIP3    H243107   5.038   4.610  15.641  0.7696 -1.6793 -0.1687
 7206TIP3   OH243108   0.620   2.878   4.919 -0.3801 -0.0171 -0.5039
 7206TIP3    H143109   0.642   2.882   5.012  0.7558  1.0272 -0.7917
 7206TIP3    H243110   0.642   2.789   4.893  0.5935  0.0818 -0.0641
 7207TIP3   OH243111   3.121   0.600  12.553 -0.2075 -1.2869  0.0243
 7207TIP3    H143112   3.141   0.693  12.537  1.7001 -1.6405  0.3354
 7207TIP3    H243113   3.077   0.600  12.638  0.8623 -0.8076  0.5792
 7208TIP3   OH243114   4.279   4.708  16.068  0.2966 -0.0389  0.0793
 7208TIP3    H143115   4.320   4.656  16.138 -1.6567 -1.4544  0.2305
 7208TIP3    H243116   4.352   4.745  16.020  1.7277 -1.1004  1.3614
 7209TIP3   OH243117   6.098   1.828  13.487  0.9875  0.1659 -0.5759
 7209TIP3    H143118   6.011   1.863  13.468  1.2594  1.3638  0.3341
 7209TIP3    H243119   6.106   1.751  13.430 -1.3473 -0.9746  0.5567
 7210TIP3   OH243120   0.061   1.005   1.516 -0.5286 -0.4223  0.9143
 7210TIP3    H143121   0.130   1.054   1.471 -1.4373 -1.5468 -1.8608
 7210TIP3    H243122   0.084   0.913   1.502 -3.0599 -0.8269 -0.9313
 7211TIP3   OH243123   0.317   5.301  16.001 -0.2012 -0.7858  0.4749
 7211TIP3    H143124   0.322   5.364  16.073  0.5072 -1.1531  0.7524
 7211TIP3    H243125   0.239   5.327  15.952  1.0264  1.3766 -0.4006
 7212TIP3   OH243126   6.376   5.980   0.513  0.1315 -0.1516 -0.9275
 7212TIP3    H143127   6.363   5.886   0.501 -0.5201 -0.2176  0.2460
 7212TIP3    H243128   6.292   6.012   0.548  0.9331  0.5474  0.4122
 7213TIP3   OH243129   6.292   5.515   1.203 -0.2113  0.1310 -0.5497
 7213TIP3    H143130   6.271   5.515   1.296 -0.8478 -1.5304 -0.6849
 7213TIP3    H243131   6.312   5.607   1.183 -1.7946  0.7982  0.8254
 7214TIP3   OH243132   2.305   3.222   4.926  0.2814  0.2296 -0.0116
 7214TIP3    H143133   2.288   3.152   4.988  0.1932  0.4309  0.1929
 7214TIP3    H243134   2.218   3.247   4.894  0.3179  0.2019 -0.1331
 7215TIP3   OH243135   6.241   2.098  12.521  0.3450  0.4118  0.3779
 7215TIP3    H143136   6.300   2.156  12.568  1.0571 -0.5229  0.6585
 7215TIP3    H243137   6.177   2.156  12.480  2.7662  1.6220 -1.8079
 7216TIP3   OH243138   6.578   1.882  15.540 -0.1737 -0.5001  0.2010
 7216TIP3    H143139   6.632   1.803  15.533  0.6619  0.1429 -0.9119
 7216TIP3    H243140   6.491   1.855  15.508  0.0541 -1.0267  0.0211
 7217TIP3   OH243141   1.387   1.707  15.837 -0.4162 -0.3871  0.4346
 7217TIP3    H143142   1.461   1.712  15.777 -2.5081  0.9180 -2.1120
 7217TIP3    H243143   1.408   1.770  15.906 -0.0429  1.4933 -1.3336
 7218TIP3   OH243144   4.263   5.790  10.906  0.1058  0.3577 -0.7632
 7218TIP3    H143145   4.284   5.882  10.889  1.3311  0.6286  1.9206
 7218TIP3    H243146   4.345   5.743  10.892 -0.2837 -0.1824 -1.2213
 7219TIP3   OH243147   4.687   6.489  13.161 -0.0254  0.5959 -0.8905
 7219TIP3    H143148   4.602   6.484  13.204  1.3053 -0.6412  1.7446
 7219TIP3    H243149   4.720   6.576  13.181  0.9797 -0.2833  1.5015
 7220TIP3   OH243150   1.398   6.815   1.336  0.1166 -0.3841 -0.6339
 7220TIP3    H143151   1.410   6.904   1.303  0.3111 -0.7008 -1.4387
 7220TIP3    H243152   1.381   6.825   1.429  0.2180  0.4913 -0.7119
 7221TIP3   OH243153   3.235   2.218  12.262  0.2146  0.0308  0.7892
 7221TIP3    H143154   3.176   2.177  12.199 -0.3393  1.0748  0.6290
 7221TIP3    H243155   3.196   2.303  12.280  1.0571  0.2593  1.5664
 7222TIP3   OH243156   0.911   3.582  10.674 -0.2303  0.3929  0.1192
 7222TIP3    H143157   0.916   3.487  10.678  2.9962  0.4473 -1.2158
 7222TIP3    H243158   0.994   3.612  10.710 -0.3658  2.6642 -1.3486
 7223TIP3   OH243159   2.361   0.380   5.879  0.2488  0.2983  0.0902
 7223TIP3    H143160   2.410   0.433   5.942  2.6352 -0.3442 -1.1652
 7223TIP3    H243161   2.426   0.319   5.843 -1.6192 -0.9955 -1.1787
 7224TIP3   OH243162   6.071   4.888   0.081 -0.0032  0.2739 -0.5006
 7224TIP3    H143163   6.135   4.839   0.132  0.5346  2.9310  1.4893
 7224TIP3    H243164   6.100   4.979   0.088 -3.5697  1.4635 -0.1186
 7225TIP3   OH243165   0.732   5.685   1.206 -0.2398 -0.4586  0.2303
 7225TIP3    H143166   0.707   5.669   1.297 -0.5899 -0.0439  0.2127
 7225TIP3    H243167   0.649   5.703   1.161 -0.0046  0.0260 -0.0215
 7226TIP3   OH243168   3.914   5.350   5.917  0.0875 -0.0693 -0.2689
 7226TIP3    H143169   3.839   5.397   5.953  1.3379  2.6955 -1.1250
 7226TIP3    H243170   3.983   5.416   5.912  2.7374 -2.6490  0.9176
 7227TIP3   OH243171   3.969   0.927   4.890  0.0690  0.7093 -0.4427
 7227TIP3    H143172   3.893   0.876   4.862  1.4039 -1.7554  0.3218
 7227TIP3    H243173   3.972   0.918   4.985  1.9252 -0.1326 -0.5531
 7228TIP3   OH243174   5.906   0.519   0.172 -0.0544 -0.0932 -0.5687
 7228TIP3    H143175   5.838   0.502   0.237 -0.1251 -0.9894 -0.8681
 7228TIP3    H243176   5.858   0.530   0.090  0.1486 -0.5992 -0.7567
 7229TIP3   OH243177   4.396   3.989  15.559  0.0505 -0.1227 -0.6657
 7229TIP3    H143178   4.398   4.030  15.645  0.4505  0.4798 -0.9584
 7229TIP3    H243179   4.317   4.023  15.517 -0.2702 -0.5985 -0.4484
 7230TIP3   OH243180   2.308   1.433   6.195  0.0906  0.5370 -0.5903
 7230TIP3    H143181   2.313   1.452   6.289 -0.7373 -1.9464  0.0112
 7230TIP3    H243182   2.387   1.382   6.177 -0.3639 -0.0512 -0.9455
 7231TIP3   OH243183   2.978   4.979  14.493 -0.5833 -0.7224  0.6739
 7231TIP3    H143184   3.026   4.915  14.441 -0.7515 -0.0666 -0.2963
 7231TIP3    H243185   2.926   4.926  14.555  1.4930 -1.4368  1.8594
 7232TIP3   OH243186   0.582   2.841   2.819  0.4093 -0.4922 -0.2320
 7232TIP3    H143187   0.648   2.846   2.750  0.9755 -0.4197  0.3151
 7232TIP3    H243188   0.625   2.876   2.897 -0.6541  0.6886 -0.1570
 7233TIP3   OH243189   5.501   2.926   5.915  0.0017 -0.3310  0.2772
 7233TIP3    H143190   5.567   2.958   5.853  0.3514 -0.5500  0.5369
 7233TIP3    H243191   5.494   2.832   5.896  0.1759 -0.4160  0.6313
 7234TIP3   OH243192   6.646   3.148  14.043  0.1236  0.2254 -0.0643
 7234TIP3    H143193   6.603   3.231  14.021  0.3189  0.0683 -1.0854
 7234TIP3    H243194   6.581   3.082  14.019 -0.4216  0.1083  1.6773
 7235TIP3   OH243195   0.299   5.245  16.904 -0.4520 -0.1727 -0.2852
 7235TIP3    H143196   0.348   5.187  16.845 -1.1172  1.4648 -2.4806
 7235TIP3    H243197   0.209   5.213  16.899 -0.2222 -1.1018  1.1993
 7236TIP3   OH243198   1.626   0.998   5.926 -0.9882  0.5708  0.2373
 7236TIP3    H143199   1.611   0.986   6.020 -3.4215  0.5968 -0.1067
 7236TIP3    H243200   1.718   0.974   5.913 -1.0395 -0.9559  2.3782
 7237TIP3   OH243201   0.994   5.927  10.737  0.3063 -0.0539 -0.1855
 7237TIP3    H143202   1.077   5.895  10.773  1.1801  1.9879 -0.3503
 7237TIP3    H243203   1.015   5.953  10.648 -0.8767 -0.9655 -0.7371
 7238TIP3   OH243204   4.821   6.089   2.233  0.2509  0.0783  0.2937
 7238TIP3    H143205   4.804   6.182   2.217  1.4519  0.4635  1.1854
 7238TIP3    H243206   4.800   6.076   2.326 -0.7949 -0.7516 -0.0524
 7239TIP3   OH243207   3.108   0.607  12.244 -0.1989 -0.0653 -0.3328
 7239TIP3    H143208   3.163   0.683  12.264 -1.4316  0.0117  3.1285
 7239TIP3    H243209   3.163   0.531  12.264 -0.6434  0.0016  1.2506
 7240TIP3   OH243210   4.499   1.864   1.760 -0.4268 -0.2932 -0.1123
 7240TIP3    H143211   4.462   1.938   1.808  0.7649 -0.2422  0.7742
 7240TIP3    H243212   4.581   1.898   1.724 -0.2772 -0.9441 -0.3863
 7241TIP3   OH243213   5.862   5.506   5.658 -0.1456  0.3709 -0.7452
 7241TIP3    H143214   5.873   5.415   5.629 -2.5469  0.0842 -0.9043
 7241TIP3    H243215   5.777   5.531   5.623 -1.0929  1.5213  2.2515
 7242TIP3   OH243216   2.283   4.081  13.822  0.2607 -0.2670  0.2785
 7242TIP3    H143217   2.337   4.078  13.901  0.5769  0.1434  0.0777
 7242TIP3    H243218   2.258   4.173  13.814 -0.9275 -0.5496  0.6807
 7243TIP3   OH243219   1.720   1.839  16.038 -0.5341  0.3849  0.0235
 7243TIP3    H143220   1.815   1.833  16.027 -0.6786 -0.4252 -0.9086
 7243TIP3    H243221   1.693   1.905  15.975 -0.7368 -0.3436 -0.6617
 7244TIP3   OH243222   1.452   1.641   1.046 -0.6108 -0.3159 -0.6612
 7244TIP3    H143223   1.405   1.643   0.962  0.2065  0.0915 -1.1138
 7244TIP3    H243224   1.412   1.711   1.097 -0.5453 -0.0114 -1.0216
 7245TIP3   OH243225   6.534   2.600   2.189  0.3148 -0.5058 -0.1822
 7245TIP3    H143226   6.504   2.525   2.139 -2.7211 -0.7076  1.7831
 7245TIP3    H243227   6.526   2.573   2.281  4.7707  0.1843  0.5572
 7246TIP3   OH243228   2.590   5.397   3.601 -0.4917  0.1864 -0.0368
 7246TIP3    H143229   2.535   5.459   3.648  0.0283  0.5475  0.1011
 7246TIP3    H243230   2.656   5.451   3.558  0.5326 -0.3283  0.8457
 7247TIP3   OH243231   2.800   3.593  15.832 -0.0687 -0.1188  0.0119
 7247TIP3    H143232   2.719   3.552  15.863  0.5989  0.4661  2.6749
 7247TIP3    H243233   2.775   3.683  15.811 -0.5353 -0.5323 -1.2818
 7248TIP3   OH243234   1.466   3.178  11.900  0.0437  0.2418 -0.6609
 7248TIP3    H143235   1.440   3.134  11.819  1.2418  0.1490 -1.0072
 7248TIP3    H243236   1.461   3.110  11.967 -0.2741  0.1427 -0.7846
 7249TIP3   OH243237   3.348   0.578   3.903  0.0979  0.1150 -0.2735
 7249TIP3    H143238   3.352   0.501   3.959 -1.2149  0.6359  0.5714
 7249TIP3    H243239   3.330   0.544   3.815  1.5930 -0.6673 -0.2871
 7250TIP3   OH243240   5.847   3.323   4.000  0.4498  0.4906 -0.2707
 7250TIP3    H143241   5.801   3.406   3.987 -0.1339  0.5109  1.7456
 7250TIP3    H243242   5.800   3.281   4.072  0.8062 -1.5508 -1.2093
 7251TIP3   OH243243   1.324   5.372  10.775 -0.7547  0.5266  0.3950
 7251TIP3    H143244   1.387   5.321  10.724 -1.0845 -0.5607  1.0791
 7251TIP3    H243245   1.321   5.457  10.730  0.4047  0.2316 -0.2590
 7252TIP3   OH243246   2.658   2.655   0.931  0.3043  0.1721 -0.3458
 7252TIP3    H143247   2.723   2.616   0.990  0.5679  2.6295  1.0491
 7252TIP3    H243248   2.586   2.680   0.988 -1.0646 -0.7874 -1.6269
 7253TIP3   OH243249   5.252   0.199  13.593  0.3423  0.0286  0.8287
 7253TIP3    H143250   5.274   0.146  13.669 -0.9610 -1.5195  0.1499
 7253TIP3    H243251   5.265   0.141  13.518  1.7369  1.5679 -0.1725
 7254TIP3   OH243252   0.915   2.139   5.189 -0.4051 -0.0196  0.3828
 7254TIP3    H143253   0.862   2.086   5.130 -2.0556  0.2905  1.5407
 7254TIP3    H243254   1.003   2.102   5.183 -0.3990  0.3416 -2.6583
 7255TIP3   OH243255   0.141   2.446   4.331 -0.0882  0.2231 -0.1439
 7255TIP3    H143256   0.085   2.521   4.310  0.7554  0.4772 -1.5129
 7255TIP3    H243257   0.223   2.485   4.362  0.1572 -0.1433 -0.3286
 7256TIP3   OH243258   2.080   3.392  13.611 -0.9097 -0.1280  0.2870
 7256TIP3    H143259   1.998   3.432  13.580  0.1511  0.8361 -1.3509
 7256TIP3    H243260   2.144   3.413  13.543  0.5432 -1.4961  1.2003
 7257TIP3   OH243261   0.217   1.710  12.734  0.4629 -0.2917  0.2493
 7257TIP3    H143262   0.132   1.708  12.778 -0.2770  1.0854 -1.0886
 7257TIP3    H243263   0.269   1.773  12.784 -0.1020  0.6597 -0.3672
 7258TIP3   OH243264   3.914   1.162   4.725 -0.1168  0.3613 -0.5402
 7258TIP3    H143265   3.833   1.185   4.770 -0.4508 -0.2954 -0.8070
 7258TIP3    H243266   3.944   1.082   4.769 -0.1390  0.0399 -1.1046
 7259TIP3   OH243267   0.145   3.620   2.179 -0.7914 -0.6336  0.2340
 7259TIP3    H143268   0.211   3.609   2.111  0.1391 -1.3701  1.2203
 7259TIP3    H243269   0.146   3.713   2.200  1.5619 -0.9769  1.8043
 7260TIP3   OH243270   0.785   5.324  16.721 -0.1187 -0.3734  0.1943
 7260TIP3    H143271   0.844   5.287  16.786  0.7493  0.8168  0.1078
 7260TIP3    H243272   0.697   5.299  16.750  0.3217 -0.5852  1.3321
 7261TIP3   OH243273   0.688   3.428  13.739 -0.4423 -0.1261 -0.2372
 7261TIP3    H143274   0.598   3.412  13.709  0.2337 -3.3330 -0.7465
 7261TIP3    H243275   0.679   3.445  13.833 -1.5801 -0.4980 -0.2713
 7262TIP3   OH243276   4.393   4.368   4.654  0.1453  0.3113 -0.7519
 7262TIP3    H143277   4.419   4.279   4.679 -0.6398 -0.2205 -1.8206
 7262TIP3    H243278   4.342   4.400   4.729 -0.7496 -0.6494 -0.9435
 7263TIP3   OH243279   3.362   1.681  15.356 -0.4406 -0.0678  0.2549
 7263TIP3    H143280   3.394   1.646  15.440 -0.6608  0.5309  0.5912
 7263TIP3    H243281   3.266   1.677  15.364 -0.4605 -1.2473 -0.4910
 7264TIP3   OH243282   5.305   3.561  12.654  0.1444 -0.1913 -0.1485
 7264TIP3    H143283   5.397   3.548  12.677  0.6905 -1.4444 -2.7607
 7264TIP3    H243284   5.282   3.645  12.693  1.5765 -1.1102  2.8399
 7265TIP3   OH243285   0.950   0.049   0.362  0.2229  0.1370 -0.1259
 7265TIP3    H143286   0.980   0.088   0.444  0.7392  0.2695 -0.3693
 7265TIP3    H243287   1.028   0.004   0.328 -0.1143 -0.3021 -0.3137
 7266TIP3   OH243288   1.856   4.792  16.548 -0.6778  0.5607  0.0962
 7266TIP3    H143289   1.822   4.861  16.492  0.3232  1.9879  1.1951
 7266TIP3    H243290   1.950   4.788  16.528 -0.8705 -1.1374 -0.6211
 7267TIP3   OH243291   1.464   2.779   0.680  0.3527 -0.5775 -0.0361
 7267TIP3    H143292   1.429   2.818   0.601  0.5275 -0.0821  0.1286
 7267TIP3    H243293   1.527   2.714   0.649 -0.6475 -1.4210 -0.3264
 7268TIP3   OH243294   4.272   0.070   4.164  0.9212 -0.0099  0.6705
 7268TIP3    H143295   4.336   0.114   4.108 -0.3845 -0.4309 -1.2051
 7268TIP3    H243296   4.312   0.071   4.251  2.7640  1.1338 -0.1478
 7269TIP3   OH243297   2.566   0.824   1.342  0.0348  0.1190  0.0808
 7269TIP3    H143298   2.581   0.760   1.272 -1.3466  0.3773 -0.4543
 7269TIP3    H243299   2.647   0.821   1.394  0.0766 -1.9214 -0.0377
 7270TIP3   OH243300   0.142   4.218  12.499  0.1028  0.6486 -0.1526
 7270TIP3    H143301   0.129   4.195  12.591 -4.0108  1.4175 -0.4275
 7270TIP3    H243302   0.124   4.312  12.495  0.0912  0.6021 -1.7315
 7271TIP3   OH243303   4.972   0.864   1.943  0.2383  0.1173 -0.4201
 7271TIP3    H143304   4.974   0.955   1.915 -0.0908  0.5922  1.0833
 7271TIP3    H243305   5.030   0.819   1.881  0.3092  1.3094 -1.2421
 7272TIP3   OH243306   2.334   4.694   6.426 -0.2385 -0.4812 -0.3747
 7272TIP3    H143307   2.248   4.659   6.404 -0.2322 -1.4112  1.0334
 7272TIP3    H243308   2.345   4.676   6.519  1.0004  0.6678 -0.2782
 7273TIP3   OH243309   4.233   2.547  14.693  0.0282  0.0799 -0.3587
 7273TIP3    H143310   4.145   2.581  14.709  0.6761  1.8092 -0.3170
 7273TIP3    H243311   4.238   2.536  14.598  0.8705  3.2300 -0.7343
 7274TIP3   OH243312   5.982   5.364   4.447 -0.3088 -0.4769  0.1865
 7274TIP3    H143313   5.890   5.372   4.420  0.1985 -0.6798 -1.6944
 7274TIP3    H243314   6.031   5.368   4.365  1.3534 -0.6270  1.1549
 7275TIP3   OH243315   1.048   2.606   1.215 -0.1018  0.1091 -0.5414
 7275TIP3    H143316   0.979   2.574   1.274 -0.5150 -2.7759 -2.4360
 7275TIP3    H243317   1.097   2.527   1.191  2.2254  1.7416 -1.3023
 7276TIP3   OH243318   4.652   1.112  11.825 -0.3901 -0.6624 -0.4403
 7276TIP3    H143319   4.638   1.060  11.904  0.7232 -1.8637 -1.0132
 7276TIP3    H243320   4.648   1.203  11.855  0.8814 -1.1029  1.1549
 7277TIP3   OH243321   4.860   4.477   4.053 -0.2941  0.3790  0.2431
 7277TIP3    H143322   4.797   4.480   4.124  0.8533 -1.7968  1.4030
 7277TIP3    H243323   4.829   4.407   3.995  0.8533 -0.4827  0.6501
 7278TIP3   OH243324   2.154   6.169  12.286 -0.1530  0.0043 -0.3961
 7278TIP3    H143325   2.127   6.223  12.212 -2.6511 -0.4345  0.1423
 7278TIP3    H243326   2.142   6.079  12.256  2.2139 -0.2643 -0.6438
 7279TIP3   OH243327   2.455   5.863  10.809 -0.0628 -0.1091 -0.4675
 7279TIP3    H143328   2.447   5.955  10.834 -0.9445 -0.6990  1.4844
 7279TIP3    H243329   2.487   5.866  10.718  3.6854  2.1131  0.8067
 7280TIP3   OH243330   3.727   5.683  16.094  0.0169 -0.2507  0.1450
 7280TIP3    H143331   3.750   5.728  16.013  1.3293  0.1784  0.7472
 7280TIP3    H243332   3.675   5.746  16.143  1.2613  0.3747  0.6820
 7281TIP3   OH243333   6.558   1.972  16.553  0.0748 -0.2708  0.4613
 7281TIP3    H143334   6.615   1.913  16.503 -0.5112  0.2009 -0.7900
 7281TIP3    H243335   6.577   1.952  16.645  1.1385 -1.1885  0.0526
 7282TIP3   OH243336   3.395   2.739  11.021 -0.8042  0.2137  0.2768
 7282TIP3    H143337   3.478   2.781  11.000 -2.5955  2.3401 -2.9458
 7282TIP3    H243338   3.402   2.651  10.983  0.4999 -0.1803  1.3760
 7283TIP3   OH243339   0.113   0.583  16.962 -0.0573  0.1777 -0.0387
 7283TIP3    H143340   0.092   0.655  17.021  0.2676  0.6400 -0.4886
 7283TIP3    H243341   0.051   0.514  16.985  0.6680  0.0213  1.4705
 7284TIP3   OH243342   5.195   0.929   0.971  0.1301  0.4840 -0.4431
 7284TIP3    H143343   5.168   0.876   1.046  0.2256  0.4819 -0.4107
 7284TIP3    H243344   5.151   1.013   0.985  0.5456  0.6509 -0.1227
 7285TIP3   OH243345   0.451   2.109   0.067 -0.0915  0.0692 -0.4617
 7285TIP3    H143346   0.440   2.182   0.006  0.9440 -0.0460 -0.7953
 7285TIP3    H243347   0.483   2.037   0.013  1.7893  0.2600  0.3797
 7286TIP3   OH243348   6.613   6.571   4.860  0.0639 -0.5175 -0.1118
 7286TIP3    H143349   6.555   6.570   4.936 -0.2012 -2.5074 -0.3086
 7286TIP3    H243350   6.685   6.629   4.885 -1.4694  1.1322  0.5354
 7287TIP3   OH243351   0.728   0.595  10.951  0.1490  0.0441  0.5891
 7287TIP3    H143352   0.755   0.538  10.879 -1.2217 -0.1708  0.2309
 7287TIP3    H243353   0.633   0.598  10.945 -0.0102 -0.2332  2.5999
 7288TIP3   OH243354   1.871   4.353   6.824 -0.1735  0.2786  0.2919
 7288TIP3    H143355   1.834   4.268   6.802  0.2343 -0.4148  2.1893
 7288TIP3    H243356   1.832   4.413   6.761 -0.9383 -1.2088 -0.6771
 7289TIP3   OH243357   6.750   4.321   4.125  0.0160 -0.4363 -0.1349
 7289TIP3    H143358   6.767   4.293   4.035 -0.3268  0.3372 -0.4481
 7289TIP3    H243359   6.704   4.405   4.115 -1.8595 -1.3396  0.7053
 7290TIP3   OH243360   2.376   0.635  11.362 -0.0068  0.8816 -0.0173
 7290TIP3    H143361   2.373   0.547  11.398 -1.1409 -0.3646 -2.9656
 7290TIP3    H243362   2.290   0.673  11.382 -0.6320  0.1946 -1.3365
 7291TIP3   OH243363   4.174   0.932   4.565 -0.2903 -0.0374 -0.0322
 7291TIP3    H143364   4.092   0.885   4.552  0.7975 -2.3792  1.1630
 7291TIP3    H243365   4.215   0.888   4.640  1.5144  1.8249  0.1162
 7292TIP3   OH243366   4.011   6.073   4.762  0.3575  0.3925  0.3152
 7292TIP3    H143367   4.076   6.064   4.831  1.0769 -0.3700 -0.4588
 7292TIP3    H243368   3.958   6.148   4.789  2.6280  2.1232  0.0688
 7293TIP3   OH243369   4.485   6.719   0.686  0.6849 -0.2139  0.0864
 7293TIP3    H143370   4.441   6.696   0.605  1.3989  0.1271 -0.4112
 7293TIP3    H243371   4.496   6.636   0.732 -1.0950 -0.2122  0.5540
 7294TIP3   OH243372   6.268   5.117  13.956  0.1543  0.7835 -0.0303
 7294TIP3    H143373   6.276   5.171  14.035 -0.7804  0.4203  0.3319
 7294TIP3    H243374   6.211   5.168  13.898 -0.2946  0.4251  0.0957
 7295TIP3   OH243375   4.935   2.963   1.822 -0.0378 -0.0037 -0.3359
 7295TIP3    H143376   4.960   3.046   1.863 -0.8808 -1.2783  2.9077
 7295TIP3    H243377   4.856   2.984   1.772  1.4776  1.7691 -2.0284
 7296TIP3   OH243378   2.856   3.309  11.633 -0.1107 -0.0410 -0.4335
 7296TIP3    H143379   2.792   3.238  11.632  1.3359 -1.3880  0.7427
 7296TIP3    H243380   2.806   3.387  11.656 -1.5196 -0.8779 -0.6313
 7297TIP3   OH243381   4.420   0.720   5.688 -0.2400 -0.0736  0.6787
 7297TIP3    H143382   4.384   0.737   5.775  1.4546 -1.4793  1.6961
 7297TIP3    H243383   4.398   0.629   5.670  0.7328 -0.2508  0.3188
 7298TIP3   OH243384   0.116   2.382  12.790  0.4247 -0.1111 -0.1754
 7298TIP3    H143385   0.096   2.340  12.706 -0.1170  0.1794 -0.1973
 7298TIP3    H243386   0.074   2.327  12.855 -0.0486  0.2443 -0.1809
 7299TIP3   OH243387   2.703   3.481   0.912  0.7637  0.0694  0.3760
 7299TIP3    H143388   2.741   3.434   0.838  1.7511 -1.8450  2.0488
 7299TIP3    H243389   2.672   3.412   0.971 -1.6470  1.5795  0.9389
 7300TIP3   OH243390   3.677   1.456  12.087 -0.2424  0.0473 -0.4485
 7300TIP3    H143391   3.759   1.474  12.132 -0.5449  0.9554 -0.2449
 7300TIP3    H243392   3.701   1.451  11.995  0.1745 -0.5306 -0.3096
 7301TIP3   OH243393   0.163   5.989  11.323  0.3692  0.2614  0.0574
 7301TIP3    H143394   0.085   5.963  11.274  1.6820 -2.8423 -0.5539
 7301TIP3    H243395   0.211   6.046  11.263 -0.9028  1.3367  0.0429
 7302TIP3   OH243396   4.463   5.458   3.797 -0.9863 -0.1588  0.6664
 7302TIP3    H143397   4.545   5.473   3.752 -0.4495 -0.9244  1.3878
 7302TIP3    H243398   4.439   5.368   3.777 -2.8049  0.7164 -1.3697
 7303TIP3   OH243399   1.418   1.620  15.396  0.0492  0.2898 -0.0420
 7303TIP3    H143400   1.428   1.527  15.375 -0.7949  0.6982 -2.3901
 7303TIP3    H243401   1.337   1.625  15.448  0.4186 -0.3376  0.6038
 7304TIP3   OH243402   1.006   1.449  13.531 -0.1856 -0.0512  0.3142
 7304TIP3    H143403   1.094   1.410  13.528 -1.0482 -2.1077  1.0410
 7304TIP3    H243404   0.999   1.485  13.619  0.9511  2.6174 -0.6506
 7305TIP3   OH243405   6.084   5.211  16.104  0.4584  0.6171 -0.2808
 7305TIP3    H143406   6.060   5.175  16.190 -0.1704 -0.4870 -0.9160
 7305TIP3    H243407   6.180   5.213  16.105  0.4419  1.2739  0.7140
 7306TIP3   OH243408   5.029   2.192  16.641  0.5198 -0.3313 -0.1185
 7306TIP3    H143409   4.958   2.199  16.705  0.4875  1.0793 -0.2926
 7306TIP3    H243410   5.077   2.275  16.649  1.2246 -0.6321 -1.0916
 7307TIP3   OH243411   0.098   5.238  12.998  0.0753 -0.0812 -0.0533
 7307TIP3    H143412   0.085   5.282  13.082 -0.4528 -0.1709 -0.0832
 7307TIP3    H243413   0.168   5.175  13.014  2.1877  2.0576 -0.4944
 7308TIP3   OH243414   5.576   2.420  12.294  0.3310 -0.1659 -0.2203
 7308TIP3    H143415   5.606   2.349  12.238  1.1330  0.6356 -0.8192
 7308TIP3    H243416   5.514   2.469  12.240  3.7852  2.7297 -1.7499
 7309TIP3   OH243417   1.366   1.282   2.268 -0.0576  0.1378 -0.4544
 7309TIP3    H143418   1.319   1.316   2.344  0.2973  1.5132 -0.8207
 7309TIP3    H243419   1.299   1.239   2.215 -0.7224  1.1455 -0.4514
 7310TIP3   OH243420   0.846   5.870  12.147 -0.3051 -0.2941 -0.3351
 7310TIP3    H143421   0.881   5.928  12.214  0.1369 -1.1532  0.1707
 7310TIP3    H243422   0.752   5.867  12.165  0.0153 -1.7670  1.2189
 7311TIP3   OH243423   2.119   4.939   2.673  0.1324 -0.2201  0.1188
 7311TIP3    H143424   2.108   5.008   2.608  0.3409 -0.3079 -0.0098
 7311TIP3    H243425   2.141   4.986   2.754 -0.1015 -0.1134  0.1203
 7312TIP3   OH243426   2.401   5.547   3.747 -0.6952 -1.2469  0.3429
 7312TIP3    H143427   2.449   5.572   3.826 -1.5270  0.1497  0.4205
 7312TIP3    H243428   2.369   5.630   3.711  1.5887 -1.5706 -2.7279
 7313TIP3   OH243429   5.358   2.642  15.407 -0.1344 -0.1057 -0.5825
 7313TIP3    H143430   5.270   2.639  15.446  0.9914 -0.1282  2.0202
 7313TIP3    H243431   5.356   2.719  15.350 -1.8974 -0.2446 -0.7473
 7314TIP3   OH243432   6.320   4.361  14.269 -0.2906 -0.0726 -0.0731
 7314TIP3    H143433   6.377   4.379  14.344 -2.3594  2.9656  0.8912
 7314TIP3    H243434   6.371   4.388  14.193  0.4027  0.4801  0.5741
 7315TIP3   OH243435   2.278   3.865  15.725  0.3189 -0.2397  0.3687
 7315TIP3    H143436   2.349   3.877  15.789  1.1092 -2.0602 -0.1375
 7315TIP3    H243437   2.280   3.945  15.673  2.7498 -0.7085 -0.3223
 7316TIP3   OH243438   2.715   0.640  12.140  0.0225  0.2633  0.4178
 7316TIP3    H143439   2.641   0.701  12.130 -0.2893  0.0651  1.4960
 7316TIP3    H243440   2.745   0.653  12.230  0.2539 -0.8462  0.5031
 7317TIP3   OH243441   1.138   3.669   0.799 -0.2255 -0.1537  0.2229
 7317TIP3    H143442   1.178   3.655   0.713 -0.4310 -1.5079  0.3303
 7317TIP3    H243443   1.059   3.615   0.798 -0.1500 -0.2979  1.3090
 7318TIP3   OH243444   4.561   6.053   6.400  0.6188 -0.2126  0.0099
 7318TIP3    H143445   4.653   6.035   6.381  0.9375 -1.0200  2.1184
 7318TIP3    H243446   4.545   6.141   6.364  2.5976  0.4902  0.7882
 7319TIP3   OH243447   3.748   2.739   0.331 -0.8629  0.5356  0.7227
 7319TIP3    H143448   3.662   2.710   0.301 -0.6151  0.0898  0.4438
 7319TIP3    H243449   3.730   2.784   0.413 -1.5268  1.6085  0.0023
 7320TIP3   OH243450   1.014   6.653   5.498  0.3168  0.4718  0.0246
 7320TIP3    H143451   1.073   6.625   5.568 -0.5839  0.5435  0.8216
 7320TIP3    H243452   1.037   6.597   5.424 -0.0095 -0.9425  0.9572
 7321TIP3   OH243453   6.655   5.574  13.959 -0.1241  0.8137  0.2375
 7321TIP3    H143454   6.563   5.574  13.934  0.1653  0.7732 -0.8737
 7321TIP3    H243455   6.656   5.604  14.050 -1.3433 -0.4975  0.6899
 7322TIP3   OH243456   3.743   5.359  14.442  0.1156 -0.4678  0.1783
 7322TIP3    H143457   3.694   5.366  14.523 -2.0348 -1.5031 -0.9790
 7322TIP3    H243458   3.808   5.429  14.446 -2.3797  1.8579  1.1404
 7323TIP3   OH243459   5.844   0.706   4.106  0.7514 -0.2691  0.5867
 7323TIP3    H143460   5.807   0.657   4.032  0.5548  1.4454 -0.4943
 7323TIP3    H243461   5.931   0.669   4.118  1.0533 -0.1138 -0.9675
 7324TIP3   OH243462   2.793   3.608   3.938 -0.1345  0.3008  0.1787
 7324TIP3    H143463   2.789   3.520   3.974 -1.9535  0.5768  0.6569
 7324TIP3    H243464   2.728   3.658   3.987  0.0676  1.6292 -0.8645
 7325TIP3   OH243465   5.186   0.336   4.173 -0.4783  0.1100  0.2183
 7325TIP3    H143466   5.226   0.419   4.147  1.5597 -0.8933  0.0867
 7325TIP3    H243467   5.224   0.272   4.113 -0.0470 -1.3278  2.0159
 7326TIP3   OH243468   0.903   4.033   6.926 -0.3950 -0.0146  0.5139
 7326TIP3    H143469   0.903   4.111   6.871 -1.8519 -1.2882 -1.3664
 7326TIP3    H243470   0.812   4.022   6.952 -0.1621 -0.9720  0.9494
 7327TIP3   OH243471   1.062   4.589   0.598  0.4174  0.3826  0.1512
 7327TIP3    H143472   1.053   4.499   0.568 -0.5094  0.8008 -0.9140
 7327TIP3    H243473   1.017   4.591   0.682  1.7829 -0.4870  0.9123
 7328TIP3   OH243474   3.480   1.691  12.388 -0.4836 -0.1113 -0.5268
 7328TIP3    H143475   3.533   1.736  12.454  0.1942 -2.4610  0.5853
 7328TIP3    H243476   3.498   1.738  12.306  2.3933 -0.1276  0.0586
 7329TIP3   OH243477   3.776   3.809  15.947 -0.1653 -0.5083  0.4383
 7329TIP3    H143478   3.699   3.845  15.992  0.1307  0.0485  0.5139
 7329TIP3    H243479   3.849   3.829  16.005  0.4790  1.8344 -1.0899
 7330TIP3   OH243480   1.871   2.880  13.796  0.2114 -0.2334 -0.6335
 7330TIP3    H143481   1.881   2.903  13.703  2.0595 -1.5485 -0.7888
 7330TIP3    H243482   1.874   2.784  13.797  1.3121 -0.1999  0.8893
 7331TIP3   OH243483   6.217   1.914   3.114 -0.3809 -0.2517  0.0817
 7331TIP3    H143484   6.150   1.927   3.047 -0.2071 -1.2084 -0.2740
 7331TIP3    H243485   6.285   1.862   3.072  0.0340 -0.3090  0.8011
 7332TIP3   OH243486   3.775   1.941   1.500  0.3707  0.0450  0.1911
 7332TIP3    H143487   3.753   1.994   1.576  0.8771  0.5984 -0.0505
 7332TIP3    H243488   3.717   1.973   1.431  0.7587  0.3667  0.0133
 7333TIP3   OH243489   5.602   3.830   0.167 -0.1572  0.0747  0.4727
 7333TIP3    H143490   5.680   3.819   0.112 -0.2537  0.8548  0.1736
 7333TIP3    H243491   5.569   3.916   0.144 -1.0399 -0.2022  0.6967
 7334TIP3   OH243492   6.262   3.763  11.157 -0.2989  0.2403  0.0460
 7334TIP3    H143493   6.256   3.797  11.068  1.4845  0.6897  0.0714
 7334TIP3    H243494   6.335   3.701  11.154  0.4888  1.0787  1.4290
 7335TIP3   OH243495   5.767   4.034  14.470  0.0940  0.0009  0.7358
 7335TIP3    H143496   5.842   3.974  14.479 -0.4610 -0.7007  0.6793
 7335TIP3    H243497   5.716   3.997  14.398 -0.2253  0.5701  0.6732
 7336TIP3   OH243498   3.884   6.629   2.871  0.0531 -0.0153  0.0218
 7336TIP3    H143499   3.916   6.601   2.956 -2.3552  1.6846  1.5699
 7336TIP3    H243500   3.804   6.577   2.857  0.7338 -0.6940 -1.4900
 7337TIP3   OH243501   2.559   0.842   0.959 -0.1196 -0.3606  0.5610
 7337TIP3    H143502   2.563   0.770   1.022  1.4003 -0.4389  0.3739
 7337TIP3    H243503   2.645   0.884   0.963 -0.6877  0.8924  0.0115
 7338TIP3   OH243504   2.392   4.418   5.344  0.3694 -0.4034  0.1516
 7338TIP3    H143505   2.401   4.460   5.259 -0.5572  0.7855  0.6331
 7338TIP3    H243506   2.404   4.324   5.326 -2.3016 -0.4398 -1.6872
 7339TIP3   OH243507   1.900   6.010   4.654  0.5707  0.0249 -0.9845
 7339TIP3    H143508   1.863   5.957   4.725  2.1540 -1.6143 -1.3539
 7339TIP3    H243509   1.871   5.966   4.574  0.4025  0.7514 -1.3201
 7340TIP3   OH243510   3.137   0.154   0.079  0.5383 -0.3149 -0.2531
 7340TIP3    H143511   3.212   0.130   0.133  1.1362  0.1969 -0.8565
 7340TIP3    H243512   3.109   0.071   0.040  1.4549 -0.3437 -0.8673
 7341TIP3   OH243513   2.704   1.951  12.953  0.0575 -0.0248  0.0664
 7341TIP3    H143514   2.698   2.034  13.000  1.7376 -0.6076  1.3746
 7341TIP3    H243515   2.627   1.901  12.982 -0.5907  0.7958 -0.2101
 7342TIP3   OH243516   0.080   2.408   5.622  0.2807  0.5986  0.2076
 7342TIP3    H143517   0.153   2.438   5.567  0.3149  1.4609  0.7239
 7342TIP3    H243518   0.034   2.345   5.567 -1.4362  3.6331 -1.9656
 7343TIP3   OH243519   3.546   2.423   1.012 -0.0053 -0.3968 -0.2678
 7343TIP3    H143520   3.475   2.425   0.948  1.1819  0.4524 -1.5937
 7343TIP3    H243521   3.591   2.507   1.000  0.9388 -0.7263  0.8747
 7344TIP3   OH243522   3.689   1.048   4.852 -0.1436  0.3115  0.0018
 7344TIP3    H143523   3.700   1.030   4.945  2.0441 -0.4405 -0.3810
 7344TIP3    H243524   3.617   1.112   4.848 -0.4285  0.1482  2.1680
 7345TIP3   OH243525   2.145   1.500   2.186  0.2774 -0.3757  0.3163
 7345TIP3    H143526   2.144   1.412   2.224  0.0945 -0.4870  0.0559
 7345TIP3    H243527   2.174   1.486   2.095 -1.0533 -0.3209 -0.1208
 7346TIP3   OH243528   4.061   3.343   5.913 -0.1856 -0.5446 -0.1547
 7346TIP3    H143529   4.071   3.340   5.818  2.5762  0.6977  0.0618
 7346TIP3    H243530   4.113   3.270   5.946  1.9504  1.2332  0.5639
 7347TIP3   OH243531   3.106   3.373   2.435 -0.0252 -0.2354 -0.1016
 7347TIP3    H143532   3.131   3.321   2.511 -1.6100  0.5816  1.0034
 7347TIP3    H243533   3.032   3.427   2.465 -2.6133 -1.9732 -3.0079
 7348TIP3   OH243534   0.898   4.882   1.972  0.3548  0.0418  0.1310
 7348TIP3    H143535   0.826   4.943   1.989  0.9217 -0.2122  3.8286
 7348TIP3    H243536   0.917   4.893   1.879 -2.3214  2.4395 -0.2140
 7349TIP3   OH243537   5.949   5.301   1.260  0.0213  0.0658  0.1424
 7349TIP3    H143538   5.859   5.272   1.246 -0.0723  0.1141  0.6395
 7349TIP3    H243539   5.982   5.244   1.329  0.5237 -0.2563 -0.3519
 7350TIP3   OH243540   3.937   4.591  10.242 -0.1280 -0.1447  0.6074
 7350TIP3    H143541   3.868   4.633  10.294 -2.4607 -2.5220 -0.4680
 7350TIP3    H243542   3.940   4.641  10.161 -1.4166 -0.7128  0.1950
 7351TIP3   OH243543   6.709   0.031   5.365 -0.5073 -0.0952 -0.2603
 7351TIP3    H143544   6.713  -0.061   5.342 -1.7157  0.2264 -1.8937
 7351TIP3    H243545   6.723   0.078   5.282  3.0788  1.2635  1.0226
 7352TIP3   OH243546   5.493   1.592  14.741 -0.1652  0.5506 -0.2990
 7352TIP3    H143547   5.487   1.530  14.668  1.9954  0.2944 -0.2708
 7352TIP3    H243548   5.409   1.583  14.786  0.0797 -2.3041 -0.3329
 7353TIP3   OH243549   6.347   6.801  11.845  0.1386  0.4221 -0.0184
 7353TIP3    H143550   6.364   6.811  11.939 -0.1622  1.6337 -0.0856
 7353TIP3    H243551   6.413   6.737  11.815 -0.3568 -0.6747  1.1844
 7354TIP3   OH243552   2.238   3.963  11.992 -0.1762 -0.1366 -0.0272
 7354TIP3    H143553   2.275   4.040  11.949  0.7712 -0.3185  0.4459
 7354TIP3    H243554   2.181   3.998  12.060  0.8044  0.1571  0.6583
 7355TIP3   OH243555   5.428   6.307  12.916 -0.4249 -0.4078 -0.4685
 7355TIP3    H143556   5.469   6.223  12.897  2.6993  0.5856  1.5616
 7355TIP3    H243557   5.452   6.363  12.843 -1.1357 -0.7958 -1.0064
 7356TIP3   OH243558   2.334   5.812   4.196  0.4551 -0.1865  0.1173
 7356TIP3    H143559   2.295   5.792   4.281  0.7757  3.0009  1.0532
 7356TIP3    H243560   2.261   5.847   4.144  1.3829  3.0102  0.9071
 7357TIP3   OH243561   3.346   4.825   0.178 -0.1459  0.1785  0.9573
 7357TIP3    H143562   3.404   4.889   0.220  0.7561  0.4659 -0.6724
 7357TIP3    H243563   3.406   4.767   0.130 -1.0931 -0.6467  0.7584
 7358TIP3   OH243564   2.477   2.103   4.746  0.0917  0.3706  0.5522
 7358TIP3    H143565   2.488   2.182   4.799  0.9348  0.3617  0.4032
 7358TIP3    H243566   2.384   2.082   4.753  0.0472  0.8166  1.3888
 7359TIP3   OH243567   5.724   3.160   4.670 -0.0857  0.2548 -0.2086
 7359TIP3    H143568   5.679   3.108   4.603 -0.8061  0.2113  0.3057
 7359TIP3    H243569   5.782   3.098   4.713  0.1474  0.2120 -0.5755
 7360TIP3   OH243570   4.027   5.300  11.570 -0.1151  0.2039 -0.0855
 7360TIP3    H143571   4.038   5.285  11.664  0.4691  1.2606  0.0240
 7360TIP3    H243572   4.036   5.395  11.559  1.0407 -0.0315 -1.3554
 7361TIP3   OH243573   1.775   2.151   3.741  0.6638 -0.3616 -0.4590
 7361TIP3    H143574   1.690   2.136   3.781  0.9267  1.3627  0.7847
 7361TIP3    H243575   1.824   2.071   3.759 -0.2780 -0.8797 -0.1516
 7362TIP3   OH243576   3.267   0.909   4.573  0.1377 -0.4890 -0.5988
 7362TIP3    H143577   3.266   0.864   4.657  0.7238 -0.8796 -0.8006
 7362TIP3    H243578   3.344   0.967   4.577 -1.7496  2.0394  0.4659
 7363TIP3   OH243579   4.757   6.354   5.316 -0.5045  0.7713 -0.1927
 7363TIP3    H143580   4.725   6.269   5.285  0.2978  0.4022 -0.0272
 7363TIP3    H243581   4.790   6.337   5.405 -0.8017  1.3593  0.0346
 7364TIP3   OH243582   3.660   3.543  11.919  0.5153 -0.5628  0.5156
 7364TIP3    H143583   3.710   3.469  11.886 -0.5988 -1.1671  0.1510
 7364TIP3    H243584   3.617   3.579  11.841 -1.2213 -1.3020  1.1114
 7365TIP3   OH243585   3.424   3.695   2.635 -0.1085  0.3675  0.8926
 7365TIP3    H143586   3.354   3.664   2.577 -0.5720  1.5507  0.7998
 7365TIP3    H243587   3.504   3.687   2.583 -0.3379  0.1218  0.5764
 7366TIP3   OH243588   6.398   5.725  13.979 -0.6698  1.0526  0.4486
 7366TIP3    H143589   6.399   5.728  14.075  0.4512 -1.7950  0.5615
 7366TIP3    H243590   6.318   5.770  13.955 -1.1412  1.5230  2.7298
 7367TIP3   OH243591   2.363   5.157  15.279  0.5837  0.1383  0.0972
 7367TIP3    H143592   2.382   5.121  15.366 -0.8219  1.1859  0.8505
 7367TIP3    H243593   2.268   5.154  15.272  0.6594  0.5310 -1.2079
 7368TIP3   OH243594   0.442   2.646  13.039  0.3077 -0.1610  0.4171
 7368TIP3    H143595   0.466   2.557  13.012 -0.3227 -0.8295  2.0126
 7368TIP3    H243596   0.448   2.644  13.135 -0.4581  1.3000  0.4978
 7369TIP3   OH243597   3.161   4.370   5.548 -0.0500 -0.6345 -0.3604
 7369TIP3    H143598   3.123   4.284   5.568 -0.4464 -0.2835  0.4288
 7369TIP3    H243599   3.122   4.429   5.612 -1.0577  0.4704 -1.9515
 7370TIP3   OH243600   3.602   0.633   1.377 -0.5354  0.6012 -0.1131
 7370TIP3    H143601   3.510   0.645   1.398 -0.3321 -0.4491  1.4564
 7370TIP3    H243602   3.632   0.564   1.437  1.0553  0.3347 -1.1757
 7371TIP3   OH243603   0.131   5.200   4.432  0.0938 -0.2899 -0.2032
 7371TIP3    H143604   0.041   5.225   4.415  0.3628  0.4307 -0.6015
 7371TIP3    H243605   0.154   5.247   4.512 -0.3407 -1.6192  0.7147
 7372TIP3   OH243606   3.746   2.498   5.308 -0.6556 -0.4555 -0.3458
 7372TIP3    H143607   3.659   2.481   5.273 -0.1377  0.7807 -2.3179
 7372TIP3    H243608   3.802   2.434   5.265  0.0709  1.4024 -2.2681
 7373TIP3   OH243609   1.187   1.732  16.072  0.0718 -0.5512 -0.6779
 7373TIP3    H143610   1.172   1.759  16.162 -0.9153 -0.0343 -0.9974
 7373TIP3    H243611   1.239   1.802  16.034  1.2657 -1.1936 -0.2672
 7374TIP3   OH243612   5.203   0.077  15.532  0.3866  0.0539  0.2010
 7374TIP3    H143613   5.164   0.161  15.556 -0.3306 -0.1065 -0.3683
 7374TIP3    H243614   5.194   0.073  15.437  0.7475 -0.5089  0.1893
 7375TIP3   OH243615   6.243   6.421   4.052  0.3227  0.2125  0.4238
 7375TIP3    H143616   6.329   6.403   4.089  1.3093  3.5328 -0.0782
 7375TIP3    H243617   6.254   6.410   3.957  0.4086  1.3159  0.2961
 7376TIP3   OH243618   3.066   0.970  11.552 -0.4412  0.0592 -0.2087
 7376TIP3    H143619   3.156   0.992  11.573 -0.8082  1.8816 -0.4582
 7376TIP3    H243620   3.017   1.050  11.568 -2.1194 -1.0707  0.4729
 7377TIP3   OH243621   5.381   6.694   1.425  0.3201  0.0323 -0.1160
 7377TIP3    H143622   5.386   6.707   1.520  0.9688  1.8679 -0.3708
 7377TIP3    H243623   5.369   6.783   1.390 -0.3255 -0.6817 -1.7190
 7378TIP3   OH243624   3.179   5.636   2.735 -0.1210 -0.1278  0.1660
 7378TIP3    H143625   3.086   5.615   2.740 -0.1013 -0.2866 -0.0913
 7378TIP3    H243626   3.212   5.578   2.666  0.5590 -1.4314  1.5679
 7379TIP3   OH243627   3.253   4.328   3.692 -0.7844  0.1758 -0.2513
 7379TIP3    H143628   3.218   4.342   3.780  0.7414  1.8631  0.1159
 7379TIP3    H243629   3.299   4.244   3.697 -2.4150 -0.7330 -0.0211
 7380TIP3   OH243630   1.358   4.894   3.266  0.4110 -0.3731  0.2927
 7380TIP3    H143631   1.271   4.912   3.303  0.3815  0.5145 -0.1813
 7380TIP3    H243632   1.370   4.800   3.277 -0.2710 -0.3724  1.1034
 7381TIP3   OH243633   5.542   1.444   3.253 -0.2999  0.3246  0.0237
 7381TIP3    H143634   5.448   1.426   3.251 -0.2961  0.1693  0.9989
 7381TIP3    H243635   5.554   1.517   3.192 -0.6414 -1.4797 -2.2654
 7382TIP3   OH243636   0.347   5.754  15.927  0.0848  0.4046 -0.1162
 7382TIP3    H143637   0.391   5.783  16.007 -0.2889  0.9483 -0.1073
 7382TIP3    H243638   0.383   5.666  15.911 -0.5404 -0.0982  1.1668
 7383TIP3   OH243639   5.948   0.669  12.178  0.1379  0.0243  0.7029
 7383TIP3    H143640   5.889   0.698  12.248 -2.1029  0.7060 -1.3542
 7383TIP3    H243641   5.926   0.727  12.104  0.2318 -2.6500 -1.4895
 7384TIP3   OH243642   0.118   0.493  14.606 -0.4266 -0.7862 -0.0052
 7384TIP3    H143643   0.084   0.416  14.652 -2.2900 -0.0363 -0.0911
 7384TIP3    H243644   0.059   0.564  14.631  0.9217  0.4962 -0.4007
 7385TIP3   OH243645   6.493   0.711   5.861  0.8402 -0.2357 -0.8937
 7385TIP3    H143646   6.510   0.617   5.873 -0.2698 -0.2042  0.9627
 7385TIP3    H243647   6.559   0.754   5.915 -1.0618 -0.0314  1.3399
 7386TIP3   OH243648   2.891   3.479  16.126 -0.8453  0.2800 -0.1989
 7386TIP3    H143649   2.921   3.401  16.172 -1.7420  0.4578  0.6867
 7386TIP3    H243650   2.941   3.478  16.044  2.4500  1.1892  1.7135
 7387TIP3   OH243651   0.099   4.191   0.630  0.0442 -0.1861  0.1490
 7387TIP3    H143652   0.108   4.148   0.715  1.4436 -1.2052 -0.5008
 7387TIP3    H243653   0.009   4.174   0.604 -0.4305  0.2234  1.4658
 7388TIP3   OH243654   0.903   2.336  12.490  0.3010  0.3901 -0.1388
 7388TIP3    H143655   0.962   2.282  12.542 -1.7204 -0.4043  1.3471
 7388TIP3    H243656   0.941   2.424  12.494  0.2945  0.2857  2.4743
 7389TIP3   OH243657   0.195   5.862  14.352 -0.2879 -0.7617  0.0899
 7389TIP3    H143658   0.136   5.936  14.368 -2.2734 -2.0024 -1.3340
 7389TIP3    H243659   0.281   5.903  14.340 -1.3024  1.3014 -0.3760
 7390TIP3   OH243660   2.531   2.415  16.558 -0.2211 -0.1175  0.2016
 7390TIP3    H143661   2.476   2.339  16.539  1.8251 -1.4302 -0.7389
 7390TIP3    H243662   2.619   2.378  16.570  0.7030  2.0433  0.3884
 7391TIP3   OH243663   5.130   1.550  15.524  0.0216  0.0960 -0.2062
 7391TIP3    H143664   5.117   1.516  15.435 -0.7642  0.5975 -0.2777
 7391TIP3    H243665   5.096   1.481  15.581 -1.3645  0.6677 -0.3447
 7392TIP3   OH243666   2.332   0.143  13.664  0.7901  0.1393  0.3403
 7392TIP3    H143667   2.294   0.231  13.666 -1.3756 -0.7296 -0.7407
 7392TIP3    H243668   2.317   0.109  13.752 -1.8076 -0.5033 -0.3062
 7393TIP3   OH243669   1.902   2.689  16.605 -0.3845 -0.4656  0.1239
 7393TIP3    H143670   1.817   2.647  16.610 -0.6672  0.1492  0.5108
 7393TIP3    H243671   1.897   2.763  16.666  0.8745 -1.2062  1.1622
 7394TIP3   OH243672   3.774   0.911  16.044 -0.1403  0.1944 -0.1003
 7394TIP3    H143673   3.686   0.924  16.079  0.1947  0.3937  0.6892
 7394TIP3    H243674   3.807   0.835  16.091 -0.4489 -0.8332 -1.5033
 7395TIP3   OH243675   2.622   1.527  14.387 -0.2809 -0.0094 -0.6195
 7395TIP3    H143676   2.590   1.438  14.372 -1.3501  0.3840 -0.7094
 7395TIP3    H243677   2.643   1.530  14.480 -0.3887 -0.3089 -0.5864
 7396TIP3   OH243678   0.221   1.883   6.501  0.2982 -0.2302 -0.0952
 7396TIP3    H143679   0.282   1.810   6.511  0.4826  0.0792  1.0900
 7396TIP3    H243680   0.135   1.843   6.496  0.1674 -0.4235  2.9008
 7397TIP3   OH243681   3.353   2.456   0.820 -0.4265  0.4770  0.5880
 7397TIP3    H143682   3.402   2.524   0.773 -0.6780  0.8092  0.8039
 7397TIP3    H243683   3.261   2.476   0.802 -0.4982  0.1510  0.5943
 7398TIP3   OH243684   6.380   5.658  16.337  0.4540  0.0544 -0.8550
 7398TIP3    H143685   6.441   5.652  16.263 -0.5171  0.6970 -1.7220
 7398TIP3    H243686   6.295   5.635  16.300  0.1534 -0.8494  0.3561
 7399TIP3   OH243687   0.156   6.719   6.092  0.3254 -0.3000  0.1718
 7399TIP3    H143688   0.201   6.788   6.043 -0.2916 -1.3638 -1.9803
 7399TIP3    H243689   0.180   6.638   6.046 -2.4752 -1.0527 -0.0348
 7400TIP3   OH243690   4.040   3.211  16.774  0.0076 -0.6854 -0.2024
 7400TIP3    H143691   4.118   3.265  16.765 -0.1454 -0.7660 -2.2506
 7400TIP3    H243692   4.050   3.143  16.707 -0.4169 -2.4570  1.4667
 7401TIP3   OH243693   3.893   0.666   5.147  0.9227 -0.1230  0.2023
 7401TIP3    H143694   3.906   0.690   5.238 -0.5755 -2.6209  1.1329
 7401TIP3    H243695   3.844   0.738   5.109  1.5368  0.9205  1.3606
 7402TIP3   OH243696   2.051   5.065   4.745  0.9848  0.0103 -0.5871
 7402TIP3    H143697   2.013   5.019   4.670  0.8223  0.4301 -0.7690
 7402TIP3    H243698   1.977   5.112   4.783  1.0008 -0.4801  0.0447
 7403TIP3   OH243699   2.938   1.741  13.414 -0.4890 -0.0644 -0.1409
 7403TIP3    H143700   2.847   1.743  13.444 -0.0472 -0.6494  1.2173
 7403TIP3    H243701   2.934   1.695  13.330 -1.4052 -0.2795  0.0158
 7404TIP3   OH243702   1.488   1.649  13.238  0.6195 -0.7492 -0.3614
 7404TIP3    H143703   1.545   1.653  13.161 -0.0457 -1.3924 -0.8990
 7404TIP3    H243704   1.418   1.590  13.212  0.5309 -1.1818  0.8476
 7405TIP3   OH243705   0.464   6.618  13.639  0.2077  0.1024 -0.2407
 7405TIP3    H143706   0.380   6.661  13.657 -0.1277 -0.1922 -1.0747
 7405TIP3    H243707   0.445   6.556  13.568  1.0782 -0.1392 -0.2747
 7406TIP3   OH243708   4.714   4.570   4.764 -0.1790 -0.1413  0.4431
 7406TIP3    H143709   4.776   4.543   4.696 -1.5072  1.1497 -1.3470
 7406TIP3    H243710   4.684   4.489   4.803  1.4840 -0.8578  0.2842
 7407TIP3   OH243711   5.248   5.974  15.684 -0.1141 -0.2333  0.2004
 7407TIP3    H143712   5.338   6.005  15.672 -0.9117  2.1361  0.0360
 7407TIP3    H243713   5.197   6.023  15.619 -1.2192 -3.1744 -1.2370
 7408TIP3   OH243714   2.330   5.483  14.054 -0.4197 -0.1239  0.1393
 7408TIP3    H143715   2.354   5.483  14.147 -0.5455 -0.3423  0.1690
 7408TIP3    H243716   2.406   5.445  14.010 -0.5865 -0.5286  0.2053
 7409TIP3   OH243717   3.306   3.900   4.751  0.8132 -0.5705  0.1580
 7409TIP3    H143718   3.361   3.862   4.820  0.5362 -0.7932  0.2542
 7409TIP3    H243719   3.217   3.896   4.786  0.9453  1.7185  0.8967
 7410TIP3   OH243720   5.817   4.006  13.987  0.2078 -0.3138 -0.6426
 7410TIP3    H143721   5.808   3.920  13.948  0.2899  0.1805 -1.7682
 7410TIP3    H243722   5.801   4.067  13.915  0.9736  0.6054 -0.0431
 7411TIP3   OH243723   0.422   1.446  16.359  0.0188  0.1815 -0.0901
 7411TIP3    H143724   0.486   1.506  16.397  1.8270 -1.4640 -0.4040
 7411TIP3    H243725   0.467   1.408  16.283 -0.8749 -1.8680  0.3527
 7412TIP3   OH243726   2.689   4.498   5.765  0.0334 -0.0090 -0.2290
 7412TIP3    H143727   2.666   4.467   5.678  0.1291 -0.6564 -0.0286
 7412TIP3    H243728   2.629   4.451   5.824 -1.0956  1.6079 -0.0785
 7413TIP3   OH243729   3.069   5.102   3.682  0.2340  0.3253  0.2656
 7413TIP3    H143730   3.128   5.036   3.645 -0.1334  0.2851 -0.2575
 7413TIP3    H243731   3.072   5.086   3.776 -0.0873 -0.6410  0.1178
 7414TIP3   OH243732   6.084   1.564  12.382  0.0418  0.0723 -0.3413
 7414TIP3    H143733   6.173   1.538  12.404 -0.0837  0.8027  1.1228
 7414TIP3    H243734   6.039   1.483  12.359  0.7504 -0.4493  0.1209
 7415TIP3   OH243735   2.374   2.022  14.428 -0.4992  0.5066  0.2350
 7415TIP3    H143736   2.301   2.052  14.483 -0.1273 -0.0552  1.0506
 7415TIP3    H243737   2.337   2.015  14.340 -1.2467  0.8880  0.5141
 7416TIP3   OH243738   3.761   0.169   6.307  0.0477  0.1131 -0.0298
 7416TIP3    H143739   3.732   0.118   6.383 -0.5769  0.5681  0.0405
 7416TIP3    H243740   3.715   0.131   6.233 -1.1009  1.1350  0.1488
 7417TIP3   OH243741   5.222   5.301   0.965 -0.2897 -0.4334  0.0634
 7417TIP3    H143742   5.194   5.361   1.035  1.5970 -0.7167  1.0923
 7417TIP3    H243743   5.309   5.270   0.993  0.5314 -0.4934 -2.4487
 7418TIP3   OH243744   5.097   2.203  11.238  0.1290 -0.8369 -0.3517
 7418TIP3    H143745   5.122   2.286  11.197  2.0384 -0.7485  0.9568
 7418TIP3    H243746   5.137   2.136  11.184  3.7136 -0.6863  1.9509
 7419TIP3   OH243747   3.214   6.028  13.781 -0.3127  0.2483  0.0781
 7419TIP3    H143748   3.228   5.942  13.819 -0.3498  0.3395  0.2959
 7419TIP3    H243749   3.289   6.040  13.722  1.4244  1.4167  2.4400
 7420TIP3   OH243750   1.052   4.786  16.079  0.2290  0.1216  0.2785
 7420TIP3    H143751   0.956   4.790  16.070  0.5428  1.8333 -2.7833
 7420TIP3    H243752   1.074   4.864  16.129  0.1607  0.5432 -0.3473
 7421TIP3   OH243753   0.796   5.658   4.508  0.6731 -0.4581 -0.2930
 7421TIP3    H143754   0.793   5.751   4.485 -0.2885 -0.8515 -1.8080
 7421TIP3    H243755   0.721   5.620   4.463  0.8576 -1.9127  0.6117
 7422TIP3   OH243756   4.769   5.033  12.794  0.1122 -0.2330 -0.4503
 7422TIP3    H143757   4.836   4.964  12.799 -0.9004 -1.2205 -0.3901
 7422TIP3    H243758   4.734   5.039  12.882  1.3064  1.5094 -0.0655
 7423TIP3   OH243759   4.942   5.168   4.393  0.4543 -0.3336  0.7072
 7423TIP3    H143760   4.968   5.243   4.338  0.9663 -1.7065 -0.9558
 7423TIP3    H243761   4.855   5.144   4.363  0.6021 -0.8952  0.7223
 7424TIP3   OH243762   0.594   6.134  13.355  0.4322  0.0921 -0.4104
 7424TIP3    H143763   0.562   6.052  13.318 -0.3401  0.4761 -0.6117
 7424TIP3    H243764   0.550   6.202  13.304 -1.2732  0.6295  1.7227
 7425TIP3   OH243765   1.864   1.039   1.782 -0.1949  0.1361  0.2169
 7425TIP3    H143766   1.930   0.971   1.799 -0.7774 -0.1076  1.5688
 7425TIP3    H243767   1.787   1.009   1.831 -0.4206  1.8345  0.9174
 7426TIP3   OH243768   3.125   3.053  12.823 -0.4570 -0.4562 -0.4024
 7426TIP3    H143769   3.184   3.110  12.873  0.3450 -0.4206 -1.3865
 7426TIP3    H243770   3.137   3.080  12.732 -0.9721 -1.3868 -0.7495
 7427TIP3   OH243771   2.011   4.058  17.208  0.4524 -0.4403  0.4499
 7427TIP3    H143772   2.028   4.070  17.301 -0.8746  1.2431  0.5059
 7427TIP3    H243773   1.918   4.036  17.203  0.7306 -1.4562 -0.4044
 7428TIP3   OH243774   4.564   4.893  16.528  0.1312 -0.0958 -0.5946
 7428TIP3    H143775   4.643   4.851  16.496  0.4008 -0.6087  0.7217
 7428TIP3    H243776   4.566   4.879  16.623 -1.6980 -0.4059 -0.5881
 7429TIP3   OH243777   3.027   0.768  16.476  0.4494  0.4881  0.0803
 7429TIP3    H143778   3.020   0.816  16.558 -1.6890 -1.4245  1.0812
 7429TIP3    H243779   3.121   0.768  16.455  1.3304 -0.8045  3.6625
 7430TIP3   OH243780   5.676   3.787   1.309  0.4350 -0.0262 -0.2081
 7430TIP3    H143781   5.595   3.742   1.285  0.7201 -0.4862 -0.3181
 7430TIP3    H243782   5.656   3.830   1.392  0.4427 -1.1656  0.4106
 7431TIP3   OH243783   5.234   1.526  13.398 -0.7330 -0.1549 -0.2657
 7431TIP3    H143784   5.189   1.470  13.334 -1.3021  0.7881 -0.7050
 7431TIP3    H243785   5.220   1.615  13.366 -0.5897  0.2981  0.9087
 7432TIP3   OH243786   1.214   2.230   2.140 -0.1597  0.0711  0.1754
 7432TIP3    H143787   1.244   2.279   2.063  0.7718 -2.0115 -0.8371
 7432TIP3    H243788   1.124   2.204   2.118 -0.6317  1.2443  0.6859
 7433TIP3   OH243789   3.231   0.083   5.579  0.0312 -0.5034 -0.0819
 7433TIP3    H143790   3.158   0.132   5.619  0.5466 -0.0223  0.2717
 7433TIP3    H243791   3.306   0.102   5.635  0.3788 -1.1909 -0.3152
 7434TIP3   OH243792   2.701   0.161  11.826 -0.6156 -0.0517  0.4877
 7434TIP3    H143793   2.680   0.216  11.750  0.3198  1.9406  1.6447
 7434TIP3    H243794   2.679   0.073  11.797 -1.6246  0.8317 -1.6162
 7435TIP3   OH243795   1.970   4.891  12.584 -0.3812 -0.7333  0.1436
 7435TIP3    H143796   2.049   4.892  12.531 -0.3134  0.2495  0.2598
 7435TIP3    H243797   1.998   4.860  12.670 -0.0019  0.2480  0.3741
 7436TIP3   OH243798   1.469   5.496   1.044  0.1431  0.3915  0.1079
 7436TIP3    H143799   1.422   5.473   0.963 -0.7261  0.6038  0.5388
 7436TIP3    H243800   1.509   5.415   1.072  2.6046  0.8552 -1.9018
 7437TIP3   OH243801   3.884   2.090   3.430  0.8785  0.0198  0.2778
 7437TIP3    H143802   3.886   2.170   3.378  0.5161 -0.6330 -0.7625
 7437TIP3    H243803   3.819   2.035   3.385  0.3620 -0.4454  1.5838
 7438TIP3   OH243804   4.315   3.673  15.358  0.0575  0.2036  0.4530
 7438TIP3    H143805   4.343   3.682  15.449 -0.8053 -0.2929  0.7724
 7438TIP3    H243806   4.244   3.736  15.349 -0.1739 -0.0860  0.2549
 7439TIP3   OH243807   6.329   6.050   4.114 -0.3435 -0.3261  0.7568
 7439TIP3    H143808   6.376   6.129   4.143  0.5467 -0.5719 -0.0152
 7439TIP3    H243809   6.278   6.079   4.039  0.4993 -0.6378  0.0610
 7440TIP3   OH243810   6.572   4.015  13.217  0.4401 -0.4616 -0.4014
 7440TIP3    H143811   6.529   3.930  13.207 -0.1797 -0.1385 -0.5188
 7440TIP3    H243812   6.650   4.009  13.162  0.6477 -1.1238 -0.0352
 7441TIP3   OH243813   0.657   2.062  15.198  0.0780  0.0243  0.3084
 7441TIP3    H143814   0.673   2.098  15.285 -0.2975 -0.6203  0.6487
 7441TIP3    H243815   0.574   2.100  15.171  0.5051  0.7210 -0.0387
 7442TIP3   OH243816   3.921   6.513   1.213  0.1750  0.7335  0.2823
 7442TIP3    H143817   3.980   6.509   1.138 -0.3594  1.2323 -0.1643
 7442TIP3    H243818   3.840   6.549   1.178  0.0416  1.3124  1.1709
 7443TIP3   OH243819   6.221   0.958   0.489 -0.2595 -0.4901 -0.0295
 7443TIP3    H143820   6.203   0.879   0.539  0.6220 -0.8562 -0.2644
 7443TIP3    H243821   6.172   1.027   0.533  1.8351 -0.4572  2.3941
 7444TIP3   OH243822   1.429   6.573   4.762 -0.1076 -0.0729  0.1687
 7444TIP3    H143823   1.405   6.519   4.836 -0.4071 -1.0612 -0.6423
 7444TIP3    H243824   1.404   6.662   4.788  0.2303 -0.3437  1.4280
 7445TIP3   OH243825   4.638   0.789  15.765  0.8592 -0.0154  0.4214
 7445TIP3    H143826   4.633   0.694  15.769  1.5154 -0.1603 -1.4110
 7445TIP3    H243827   4.710   0.806  15.704 -0.1076  1.6276 -0.2930
 7446TIP3   OH243828   4.225   3.186  10.984  0.9109  0.1986  0.3192
 7446TIP3    H143829   4.138   3.168  11.020  0.9864 -2.1363 -0.5238
 7446TIP3    H243830   4.210   3.254  10.918  0.0485  1.2185  1.5649
 7447TIP3   OH243831   6.326   4.150  13.002  0.4108 -0.3504 -0.5247
 7447TIP3    H143832   6.236   4.165  12.974  0.9674  0.6917 -1.8069
 7447TIP3    H243833   6.320   4.076  13.063 -1.0614 -1.5249 -2.0447
 7448TIP3   OH243834   4.220   2.747   3.740 -0.2040 -0.6989  1.1257
 7448TIP3    H143835   4.142   2.782   3.782 -0.4799 -1.2114  1.0490
 7448TIP3    H243836   4.279   2.726   3.813  1.0921  2.4507  1.0824
 7449TIP3   OH243837   1.486   0.355  12.606  0.0505  0.1202 -0.0506
 7449TIP3    H143838   1.462   0.264  12.589 -0.7155  0.3152 -0.0342
 7449TIP3    H243839   1.410   0.406  12.576  1.3947  0.9210 -2.2692
 7450TIP3   OH243840   2.239   5.388  16.419 -0.0182  0.9880 -0.0528
 7450TIP3    H143841   2.288   5.307  16.435 -0.6872  0.6669  0.4016
 7450TIP3    H243842   2.290   5.434  16.352  0.9184  0.6742  0.4400
 7451TIP3   OH243843   1.548   4.705   6.213 -0.4349  0.4822 -0.2811
 7451TIP3    H143844   1.588   4.679   6.130  0.9231  3.0930 -0.4963
 7451TIP3    H243845   1.615   4.689   6.279 -1.4408 -1.3954  0.3233
 7452TIP3   OH243846   2.462   0.412   3.778  0.0565 -0.2466  0.0367
 7452TIP3    H143847   2.505   0.381   3.858 -1.8532 -1.4438  0.6098
 7452TIP3    H243848   2.528   0.468   3.736  1.9537 -1.5584  1.2099
 7453TIP3   OH243849   5.617   5.295   4.021 -0.1176 -0.1015  0.2162
 7453TIP3    H143850   5.562   5.355   4.072  0.0554  0.4938 -0.2989
 7453TIP3    H243851   5.706   5.309   4.055 -0.0976 -0.1747  0.1946
 7454TIP3   OH243852   1.721   2.546   1.543  0.2777 -0.2719  0.1999
 7454TIP3    H143853   1.697   2.605   1.472 -0.1693 -0.9367 -0.2156
 7454TIP3    H243854   1.715   2.458   1.504  2.8514 -0.4912  0.2397
 7455TIP3   OH243855   0.112   3.918  17.071  0.5238 -0.1146 -0.3529
 7455TIP3    H143856   0.031   3.881  17.107  0.1899  0.1957 -0.7701
 7455TIP3    H243857   0.128   3.866  16.992  1.4388 -1.0141  0.4204
 7456TIP3   OH243858   3.434   1.987   0.968  0.3701 -0.0539  0.3088
 7456TIP3    H143859   3.491   1.926   1.015  0.2124 -1.1863 -0.9551
 7456TIP3    H243860   3.492   2.059   0.942  1.0718 -0.8390 -0.3112
 7457TIP3   OH243861   4.422   3.765  17.149 -0.5475  0.2417  0.4851
 7457TIP3    H143862   4.375   3.728  17.074  0.7310  0.2256 -0.3113
 7457TIP3    H243863   4.513   3.741  17.135 -0.1058  1.3355  1.3980
 7458TIP3   OH243864   1.543   5.630   4.788  0.2592  0.2651  0.0982
 7458TIP3    H143865   1.591   5.712   4.781 -0.0843  0.3177 -2.0961
 7458TIP3    H243866   1.453   5.656   4.805 -0.1417  0.4307 -2.1619
 7459TIP3   OH243867   4.184   1.564  12.555 -0.3307  0.6609 -0.0613
 7459TIP3    H143868   4.255   1.500  12.559  0.0053  1.0598  0.6346
 7459TIP3    H243869   4.194   1.615  12.636 -0.8575  1.3054 -0.3973
 7460TIP3   OH243870   6.067   6.336   2.235  0.0103  0.1257  0.0797
 7460TIP3    H143871   6.136   6.402   2.242  1.5288 -1.3893 -0.4614
 7460TIP3    H243872   6.053   6.307   2.325 -1.7909  2.2603  0.5548
 7461TIP3   OH243873   2.884   6.447  16.411 -0.4843 -0.3029  0.0344
 7461TIP3    H143874   2.795   6.482  16.405 -0.3878  0.0653  0.6998
 7461TIP3    H243875   2.883   6.370  16.355 -1.3885 -0.6315  0.4915
 7462TIP3   OH243876   5.892   2.173   1.585  0.2106  0.1226 -0.1794
 7462TIP3    H143877   5.820   2.208   1.638  1.2265 -1.6289  2.4305
 7462TIP3    H243878   5.872   2.203   1.496 -4.2189 -1.0288  0.2767
 7463TIP3   OH243879   4.205   3.616  12.613 -0.2867  0.5166  0.1873
 7463TIP3    H143880   4.166   3.682  12.555 -0.7974 -0.4308 -0.5538
 7463TIP3    H243881   4.175   3.532  12.578  0.5797 -0.1279  0.9693
 7464TIP3   OH243882   0.825   1.200   3.599  0.2748  0.0703  0.4135
 7464TIP3    H143883   0.847   1.248   3.519  0.2327 -0.8070 -0.1364
 7464TIP3    H243884   0.892   1.132   3.605 -2.1811 -2.5918 -1.2494
 7465TIP3   OH243885   2.169   6.150   0.042  0.5786  0.1149  0.7619
 7465TIP3    H143886   2.103   6.193   0.095  1.6293  3.6789 -0.6916
 7465TIP3    H243887   2.249   6.155   0.094  0.6008 -0.5948  0.8035
 7466TIP3   OH243888   3.157   0.876  13.409 -0.6182 -0.0246  0.3222
 7466TIP3    H143889   3.184   0.784  13.402  1.3990  0.5850 -0.1226
 7466TIP3    H243890   3.234   0.921  13.444 -0.6748  1.9337 -1.9501
 7467TIP3   OH243891   4.362   2.214   4.279  0.1057  0.3394  0.3190
 7467TIP3    H143892   4.271   2.192   4.259  0.2761 -0.4854  0.4253
 7467TIP3    H243893   4.357   2.294   4.331 -0.6646 -0.6171  1.7388
 7468TIP3   OH243894   1.172   4.063   0.517  0.4385  0.6849  0.0825
 7468TIP3    H143895   1.138   4.121   0.585  2.3714 -0.6008  2.2084
 7468TIP3    H243896   1.139   3.977   0.540  0.1940  0.4017 -1.2766
 7469TIP3   OH243897   6.448   1.989  13.221 -0.3570  0.0433  0.7509
 7469TIP3    H143898   6.445   1.910  13.166  1.5636 -0.5770  1.4986
 7469TIP3    H243899   6.399   2.054  13.171  0.3849 -0.8307 -1.1939
 7470TIP3   OH243900   1.086   3.573  12.505 -0.9282  0.2337 -1.5977
 7470TIP3    H143901   1.092   3.668  12.515  0.0152  0.1362 -1.1235
 7470TIP3    H243902   1.027   3.545  12.575  1.7483  0.0912  0.6960
 7471TIP3   OH243903   5.066   6.365   0.049 -0.2879 -0.6574  0.1629
 7471TIP3    H143904   5.103   6.442   0.005 -0.5267 -0.7891 -0.2652
 7471TIP3    H243905   5.094   6.291  -0.004 -3.1112 -0.6040 -1.5469
 7472TIP3   OH243906   6.324   4.311  16.227  0.1077  0.1344  0.2409
 7472TIP3    H143907   6.260   4.354  16.283 -1.1521 -0.8356 -0.4419
 7472TIP3    H243908   6.373   4.383  16.187 -0.4127  0.8753  0.9355
 7473TIP3   OH243909   5.830   3.310   2.516 -0.3079 -0.4707 -0.0465
 7473TIP3    H143910   5.756   3.370   2.526  1.2753  1.4412  0.6169
 7473TIP3    H243911   5.827   3.284   2.423 -1.1619  0.4423 -0.2845
 7474TIP3   OH243912   6.228   6.501   2.882  0.1206 -0.1020 -0.3265
 7474TIP3    H143913   6.252   6.409   2.869  0.5700 -0.1859  0.9615
 7474TIP3    H243914   6.133   6.500   2.889  0.0496 -0.3413 -1.2008
 7475TIP3   OH243915   3.947   4.642   4.328  0.3265  0.0509  0.0382
 7475TIP3    H143916   4.003   4.685   4.394  1.6424 -0.0587 -0.9856
 7475TIP3    H243917   3.915   4.714   4.274  0.7438 -0.0414 -0.3317
 7476TIP3   OH243918   5.445   4.569  14.479  0.5321 -0.4663  0.3922
 7476TIP3    H143919   5.487   4.525  14.553  1.0139  1.0472  1.0396
 7476TIP3    H243920   5.510   4.632  14.449 -0.3894  0.2510 -0.1195
 7477TIP3   OH243921   2.622   1.436  10.758  0.6245 -0.2527 -0.2493
 7477TIP3    H143922   2.660   1.524  10.748 -0.0855  0.3546  2.0626
 7477TIP3    H243923   2.640   1.393  10.674  0.3206  2.3477 -1.7138
 7478TIP3   OH243924   4.141   0.278  14.147  0.1664 -0.0010  0.4151
 7478TIP3    H143925   4.203   0.345  14.177 -0.4552  0.1085  1.4930
 7478TIP3    H243926   4.157   0.203  14.203  0.9654 -0.8241 -0.8985
 7479TIP3   OH243927   6.476   5.330   1.147  0.0620 -0.3277  0.3450
 7479TIP3    H143928   6.457   5.257   1.206 -0.0563 -0.4627  0.1410
 7479TIP3    H243929   6.393   5.376   1.139 -0.0315 -0.5733 -0.0772
 7480TIP3   OH243930   5.303   5.331   6.127  0.3281 -0.2236 -0.8930
 7480TIP3    H143931   5.334   5.373   6.207  1.2069 -0.5670 -1.0500
 7480TIP3    H243932   5.333   5.240   6.135 -1.5333 -0.8455 -0.5507
 7481TIP3   OH243933   1.582   2.948  11.353  0.1705  0.4540 -0.8170
 7481TIP3    H143934   1.656   2.969  11.297  1.0429  1.8629  0.7983
 7481TIP3    H243935   1.606   2.865  11.394 -0.1984 -0.2690 -2.0505
 7482TIP3   OH243936   0.131   0.661   2.500 -0.2916 -0.2118  0.3356
 7482TIP3    H143937   0.040   0.684   2.483 -0.3147 -0.7446 -0.2842
 7482TIP3    H243938   0.174   0.666   2.415  0.3534  0.4217  0.6892
 7483TIP3   OH243939   3.856   5.936   1.553 -0.5122 -0.5550  0.3711
 7483TIP3    H143940   3.778   5.883   1.540 -0.9965  0.1752  0.2601
 7483TIP3    H243941   3.824   6.016   1.595  0.3580 -0.8070  1.5414
 7484TIP3   OH243942   0.091   2.003   3.573  0.6258  0.2378 -0.3297
 7484TIP3    H143943   0.140   1.977   3.652 -1.2754  2.4864  1.6592
 7484TIP3    H243944   0.145   2.070   3.532  0.6149  0.6008  0.2469
 7485TIP3   OH243945   6.233   5.346   3.502  0.4131  0.8285 -0.7469
 7485TIP3    H143946   6.300   5.307   3.446 -0.7229 -0.8517 -0.9510
 7485TIP3    H243947   6.154   5.345   3.449 -0.5620 -0.3324  0.6997
 7486TIP3   OH243948   5.176   6.164   0.640 -0.4248  0.0913  0.4447
 7486TIP3    H143949   5.132   6.249   0.640 -0.1793  0.2272  1.0027
 7486TIP3    H243950   5.262   6.182   0.678  0.5440  0.0365 -1.6582
 7487TIP3   OH243951   0.187   6.190   5.887 -0.5560  0.1910  0.1771
 7487TIP3    H143952   0.261   6.144   5.848  2.0851  2.2966  2.4497
 7487TIP3    H243953   0.171   6.143   5.970  0.9888  2.1884  1.6519
 7488TIP3   OH243954   2.538   5.994  11.591  0.1406  0.4658 -0.3651
 7488TIP3    H143955   2.546   5.904  11.622  2.5560  0.6473 -0.3502
 7488TIP3    H243956   2.610   6.041  11.633  0.2000  1.9220 -2.0178
 7489TIP3   OH243957   3.168   2.253  13.393 -0.2216 -0.3963  0.1727
 7489TIP3    H143958   3.161   2.274  13.300 -2.5673  1.1482  0.6559
 7489TIP3    H243959   3.101   2.307  13.435  1.3900 -0.3849  2.8817
 7490TIP3   OH243960   3.276   0.116  14.789  0.2355 -0.0413 -0.3165
 7490TIP3    H143961   3.291   0.027  14.821  1.2815  0.3688  0.3870
 7490TIP3    H243962   3.182   0.120  14.772  0.0694 -1.0703  0.2895
 7491TIP3   OH243963   4.181   3.272  17.060  0.0073 -0.2668  0.3492
 7491TIP3    H143964   4.236   3.331  17.007  2.2295 -2.1884  0.4486
 7491TIP3    H243965   4.162   3.199  17.002 -0.5554 -0.6977  1.0736
 7492TIP3   OH243966   6.001   0.211   0.078 -0.6796 -0.9553 -0.1676
 7492TIP3    H143967   6.060   0.142   0.047 -1.1699 -0.6990 -1.7240
 7492TIP3    H243968   6.045   0.293   0.056 -1.6823 -0.7593 -1.5616
 7493TIP3   OH243969   1.433   5.137   5.089 -0.7099  0.2291  0.3192
 7493TIP3    H143970   1.363   5.076   5.064 -0.7677  0.4917 -0.1619
 7493TIP3    H243971   1.387   5.211   5.128 -0.6868  0.3349  0.1421
 7494TIP3   OH243972   6.100   4.891   3.148  0.8628 -0.1098  0.0881
 7494TIP3    H143973   6.178   4.930   3.109  0.3584  0.5395 -0.2681
 7494TIP3    H243974   6.034   4.960   3.147  1.0410  0.1480  2.7640
 7495TIP3   OH243975   3.648   0.841   5.783 -0.0039  0.3149  0.2599
 7495TIP3    H143976   3.635   0.771   5.718 -0.3171 -1.5884  2.3102
 7495TIP3    H243977   3.687   0.913   5.733  1.3326 -1.6963 -1.7074
 7496TIP3   OH243978   4.531   0.307  12.410 -0.1616 -0.9554  0.0542
 7496TIP3    H143979   4.459   0.281  12.467 -0.3405 -1.6198 -0.4695
 7496TIP3    H243980   4.517   0.257  12.329 -0.5554  0.7981 -0.9928
 7497TIP3   OH243981   5.870   2.807  16.632  1.0129  0.1401  0.1767
 7497TIP3    H143982   5.895   2.835  16.543 -0.2114  0.3169 -0.1279
 7497TIP3    H243983   5.804   2.739  16.617  0.1976  0.7582  0.9580
 7498TIP3   OH243984   3.819   1.197  13.466 -0.0008 -0.1424  0.4906
 7498TIP3    H143985   3.733   1.160  13.484  0.1433 -0.4746  0.5117
 7498TIP3    H243986   3.804   1.262  13.398 -0.1346 -0.8516 -0.1718
 7499TIP3   OH243987   2.361   1.745   4.693 -0.7350  0.5302  0.3278
 7499TIP3    H143988   2.349   1.827   4.741  1.2804  1.5582 -0.8839
 7499TIP3    H243989   2.398   1.771   4.609  0.5606 -1.6858  0.1783
 7500TIP3   OH243990   2.516   4.821   5.554  0.9479  0.1081  0.3381
 7500TIP3    H143991   2.483   4.784   5.636 -1.2815  0.1771 -0.4909
 7500TIP3    H243992   2.447   4.804   5.490  1.7101  1.9549 -1.0365
 7501TIP3   OH243993   4.702   0.900   5.374 -0.4602 -0.6472 -0.1695
 7501TIP3    H143994   4.741   0.816   5.350 -4.2283 -1.8429 -2.5566
 7501TIP3    H243995   4.664   0.885   5.460 -0.0641 -0.9903 -0.0509
 7502TIP3   OH243996   5.412   3.392   1.140  0.0316 -0.1381 -0.3475
 7502TIP3    H143997   5.420   3.481   1.107  0.3712 -0.7201 -1.9102
 7502TIP3    H243998   5.431   3.398   1.233 -3.6916  2.0440  0.3682
 7503TIP3   OH243999   0.882   5.081  14.835 -0.1028 -0.2379  0.2505
 7503TIP3    H144000   0.791   5.057  14.848 -0.1607 -0.3240 -0.3322
 7503TIP3    H244001   0.913   5.105  14.923 -1.0742  1.1640  0.2302
 7504TIP3   OH244002   3.651   6.232  15.436  0.2450  0.0083  0.2057
 7504TIP3    H144003   3.719   6.218  15.370 -0.5873  0.3812 -0.7337
 7504TIP3    H244004   3.634   6.144  15.470  0.2775 -0.2623 -0.4700
 7505TIP3   OH244005   1.752   1.401  15.548  0.0817 -0.4848 -0.1009
 7505TIP3    H144006   1.796   1.322  15.519  0.0270 -0.3585 -0.5376
 7505TIP3    H244007   1.818   1.470  15.541  0.2346 -0.5480  0.6119
 7506TIP3   OH244008   6.482   1.523  15.012  0.0280 -0.1370 -0.0805
 7506TIP3    H144009   6.387   1.510  15.014 -0.0347 -0.3419 -2.6501
 7506TIP3    H244010   6.503   1.526  14.918  2.5404  0.0146  0.4780
 7507TIP3   OH244011   2.009   3.174  16.691  0.1250 -0.0867  0.4333
 7507TIP3    H144012   2.016   3.214  16.605  0.0443 -0.4337  0.2626
 7507TIP3    H244013   1.923   3.199  16.723 -0.5341 -1.3773 -0.3153
 7508TIP3   OH244014   1.100   4.715  12.652  0.1741 -0.4978 -0.0394
 7508TIP3    H144015   1.078   4.808  12.654 -0.0562 -0.5752  1.7355
 7508TIP3    H244016   1.073   4.682  12.738  0.5471 -2.1402 -0.5307
 7509TIP3   OH244017   1.066   2.679  13.167 -0.0357 -0.0393 -0.6775
 7509TIP3    H144018   1.076   2.643  13.255 -0.3299 -1.2123 -1.1160
 7509TIP3    H244019   1.048   2.772  13.181 -1.1349 -0.4222  0.5391
 7510TIP3   OH244020   5.745   6.397   5.153 -0.2698  0.5119  0.6157
 7510TIP3    H144021   5.823   6.378   5.207 -0.9846 -0.2062  1.4192
 7510TIP3    H244022   5.699   6.314   5.148 -2.0876  1.4052  1.9383
 7511TIP3   OH244023   2.817   6.619  14.650 -0.9098  0.6007  0.0667
 7511TIP3    H144024   2.731   6.661  14.644 -1.3780 -0.3096  0.3255
 7511TIP3    H244025   2.800   6.535  14.693 -0.0860 -0.1214 -0.9802
 7512TIP3   OH244026   6.813   2.463   2.133 -0.3531  0.2480  0.6637
 7512TIP3    H144027   6.826   2.445   2.226 -2.5464  0.9204  1.1132
 7512TIP3    H244028   6.844   2.553   2.121 -1.0239  0.5273  0.9737
 7513TIP3   OH244029   3.086   2.264   4.130  0.4762 -0.2684  0.0051
 7513TIP3    H144030   3.047   2.316   4.201  0.8891  0.5645 -0.3764
 7513TIP3    H244031   3.168   2.231   4.166 -0.4478 -1.8312  0.7301
 7514TIP3   OH244032   0.371   2.433  13.458 -0.2359  0.4736  0.5358
 7514TIP3    H144033   0.408   2.401  13.539 -2.2917 -0.4690  1.1395
 7514TIP3    H244034   0.306   2.499  13.485 -2.1447 -1.0431 -0.2015
 7515TIP3   OH244035   2.387   1.936  12.650 -0.5453  0.2135  0.7672
 7515TIP3    H144036   2.442   2.014  12.661 -3.1410  1.9978  1.5640
 7515TIP3    H244037   2.375   1.928  12.555  2.6466 -1.3827  0.4304
 7516TIP3   OH244038   0.154   3.108  14.722  0.0020  0.4632  0.1832
 7516TIP3    H144039   0.138   3.115  14.628 -0.8872 -2.6895  0.0333
 7516TIP3    H244040   0.081   3.154  14.762 -0.3097  0.7051 -0.6567
 7517TIP3   OH244041   4.661   4.247   6.187 -0.9930  0.1861  0.4340
 7517TIP3    H144042   4.705   4.235   6.271  0.6096  0.3494 -0.3768
 7517TIP3    H244043   4.614   4.165   6.172  0.0004 -0.4389  0.7398
 7518TIP3   OH244044   4.136   1.374   4.314 -0.0706  0.0481  0.5275
 7518TIP3    H144045   4.106   1.456   4.353 -0.4643  0.0227  0.2785
 7518TIP3    H244046   4.127   1.309   4.384 -1.5730 -0.1695  0.1536
 7519TIP3   OH244047   6.608   4.479  11.192  0.5729 -0.1342 -0.1775
 7519TIP3    H144048   6.584   4.539  11.263 -0.3964 -0.9605  0.1969
 7519TIP3    H244049   6.703   4.472  11.198  0.8482  2.3451 -1.0089
 7520TIP3   OH244050   0.454   3.643  14.157 -0.1056 -0.3625  0.1982
 7520TIP3    H144051   0.477   3.670  14.246 -1.5672 -0.4312  0.6149
 7520TIP3    H244052   0.538   3.632  14.112  0.6082  0.9105  1.1995
 7521TIP3   OH244053   2.461   1.402  16.556 -0.4433 -0.1809 -0.0600
 7521TIP3    H144054   2.494   1.364  16.474 -2.3669 -0.9031 -0.5325
 7521TIP3    H244055   2.380   1.355  16.573  0.0126 -0.1555  2.3826
 7522TIP3   OH244056   3.702   1.688   1.366  0.2945  0.6589 -0.2092
 7522TIP3    H144057   3.614   1.667   1.336  0.6318 -1.8446  0.4450
 7522TIP3    H244058   3.689   1.729   1.452 -0.1943 -0.5803  0.3139
 7523TIP3   OH244059   1.307   4.835  11.779  0.3906 -0.3548  0.0278
 7523TIP3    H144060   1.354   4.898  11.833  1.6210 -1.3029  0.0872
 7523TIP3    H244061   1.371   4.808  11.713 -0.2586 -1.2168 -0.2531
 7524TIP3   OH244062   6.060   5.684  12.619 -0.0040  0.0905 -0.1526
 7524TIP3    H144063   6.102   5.726  12.543 -0.8624  0.4961 -0.4124
 7524TIP3    H244064   5.968   5.677  12.594 -0.2805  0.1855  0.8386
 7525TIP3   OH244065   5.438   6.778   5.291 -0.2895 -0.2821 -0.1125
 7525TIP3    H144066   5.440   6.781   5.195  0.4132  0.1037 -0.0878
 7525TIP3    H244067   5.519   6.735   5.316  0.1185  0.7362  0.3493
 7526TIP3   OH244068   4.300   4.319   6.264  0.4978  0.1274  0.4817
 7526TIP3    H144069   4.356   4.389   6.297  0.3277 -0.2455  1.5650
 7526TIP3    H244070   4.308   4.249   6.329  0.3979 -0.7277 -0.4133
 7527TIP3   OH244071   1.164   5.548   0.701  0.4752 -0.7442 -0.4414
 7527TIP3    H144072   1.113   5.496   0.763 -0.7595  3.0877  1.9676
 7527TIP3    H244073   1.254   5.540   0.732  0.0594 -0.0533  0.9657
 7528TIP3   OH244074   0.758   6.087  14.299  0.0414  0.3994 -0.4460
 7528TIP3    H144075   0.732   6.162  14.352  1.6020 -0.4094  1.5514
 7528TIP3    H244076   0.774   6.123  14.212 -2.8011  1.7306 -0.5024
 7529TIP3   OH244077   1.032   1.735   0.878  0.1010  0.1637 -0.0824
 7529TIP3    H144078   0.949   1.698   0.848  0.8403 -0.4409 -1.4165
 7529TIP3    H244079   1.071   1.665   0.931  0.2335  0.0450 -0.3323
 7530TIP3   OH244080   3.277   5.877   1.557  0.4268  0.7446 -0.3477
 7530TIP3    H144081   3.244   5.813   1.619  1.6962  2.0079  1.7033
 7530TIP3    H244082   3.350   5.919   1.603  2.1432  0.9074 -3.1544
 7531TIP3   OH244083   4.586   3.740  14.261  0.7194 -0.0437  0.2056
 7531TIP3    H144084   4.609   3.812  14.203  1.4356  0.1254  0.6951
 7531TIP3    H244085   4.669   3.714  14.301 -0.0849  1.4597  3.0101
 7532TIP3   OH244086   2.793   0.071  15.716  0.2673  0.1242  0.1248
 7532TIP3    H144087   2.861   0.017  15.757  0.5485 -0.0954 -0.6199
 7532TIP3    H244088   2.715   0.056  15.770  0.2138 -1.4024 -0.3566
 7533TIP3   OH244089   5.033   5.898   0.246  0.5127  0.1648  0.5372
 7533TIP3    H144090   4.940   5.919   0.257  0.0813 -1.6016  0.3771
 7533TIP3    H244091   5.078   5.958   0.306 -0.6471  1.6854 -0.0757
 7534TIP3   OH244092   0.653   1.348  15.892 -0.1869 -0.1078  0.3966
 7534TIP3    H144093   0.722   1.282  15.890  1.8908  1.9281  1.9881
 7534TIP3    H244094   0.684   1.417  15.833 -1.3226  0.4075  0.3894
 7535TIP3   OH244095   3.565   4.056   2.881  0.0994  0.4171  0.2862
 7535TIP3    H144096   3.496   3.997   2.850 -0.3446  0.6826  0.7515
 7535TIP3    H244097   3.553   4.059   2.976  2.2112 -1.3466  0.6352
 7536TIP3   OH244098   4.142   0.555  16.684 -0.1214  0.5533  0.6511
 7536TIP3    H144099   4.157   0.649  16.685 -1.7741  0.8675 -0.9207
 7536TIP3    H244100   4.051   0.545  16.713  0.1885 -0.5941  1.2657
 7537TIP3   OH244101   2.243   0.937  14.029  0.1907 -0.0952 -0.2778
 7537TIP3    H144102   2.266   0.845  14.017 -1.6568 -0.8153  1.4364
 7537TIP3    H244103   2.238   0.972  13.940  0.4757 -1.7658 -0.9669
 7538TIP3   OH244104   0.596   5.073  16.350 -0.3733  0.1260  0.2025
 7538TIP3    H144105   0.581   5.135  16.279  0.2128  1.1006  0.9122
 7538TIP3    H244106   0.692   5.066  16.356 -0.4377 -1.0939 -0.0795
 7539TIP3   OH244107   5.165   1.113  13.128  0.8729  0.2652 -0.3771
 7539TIP3    H144108   5.158   1.032  13.078  1.0591  0.7466 -1.1918
 7539TIP3    H244109   5.220   1.091  13.203 -1.3677 -1.0894  0.9332
 7540TIP3   OH244110   6.022   5.597  16.544  0.4939 -0.3894 -0.3859
 7540TIP3    H144111   5.948   5.577  16.487 -0.1474 -0.3207  0.4153
 7540TIP3    H244112   6.038   5.691  16.531 -0.9666  0.0716  1.0851
 7541TIP3   OH244113   0.309   1.845   2.058 -0.0629  0.9708 -0.2309
 7541TIP3    H144114   0.249   1.825   2.130  2.0046 -0.1128  1.2240
 7541TIP3    H244115   0.314   1.941   2.057 -0.9499  1.0282  0.3469
 7542TIP3   OH244116   2.808   0.246   0.768  0.4612  0.3004  0.1469
 7542TIP3    H144117   2.730   0.231   0.821 -0.5702 -2.1312 -1.9367
 7542TIP3    H244118   2.878   0.260   0.832 -1.1306 -0.4176  2.0996
 7543TIP3   OH244119   6.811   1.773  17.151  0.3581 -0.6754  0.3859
 7543TIP3    H144120   6.723   1.741  17.131 -0.4477  1.8975 -0.3889
 7543TIP3    H244121   6.868   1.701  17.125 -1.1472 -0.2233 -4.7467
 7544TIP3   OH244122   0.646   1.656  13.179  0.5923  0.2660 -0.0486
 7544TIP3    H144123   0.635   1.740  13.223  0.9787  0.1222  0.3232
 7544TIP3    H244124   0.726   1.619  13.217  1.0301  0.2233 -0.9912
 7545TIP3   OH244125   2.517   0.408  16.445  0.0723  0.7173 -0.7350
 7545TIP3    H144126   2.486   0.499  16.447 -0.2495  0.6861 -3.1428
 7545TIP3    H244127   2.451   0.362  16.393  2.1397 -0.1429 -2.6415
 7546TIP3   OH244128   2.657   0.242   0.022  0.6010 -0.1642  0.3817
 7546TIP3    H144129   2.578   0.197   0.053  0.1766  0.8999  0.8586
 7546TIP3    H244130   2.727   0.178   0.035  0.1547 -0.3542  1.9248
 7547TIP3   OH244131   1.701   1.138  11.720  0.3440 -0.2549  0.5785
 7547TIP3    H144132   1.678   1.100  11.635  0.0038 -1.2090  1.0813
 7547TIP3    H244133   1.796   1.128  11.727  0.4629  0.4474  0.0216
 7548TIP3   OH244134   2.886   3.296   5.526 -0.3855 -0.3557  0.4807
 7548TIP3    H144135   2.852   3.364   5.584 -0.8870  1.0354 -1.3730
 7548TIP3    H244136   2.846   3.215   5.558 -0.0990  0.2678  2.4745
 7549TIP3   OH244137   1.459   1.350   0.793  0.1869 -0.4540 -0.0112
 7549TIP3    H144138   1.456   1.310   0.707 -0.0626  1.8962 -1.1233
 7549TIP3    H244139   1.464   1.444   0.776  2.7615 -0.0581  2.4900
 7550TIP3   OH244140   6.669   0.370  13.651  0.5674  0.0093 -0.0227
 7550TIP3    H144141   6.590   0.336  13.692  1.5181  0.4963  2.2881
 7550TIP3    H244142   6.637   0.430  13.583 -1.0492  0.1523  0.8393
 7551TIP3   OH244143   6.777   4.112  14.866  0.1893  0.0181  0.1469
 7551TIP3    H144144   6.736   4.111  14.780  0.1084  0.0483  0.1838
 7551TIP3    H244145   6.735   4.041  14.914  0.3802 -0.1297  0.0947
 7552TIP3   OH244146   0.557   2.253   6.742 -0.7434 -0.1039  0.4208
 7552TIP3    H144147   0.617   2.181   6.724  1.0627  1.4692  0.0291
 7552TIP3    H244148   0.597   2.299   6.816 -0.8678  1.6068 -0.5501
 7553TIP3   OH244149   3.433   1.935   1.731  0.1032  0.2315  0.0037
 7553TIP3    H144150   3.470   1.914   1.646  0.1193 -1.0780  0.3155
 7553TIP3    H244151   3.347   1.974   1.712 -0.6267 -1.6118 -0.5813
 7554TIP3   OH244152   6.215   4.427  11.308  0.8317  0.0162  0.2690
 7554TIP3    H144153   6.263   4.494  11.357  0.2284  2.6294 -2.5538
 7554TIP3    H244154   6.132   4.419  11.355  0.1343  2.7032 -0.3834
 7555TIP3   OH244155   4.054   0.916  13.987  0.5246  0.5551 -0.2929
 7555TIP3    H144156   4.079   0.913  13.895  0.1486 -2.8149 -0.3525
 7555TIP3    H244157   4.136   0.925  14.035  0.8224  1.1838 -0.9233
 7556TIP3   OH244158   2.293   5.512   3.017 -0.4166 -0.3947 -0.1237
 7556TIP3    H144159   2.302   5.472   2.931  2.4952 -2.1681  0.9124
 7556TIP3    H244160   2.367   5.573   3.023 -1.1681  0.4574  0.7467
 7557TIP3   OH244161   2.406   3.268  14.840  0.4801  0.3343  0.1856
 7557TIP3    H144162   2.499   3.247  14.851 -0.1349 -2.4683  0.6420
 7557TIP3    H244163   2.381   3.222  14.760 -0.6816  0.3848  0.5095
 7558TIP3   OH244164   4.663   1.914   0.812  0.3314  1.0187  0.2513
 7558TIP3    H144165   4.704   1.833   0.781 -0.7484 -0.9458  3.7371
 7558TIP3    H244166   4.572   1.890   0.828 -0.0392  2.9905  1.1614
 7559TIP3   OH244167   4.041   0.221  15.028 -0.8314  0.5370 -0.4820
 7559TIP3    H144168   4.094   0.183  15.098 -2.0734  0.2108  0.2802
 7559TIP3    H244169   4.106   0.252  14.965  0.2522 -0.8862 -0.1065
 7560TIP3   OH244170   1.003   3.159  12.613  0.0229 -0.5405  0.0780
 7560TIP3    H144171   1.055   3.149  12.693 -0.0567 -0.2281  0.1720
 7560TIP3    H244172   1.064   3.198  12.550 -0.1555  0.0320  0.2548
 7561TIP3   OH244173   5.173   3.912  11.554 -0.0375 -0.2563 -0.2667
 7561TIP3    H144174   5.124   3.866  11.486 -0.0488  0.3782 -0.6915
 7561TIP3    H244175   5.112   3.915  11.629 -0.5234  0.2348 -0.6779
 7562TIP3   OH244176   2.537   6.439   0.748  0.0834  0.2742 -0.1536
 7562TIP3    H144177   2.629   6.419   0.728 -0.3710  1.1327 -3.2587
 7562TIP3    H244178   2.542   6.514   0.809  1.4343  0.3971 -0.3936
 7563TIP3   OH244179   0.221   3.310   2.672  0.3767 -0.3646 -0.2230
 7563TIP3    H144180   0.233   3.364   2.750  1.0569 -0.0716 -0.5313
 7563TIP3    H244181   0.128   3.288   2.672 -0.3155  2.3343 -1.0693
 7564TIP3   OH244182   6.034   5.230  15.661 -0.0469 -0.4420 -0.3900
 7564TIP3    H144183   5.959   5.186  15.621 -0.1724 -0.7804  0.2071
 7564TIP3    H244184   6.108   5.172  15.644 -0.3038 -1.1242  0.8296
 7565TIP3   OH244185   1.284   6.177  16.091  0.5002  0.6350 -0.1629
 7565TIP3    H144186   1.340   6.117  16.140 -0.4645  0.7990  1.1394
 7565TIP3    H244187   1.330   6.261  16.096  0.6914  0.5269 -0.0524
 7566TIP3   OH244188   3.375   4.089  12.005 -0.6584 -0.3549 -0.3038
 7566TIP3    H144189   3.314   4.028  11.964 -0.8473  0.7422 -1.7212
 7566TIP3    H244190   3.425   4.125  11.932  1.0716 -0.5661  0.7530
 7567TIP3   OH244191   2.392   0.029   1.377 -0.4251 -0.0130 -0.0251
 7567TIP3    H144192   2.363  -0.057   1.346 -0.0733 -0.2144  0.1932
 7567TIP3    H244193   2.429   0.071   1.300 -2.7412  0.8921 -0.6766
 7568TIP3   OH244194   3.679   2.115  11.367 -0.0159 -0.0922  0.1955
 7568TIP3    H144195   3.682   2.057  11.291 -0.3659  0.2787 -0.1062
 7568TIP3    H244196   3.585   2.130  11.382  0.0285 -0.7061  1.1178
 7569TIP3   OH244197   6.118   0.564  15.522  0.2541  0.4625  0.1929
 7569TIP3    H144198   6.196   0.590  15.571  0.6722  0.3754 -0.4150
 7569TIP3    H244199   6.055   0.635  15.536  0.5275  0.6398  0.5010
 7570TIP3   OH244200   1.885   3.624   0.489 -0.1988 -0.6115 -0.3495
 7570TIP3    H144201   1.916   3.714   0.501 -1.2408 -0.1184 -1.2527
 7570TIP3    H244202   1.790   3.629   0.504  0.0438 -1.9936  1.8519
 7571TIP3   OH244203   6.354   5.501  13.234 -0.0703 -0.5230 -0.7431
 7571TIP3    H144204   6.341   5.416  13.191  1.9583 -0.2138 -2.0117
 7571TIP3    H244205   6.448   5.515  13.231 -0.1649  0.6964  1.5899
 7572TIP3   OH244206   4.813   6.452  13.671  0.0776  0.2666  0.1140
 7572TIP3    H144207   4.847   6.512  13.738 -0.3647  1.1703 -0.4705
 7572TIP3    H244208   4.826   6.365  13.709  2.2846  0.6271  0.2451
 7573TIP3   OH244209   3.683   5.261  12.978 -0.3415 -0.1044 -0.0473
 7573TIP3    H144210   3.637   5.254  13.061 -0.1571 -1.5199 -0.0416
 7573TIP3    H244211   3.620   5.230  12.913 -0.2344  0.2857 -0.3364
 7574TIP3   OH244212   2.833   4.876  12.208  0.0280  0.3087 -0.1797
 7574TIP3    H144213   2.849   4.879  12.302 -0.3109  0.1747 -0.1169
 7574TIP3    H244214   2.738   4.871  12.200  0.1142 -1.2707 -0.4850
 7575TIP3   OH244215   6.461   4.675  13.126  0.2415  0.1059 -0.2672
 7575TIP3    H144216   6.476   4.676  13.221  0.5115 -0.3657 -0.2989
 7575TIP3    H244217   6.397   4.605  13.113  1.4998 -1.0025 -0.6072
 7576TIP3   OH244218   0.342   6.542   0.277  0.6072 -0.6724 -0.2145
 7576TIP3    H144219   0.247   6.548   0.281  0.6535  0.8035 -0.8541
 7576TIP3    H244220   0.362   6.453   0.307 -0.9499 -0.9323  0.1010
 7577TIP3   OH244221   6.548   5.397   5.542  0.1723  0.4719  0.0275
 7577TIP3    H144222   6.553   5.362   5.453  0.4423  1.3441 -0.3063
 7577TIP3    H244223   6.481   5.344   5.585 -0.5929  0.6263 -0.9612
 7578TIP3   OH244224   2.468   3.996   5.183  0.0731  0.0316  0.4973
 7578TIP3    H144225   2.551   3.970   5.221 -0.9961 -1.0155  2.1720
 7578TIP3    H244226   2.449   3.929   5.117 -1.4355 -2.1194  3.0278
 7579TIP3   OH244227   5.947   4.519  15.428 -0.1748 -0.1444 -0.0654
 7579TIP3    H144228   5.984   4.510  15.515 -0.3855 -0.0838  0.0298
 7579TIP3    H244229   5.992   4.595  15.390 -0.5949  0.2614  0.2501
 7580TIP3   OH244230   2.217   5.908   2.835  0.1589  0.9664 -0.5494
 7580TIP3    H144231   2.274   5.896   2.759  0.6902  0.1629 -0.0411
 7580TIP3    H244232   2.230   5.999   2.861  1.0868  0.8383 -0.5471
 7581TIP3   OH244233   0.420   5.805  14.985  0.2674 -0.2800  0.0298
 7581TIP3    H144234   0.429   5.710  14.987  1.7059 -0.1320  1.5428
 7581TIP3    H244235   0.325   5.820  14.989  0.0668 -1.6285  0.6919
 7582TIP3   OH244236   1.331   0.405  12.882 -0.1279 -0.1240  0.0349
 7582TIP3    H144237   1.348   0.377  12.971  1.8987 -0.0513 -0.2979
 7582TIP3    H244238   1.413   0.386  12.835 -1.7090 -1.6406 -2.1659
 7583TIP3   OH244239   6.601   4.797  14.741  0.1497 -0.1821  0.4702
 7583TIP3    H144240   6.667   4.747  14.693  0.4687  0.7278 -0.0548
 7583TIP3    H244241   6.555   4.846  14.674 -0.7729 -0.4674  0.8873
 7584TIP3   OH244242   2.253   1.090   6.122  0.2442  0.3318  0.1139
 7584TIP3    H144243   2.294   1.155   6.180 -0.1403 -1.3317  2.3059
 7584TIP3    H244244   2.279   1.118   6.034  3.7969  0.9462  1.2533
 7585TIP3   OH244245   6.536   2.637  13.198 -0.1192  0.6151  0.1119
 7585TIP3    H144246   6.504   2.705  13.257  0.5318  1.6291 -0.6812
 7585TIP3    H244247   6.612   2.677  13.154  0.0656 -0.4992 -0.6023
 7586TIP3   OH244248   2.561   6.443  12.601  0.5128 -0.4392  0.4135
 7586TIP3    H144249   2.590   6.525  12.642 -0.0036 -1.2106  2.3735
 7586TIP3    H244250   2.555   6.464  12.507 -0.7716  2.1272  1.0161
 7587TIP3   OH244251   6.319   3.239  12.528  0.0225  0.5885 -0.2152
 7587TIP3    H144252   6.359   3.219  12.443 -0.8146 -0.0321 -0.4722
 7587TIP3    H244253   6.285   3.328  12.518  3.0888  1.9474  0.6812
 7588TIP3   OH244254   5.396   1.082  11.238 -0.1228  0.5681  0.4689
 7588TIP3    H144255   5.429   1.126  11.160 -1.0120 -0.6661 -0.6059
 7588TIP3    H244256   5.468   1.027  11.267 -0.3334 -0.1510 -0.3750
 7589TIP3   OH244257   0.330   0.600  17.169  0.1459 -0.3625 -0.4235
 7589TIP3    H144258   0.395   0.530  17.176  1.6646  1.1131  0.9170
 7589TIP3    H244259   0.379   0.680  17.188 -1.8763  0.9042 -0.3437
 7590TIP3   OH244260   1.387   5.179  14.171  0.0379 -0.3197 -0.1692
 7590TIP3    H144261   1.410   5.214  14.256 -0.0822 -1.1934  0.2317
 7590TIP3    H244262   1.371   5.086  14.187 -0.9364 -0.3000 -0.9574
 7591TIP3   OH244263   5.161   5.307  13.510 -0.0589  0.0389  0.3770
 7591TIP3    H144264   5.072   5.338  13.524 -0.7807 -1.0354 -1.6133
 7591TIP3    H244265   5.152   5.239  13.443  2.3649  0.5671 -0.5296
 7592TIP3   OH244266   5.956   5.672   1.174  0.2225 -0.0757 -0.2420
 7592TIP3    H144267   5.888   5.737   1.158 -0.4626 -0.7066  0.0696
 7592TIP3    H244268   5.956   5.661   1.269 -1.2443 -2.1978 -0.4546
 7593TIP3   OH244269   1.094   4.716  12.384 -0.0729 -0.7091 -0.4828
 7593TIP3    H144270   1.084   4.714  12.479  1.6575 -1.5745 -0.2951
 7593TIP3    H244271   1.121   4.805  12.364 -0.0834 -0.6290 -0.1352
 7594TIP3   OH244272   1.228   6.468   4.938  0.6856  0.4946 -0.7586
 7594TIP3    H144273   1.262   6.397   4.994  2.9393  0.4155 -2.2009
 7594TIP3    H244274   1.200   6.423   4.858 -0.1981  0.9516 -0.7150
 7595TIP3   OH244275   1.799   1.027  12.711  0.0962 -0.0495 -0.4844
 7595TIP3    H144276   1.811   1.121  12.721  0.5575 -0.0227 -1.2251
 7595TIP3    H244277   1.766   0.997  12.796 -0.1778  0.7970 -0.2953
 7596TIP3   OH244278   0.747   5.582   2.635  0.7206  0.2664 -0.3797
 7596TIP3    H144279   0.768   5.490   2.625  1.0790  0.3534 -0.4255
 7596TIP3    H244280   0.831   5.624   2.655  0.2081  0.2731  1.8095
 7597TIP3   OH244281   2.166   4.806  16.063 -0.4629 -0.2625 -0.6654
 7597TIP3    H144282   2.230   4.847  16.122  0.2497 -1.0363 -0.8771
 7597TIP3    H244283   2.186   4.842  15.977 -0.0039 -0.8265 -0.8058
 7598TIP3   OH244284   6.509   2.247   3.277 -0.1083 -0.2461  0.7400
 7598TIP3    H144285   6.521   2.183   3.206  1.3853  0.1628  0.6156
 7598TIP3    H244286   6.554   2.208   3.352 -1.7316 -0.7024  1.5159
 7599TIP3   OH244287   6.634   1.438   0.186  0.4578  0.0110 -0.0521
 7599TIP3    H144288   6.559   1.488   0.152  1.1446  0.9737 -0.1574
 7599TIP3    H244289   6.647   1.369   0.121 -1.2350 -1.0441  0.6859
 7600TIP3   OH244290   2.056   0.658  12.193  0.2160 -0.2064  0.0160
 7600TIP3    H144291   2.041   0.712  12.271  1.9459  0.3327  0.0134
 7600TIP3    H244292   1.970   0.646  12.154 -0.3609  1.4609  0.7505
 7601TIP3   OH244293   6.742   5.069   2.870  0.8951 -0.6790 -0.3460
 7601TIP3    H144294   6.746   5.049   2.776  0.1986  0.3997 -0.6176
 7601TIP3    H244295   6.824   5.116   2.888  1.0552 -0.9366 -0.4064
 7602TIP3   OH244296   3.077   5.162  11.895  0.4653  0.2130 -0.0801
 7602TIP3    H144297   3.142   5.127  11.956 -0.2185 -1.6389 -0.4011
 7602TIP3    H244298   3.018   5.089  11.877 -1.2566  1.6579 -0.4211
 7603TIP3   OH244299   4.259   2.694  11.904 -0.7955  0.2905  0.0659
 7603TIP3    H144300   4.246   2.616  11.958  4.1740 -1.3982 -0.9170
 7603TIP3    H244301   4.300   2.757  11.964  0.3485  0.0952 -0.4941
 7604TIP3   OH244302   6.753   5.336  16.718  0.3393  0.2190  0.5401
 7604TIP3    H144303   6.658   5.324  16.727  0.4742 -0.4469  1.1115
 7604TIP3    H244304   6.785   5.252  16.688  0.8799  0.1212  1.3754
 7605TIP3   OH244305   4.202   5.944  15.868 -0.2465 -0.0512 -0.3289
 7605TIP3    H144306   4.263   5.908  15.802  0.4404 -0.2963  0.4247
 7605TIP3    H244307   4.252   6.014  15.909  0.0240 -1.1215  1.2050
 7606TIP3   OH244308   4.064   6.350  15.664  0.2585 -0.4844 -0.1305
 7606TIP3    H144309   4.084   6.264  15.699  4.1199  0.2032 -0.3542
 7606TIP3    H244310   4.066   6.339  15.569  2.2091  0.0930 -0.1792
 7607TIP3   OH244311   0.381   0.631   1.104  0.0944 -0.1041 -0.6686
 7607TIP3    H144312   0.361   0.583   1.023 -0.8947  2.7311 -2.1533
 7607TIP3    H244313   0.316   0.599   1.167 -1.6090  0.4186 -2.1096
 7608TIP3   OH244314   1.925   3.179  11.445 -0.7131 -0.0474 -0.2884
 7608TIP3    H144315   1.967   3.160  11.362  1.9378 -1.8374  1.3888
 7608TIP3    H244316   1.832   3.162  11.429 -0.2171 -0.5464 -2.8241
 7609TIP3   OH244317   0.741   5.523  15.666  0.0881 -0.9979 -0.3060
 7609TIP3    H144318   0.723   5.433  15.696 -0.5662 -0.3864  1.1889
 7609TIP3    H244319   0.658   5.553  15.628 -0.5185 -0.0870  1.6707
 7610TIP3   OH244320   3.427   0.717   2.729 -0.4557  0.4430 -0.5434
 7610TIP3    H144321   3.444   0.755   2.642 -0.8841  0.7545 -0.4926
 7610TIP3    H244322   3.414   0.624   2.711  1.2945  0.1954 -0.5773
 7611TIP3   OH244323   2.566   2.113   4.485  0.1129  0.0190  0.6453
 7611TIP3    H144324   2.617   2.032   4.484  0.2400  0.0798  1.5587
 7611TIP3    H244325   2.519   2.111   4.568 -1.7468 -0.2458 -0.3867
 7612TIP3   OH244326   1.326   4.485   4.487  0.1589  0.6468 -0.0795
 7612TIP3    H144327   1.252   4.426   4.496 -0.6904  0.7157 -4.9931
 7612TIP3    H244328   1.403   4.430   4.501 -0.7185 -0.1324  1.8422
 7613TIP3   OH244329   4.695   1.670  13.679  0.1095 -0.2429 -0.1217
 7613TIP3    H144330   4.770   1.728  13.674 -0.0897  0.5772  4.2026
 7613TIP3    H244331   4.732   1.582  13.669  1.5280  0.2162  0.9317
 7614TIP3   OH244332   6.772   4.776   1.844 -0.0317 -0.0400 -0.0709
 7614TIP3    H144333   6.709   4.705   1.831  1.5451 -1.6717  0.8620
 7614TIP3    H244334   6.718   4.854   1.858 -1.8276 -1.2390 -0.1075
 7615TIP3   OH244335   3.392   4.854   3.285  0.4364  0.1618 -0.0146
 7615TIP3    H144336   3.303   4.824   3.301  0.5862 -0.0170  0.5158
 7615TIP3    H244337   3.384   4.921   3.217 -0.0230 -0.3201 -0.4281
 7616TIP3   OH244338   0.443   6.644   0.760 -0.0970  0.5516  0.2791
 7616TIP3    H144339   0.531   6.675   0.778  0.2730 -0.0107 -0.5189
 7616TIP3    H244340   0.443   6.623   0.667 -1.1889  0.9056  0.1894
 7617TIP3   OH244341   0.586   4.712   0.857 -0.4268 -0.1080 -0.0770
 7617TIP3    H144342   0.594   4.633   0.910  3.0126  0.4186  0.3472
 7617TIP3    H244343   0.622   4.688   0.771  1.6350  1.1798  0.3661
 7618TIP3   OH244344   0.354   4.081   5.169 -0.0062  0.0390 -0.5464
 7618TIP3    H144345   0.445   4.058   5.152 -0.6008 -2.7532 -0.2179
 7618TIP3    H244346   0.334   4.150   5.106  1.7498 -0.7821 -2.0392
 7619TIP3   OH244347   5.867   3.513  12.340  0.1655  0.3516  0.4827
 7619TIP3    H144348   5.783   3.558  12.355  0.7620  1.2666  1.0777
 7619TIP3    H244349   5.856   3.472  12.254 -0.4400  1.5172 -0.0135
 7620TIP3   OH244350   3.087   3.807   5.907  0.5545 -0.3833 -0.3763
 7620TIP3    H144351   3.081   3.721   5.948 -0.5898 -0.1077  0.0757
 7620TIP3    H244352   3.082   3.868   5.981 -0.7176  0.1073 -0.8590
 7621TIP3   OH244353   2.225   5.653   5.932 -0.0988 -0.0323  0.3153
 7621TIP3    H144354   2.129   5.657   5.933 -0.0817  1.2014 -1.0759
 7621TIP3    H244355   2.251   5.684   6.019 -0.9054  1.9509 -0.1259
 7622TIP3   OH244356   6.189   3.532  11.650 -0.2285 -0.4842 -0.2242
 7622TIP3    H144357   6.272   3.511  11.692 -0.0539 -1.3093 -0.9707
 7622TIP3    H244358   6.211   3.540  11.557 -0.9608 -0.5638 -0.4046
 7623TIP3   OH244359   3.496   1.448   1.867  0.1293 -0.4404  0.5000
 7623TIP3    H144360   3.573   1.498   1.895  1.0533 -2.0656  0.8936
 7623TIP3    H244361   3.498   1.368   1.919 -0.4756 -1.6128 -1.2276
 7624TIP3   OH244362   4.127   1.310   5.377  0.0104 -0.4059  0.5950
 7624TIP3    H144363   4.223   1.306   5.377  0.0251 -0.1201 -0.2380
 7624TIP3    H244364   4.107   1.400   5.403 -0.0245 -0.3207  0.2719
 7625TIP3   OH244365   3.203   2.328   5.917  0.1242 -0.2780 -0.3613
 7625TIP3    H144366   3.299   2.327   5.916  0.1447  0.4553  0.1406
 7625TIP3    H244367   3.179   2.256   5.975  0.4338  0.7266  1.0672
 7626TIP3   OH244368   3.306   6.618   5.784  0.2442  0.6268  0.0656
 7626TIP3    H144369   3.263   6.553   5.840  0.1184  0.4439 -0.2385
 7626TIP3    H244370   3.366   6.664   5.842  0.5037  0.0814  0.2347
 7627TIP3   OH244371   0.507   0.360   1.400  0.3092 -0.1542  0.8590
 7627TIP3    H144372   0.559   0.414   1.341  0.7964 -0.1252  1.3082
 7627TIP3    H244373   0.539   0.383   1.488 -0.8720  0.3036  1.1798
 7628TIP3   OH244374   2.311   6.093   6.441 -0.0831  0.5831 -0.0144
 7628TIP3    H144375   2.276   6.174   6.479 -0.3577 -0.0377  1.0609
 7628TIP3    H244376   2.406   6.106   6.440 -0.1298  0.9409  0.1085
 7629TIP3   OH244377   4.830   5.542  10.396  0.6408 -0.1108 -0.1733
 7629TIP3    H144378   4.817   5.448  10.384 -0.8331 -0.2444  2.1954
 7629TIP3    H244379   4.752   5.582  10.356  0.8450  0.0641 -0.4001
 7630TIP3   OH244380   5.874   3.805   0.912  0.0292 -0.0242  0.4199
 7630TIP3    H144381   5.805   3.871   0.911 -1.5974 -1.6785  0.9064
 7630TIP3    H244382   5.869   3.763   0.826 -0.5949 -1.1628  0.9995
 7631TIP3   OH244383   4.989   5.848  10.193 -0.0422 -0.5297  0.3394
 7631TIP3    H144384   4.953   5.797  10.120  0.3859 -1.1950  0.5966
 7631TIP3    H244385   4.913   5.897  10.227 -0.7887 -2.1681  1.0767
 7632TIP3   OH244386   5.966   6.684   1.186  0.3524 -0.2173 -0.0678
 7632TIP3    H144387   5.999   6.752   1.128 -1.5556  1.8483  1.1831
 7632TIP3    H244388   5.973   6.722   1.274 -2.0471 -1.0526  0.5254
 7633TIP3   OH244389   3.357   1.540   5.516 -0.0266 -0.2749  0.3868
 7633TIP3    H144390   3.403   1.456   5.510 -0.7010 -0.7026  1.0944
 7633TIP3    H244391   3.311   1.548   5.433  1.9094  0.5020 -0.6191
 7634TIP3   OH244392   0.556   5.939   1.653 -0.2988  0.2050  0.3932
 7634TIP3    H144393   0.578   5.939   1.560 -0.7759  0.6223  0.2818
 7634TIP3    H244394   0.611   5.870   1.691 -0.1969 -0.0466 -0.2167
 7635TIP3   OH244395   2.310   3.977  13.026 -0.9437 -0.0867  0.3688
 7635TIP3    H144396   2.353   3.892  13.028  2.4410  1.5853  1.8635
 7635TIP3    H244397   2.273   3.988  13.113 -1.2943  0.0198  0.2086
 7636TIP3   OH244398   2.305   1.031  15.283 -0.1991  0.2074 -0.7552
 7636TIP3    H144399   2.273   1.067  15.200  0.1752  1.7549 -0.2373
 7636TIP3    H244400   2.319   0.938  15.265  0.8359  0.7207 -2.7132
 7637TIP3   OH244401   4.646   3.989   0.666  0.6034  0.2577  0.4672
 7637TIP3    H144402   4.686   4.075   0.651  0.4356  0.5786  1.7830
 7637TIP3    H244403   4.555   4.009   0.689  0.4895 -0.2982  0.5080
 7638TIP3   OH244404   6.448   1.788   4.487  0.3948  0.2936  0.4833
 7638TIP3    H144405   6.519   1.762   4.546  1.9568 -1.1160 -1.9377
 7638TIP3    H244406   6.422   1.707   4.444 -1.0665  1.2188 -0.4294
 7639TIP3   OH244407   1.608   6.075   1.476 -0.5850  0.2658  0.3110
 7639TIP3    H144408   1.523   6.079   1.520 -0.6251  0.0275  0.2557
 7639TIP3    H244409   1.660   6.014   1.529 -1.0135 -0.9275 -0.6123
 7640TIP3   OH244410   3.623   3.249   5.357  0.2885  0.1966  0.3368
 7640TIP3    H144411   3.710   3.212   5.374 -0.5262 -1.5149  0.8537
 7640TIP3    H244412   3.574   3.178   5.317 -1.6693  0.3196  2.4649
 7641TIP3   OH244413   4.895   1.089  14.619 -0.3270  0.2927 -0.6995
 7641TIP3    H144414   4.988   1.093  14.598  0.0571  1.2331  1.0763
 7641TIP3    H244415   4.869   1.181  14.629 -1.0570 -0.0184  0.3565
 7642TIP3   OH244416   5.044   3.992   4.989  0.3050 -0.0810 -0.0368
 7642TIP3    H144417   4.989   3.992   4.911 -1.0111 -1.3878  0.8592
 7642TIP3    H244418   4.984   4.010   5.061  1.1832 -0.7178  0.8729
 7643TIP3   OH244419   0.773   0.484  15.337  0.4316 -0.1589  0.3645
 7643TIP3    H144420   0.729   0.474  15.422  0.2184 -0.0657  0.2676
 7643TIP3    H244421   0.703   0.471  15.273  0.5316  0.0752  0.2092
 7644TIP3   OH244422   1.445   4.321  13.358 -0.3606 -0.4838  0.8230
 7644TIP3    H144423   1.477   4.323  13.448  0.1318  0.6031  0.6302
 7644TIP3    H244424   1.430   4.228  13.340 -2.5921 -0.5386  2.7655
 7645TIP3   OH244425   1.947   5.559   5.498 -0.0208 -0.0212  0.4981
 7645TIP3    H144426   1.854   5.545   5.481 -0.4326  1.0338  1.8278
 7645TIP3    H244427   1.981   5.593   5.416 -0.8988  0.0023  0.1382
 7646TIP3   OH244428   2.725   2.550  13.398  0.0821 -0.3531  0.4476
 7646TIP3    H144429   2.760   2.615  13.459 -2.1451 -0.7328  2.1860
 7646TIP3    H244430   2.736   2.466  13.442  1.3583 -0.9939 -1.0458
 7647TIP3   OH244431   3.634   4.576   4.893 -0.4399 -0.2417  0.5652
 7647TIP3    H144432   3.691   4.621   4.956 -1.1353 -0.1932  1.1643
 7647TIP3    H244433   3.567   4.535   4.948 -1.8951  1.0108 -0.2624
 7648TIP3   OH244434   3.148   4.540  15.147  0.2975 -0.1490 -0.1149
 7648TIP3    H144435   3.179   4.571  15.061  0.5190 -1.8548 -0.6676
 7648TIP3    H244436   3.057   4.514  15.131 -1.4640  4.5204  1.4202
 7649TIP3   OH244437   4.054   2.335   4.907 -0.3167 -0.3292 -0.2049
 7649TIP3    H144438   4.132   2.342   4.852  0.1359  1.8129  0.6623
 7649TIP3    H244439   4.008   2.418   4.895 -0.2452  0.1552  2.5856
 7650TIP3   OH244440   4.849   1.673  11.300  0.1608  0.3910  0.0957
 7650TIP3    H144441   4.818   1.672  11.209 -0.2784 -0.0472  0.2488
 7650TIP3    H244442   4.803   1.747  11.340  0.0852  0.3636  0.0585
 7651TIP3   OH244443   6.542   0.458   3.630  0.3127 -0.6798 -0.2568
 7651TIP3    H144444   6.512   0.487   3.543  0.9889 -0.2516 -0.3453
 7651TIP3    H244445   6.518   0.530   3.688 -0.1005 -0.9490 -0.0885
 7652TIP3   OH244446   3.861   2.608   1.808 -0.4340  0.1656  0.5108
 7652TIP3    H144447   3.886   2.555   1.883  0.5753 -2.3204 -1.4866
 7652TIP3    H244448   3.941   2.653   1.782 -0.5719  0.3368  0.3759
 7653TIP3   OH244449   1.990   4.602  16.005 -0.1271 -0.1209  0.3035
 7653TIP3    H144450   1.922   4.658  15.968  0.0159  1.0750  1.7911
 7653TIP3    H244451   2.045   4.662  16.056  0.9862 -1.3612  0.5835
 7654TIP3   OH244452   1.893   5.929   0.015  0.1075 -0.4216 -0.1263
 7654TIP3    H144453   1.958   5.933  -0.055  0.1399  1.8746 -0.0184
 7654TIP3    H244454   1.860   6.019   0.022 -1.3846 -1.0610  1.4040
 7655TIP3   OH244455   3.362   6.688   5.290 -0.3320 -0.0410 -0.8316
 7655TIP3    H144456   3.419   6.646   5.225 -0.2221 -0.5915 -0.3825
 7655TIP3    H244457   3.384   6.781   5.285  0.9796 -0.3084 -0.3083
 7656TIP3   OH244458   6.320   2.184  13.063  0.0234  0.0866 -0.6576
 7656TIP3    H144459   6.323   2.271  13.103 -1.3493  0.0454 -0.4606
 7656TIP3    H244460   6.347   2.198  12.973 -0.9410  0.8343 -0.8270
 7657TIP3   OH244461   3.841   5.295   1.592  0.1940 -0.7205  0.3712
 7657TIP3    H144462   3.839   5.215   1.644  0.6268 -1.3786 -0.6182
 7657TIP3    H244463   3.761   5.293   1.541 -0.0064 -0.3001  0.6622
 7658TIP3   OH244464   2.270   1.735  13.275  0.3633  0.0717  0.4529
 7658TIP3    H144465   2.241   1.646  13.294 -0.1474  0.9465  4.1720
 7658TIP3    H244466   2.194   1.779  13.238  0.3499 -0.7845 -0.5313
 7659TIP3   OH244467   3.545   1.308  13.352  0.3329  0.4732 -0.2327
 7659TIP3    H144468   3.494   1.387  13.369 -1.0972 -0.4571 -0.1028
 7659TIP3    H244469   3.520   1.282  13.263  0.6720  0.0837 -0.2170
 7660TIP3   OH244470   5.755   3.106   0.604  0.1982  0.4824  0.4734
 7660TIP3    H144471   5.665   3.108   0.572  1.0492  1.6184 -1.9569
 7660TIP3    H244472   5.755   3.165   0.680 -0.9655  0.8973  0.1618
 7661TIP3   OH244473   6.532   5.227  14.251 -0.2660 -0.4570  0.6284
 7661TIP3    H144474   6.496   5.233  14.340 -0.5025  0.1306  0.4909
 7661TIP3    H244475   6.469   5.273  14.196 -1.8350 -3.6272 -0.3539
 7662TIP3   OH244476   2.873   1.470  14.070  0.3932  0.0731 -0.3880
 7662TIP3    H144477   2.954   1.509  14.103  0.2606  0.2654 -0.2926
 7662TIP3    H244478   2.863   1.389  14.121 -1.1891  1.6501  1.8995
 7663TIP3   OH244479   4.800   0.473   3.408  0.0925  0.3364 -0.0243
 7663TIP3    H144480   4.757   0.432   3.483  0.6810  0.6935  0.5089
 7663TIP3    H244481   4.728   0.513   3.358 -0.3956 -0.6286 -0.1139
 7664TIP3   OH244482   3.876   1.281  12.434  0.1476 -0.0488  0.2001
 7664TIP3    H144483   3.864   1.248  12.345  1.4690 -0.8103  0.3014
 7664TIP3    H244484   3.837   1.214  12.490  0.2818 -0.0767  0.2605
 7665TIP3   OH244485   4.767   5.485   4.113 -0.0437  0.4631  0.2302
 7665TIP3    H144486   4.788   5.501   4.205 -0.3254  1.3035  0.1515
 7665TIP3    H244487   4.672   5.488   4.110 -0.0650 -0.3565  0.0512
 7666TIP3   OH244488   1.408   0.113   0.964 -0.4452  0.6238  0.2436
 7666TIP3    H144489   1.377   0.172   0.895  2.5413  3.4194  1.1167
 7666TIP3    H244490   1.487   0.072   0.927 -1.1050 -0.9564  0.5592
 7667TIP3   OH244491   1.359   1.471   0.154 -0.0099  0.3424 -0.6906
 7667TIP3    H144492   1.386   1.399   0.211 -2.6702 -2.1496 -2.4133
 7667TIP3    H244493   1.309   1.529   0.211  1.4907  0.4572  0.5423
 7668TIP3   OH244494   2.901   0.809  11.712 -0.0359  0.1065 -0.4931
 7668TIP3    H144495   2.987   0.834  11.677 -0.6595  3.2703  0.0782
 7668TIP3    H244496   2.841   0.876  11.679 -1.4311  0.6186  2.8287
 7669TIP3   OH244497   5.014   5.005   5.863 -0.6877 -0.4183 -0.0270
 7669TIP3    H144498   4.990   4.952   5.787 -0.0504  0.0691 -0.5726
 7669TIP3    H244499   5.056   4.943   5.923  1.3042 -0.3063 -1.2410
 7670TIP3   OH244500   5.860   6.753  11.581 -0.1256 -0.2216 -0.3425
 7670TIP3    H144501   5.941   6.801  11.599 -0.1186  0.2354 -1.5172
 7670TIP3    H244502   5.885   6.687  11.517 -0.7426  0.1394 -0.9625
 7671TIP3   OH244503   3.983   1.854  15.823  0.3952  0.1019  0.3673
 7671TIP3    H144504   3.901   1.814  15.851 -0.0267 -1.0540 -2.3768
 7671TIP3    H244505   4.051   1.797  15.857 -0.0267 -0.0778  0.9028
 7672TIP3   OH244506   3.546   2.945  13.312 -0.1693  0.2676 -0.4616
 7672TIP3    H144507   3.483   2.894  13.261 -0.6926 -0.7624  1.1542
 7672TIP3    H244508   3.631   2.906  13.291 -0.2710  0.4915 -1.2884
 7673TIP3   OH244509   4.362   4.053   6.079  0.2699  0.0259 -0.3146
 7673TIP3    H144510   4.349   4.051   6.173 -0.0560  1.1608 -0.3268
 7673TIP3    H244511   4.344   4.144   6.054  0.9268 -0.1260 -1.3834
 7674TIP3   OH244512   5.111   5.101   2.246 -0.6630 -0.1059  0.4971
 7674TIP3    H144513   5.163   5.047   2.186  0.7440  0.6310  1.0288
 7674TIP3    H244514   5.155   5.092   2.331 -1.0193  1.0743  0.8107
 7675TIP3   OH244515   3.321   4.599  15.340 -0.0604  0.2515  0.1820
 7675TIP3    H144516   3.263   4.567  15.271  1.2650  0.2155 -0.9422
 7675TIP3    H244517   3.388   4.531  15.348 -1.1471 -0.5640  2.7194
 7676TIP3   OH244518   6.318   6.458   0.994  0.2455 -0.1770 -0.6129
 7676TIP3    H144519   6.300   6.524   0.927  0.3622  0.7777  0.2809
 7676TIP3    H244520   6.359   6.507   1.065 -1.6054 -0.8588  0.9528
 7677TIP3   OH244521   1.636   5.523   0.097 -0.0431  0.2286  0.5103
 7677TIP3    H144522   1.731   5.514   0.088 -0.1994 -0.2166 -0.8233
 7677TIP3    H244523   1.612   5.455   0.160  0.1040 -1.9583 -1.7369
 7678TIP3   OH244524   0.399   5.228   0.276  0.2187  0.0606 -0.2839
 7678TIP3    H144525   0.480   5.258   0.316 -0.1489  0.8646 -0.1376
 7678TIP3    H244526   0.366   5.160   0.334  1.6960 -1.5324 -1.2563
 7679TIP3   OH244527   6.670   2.383   6.962 -0.1014  0.2266  0.1507
 7679TIP3    H144528   6.708   2.309   6.915  1.1357 -0.0911  1.6469
 7679TIP3    H244529   6.722   2.458   6.933  2.3053 -0.3359  2.8625
 7680TIP3   OH244530   4.253   6.632  12.627 -0.3331 -0.4298 -0.2773
 7680TIP3    H144531   4.343   6.598  12.627  0.8507  2.4816 -0.5034
 7680TIP3    H244532   4.223   6.621  12.717  0.9125  0.1194  0.2249
 7681TIP3   OH244533   2.445   1.121  15.871 -0.3192 -0.0727  0.1085
 7681TIP3    H144534   2.437   1.204  15.918  0.0212 -0.1757  0.3521
 7681TIP3    H244535   2.539   1.106  15.866 -0.3857 -0.5980  0.3390
 7682TIP3   OH244536   5.825   2.904   4.125  0.5178 -0.1032  0.2162
 7682TIP3    H144537   5.760   2.835   4.111  0.2166  0.3165 -0.4739
 7682TIP3    H244538   5.777   2.974   4.169  1.4085 -1.3269  3.2751
 7683TIP3   OH244539   2.135   0.387  12.388 -0.5420 -0.2498 -0.2686
 7683TIP3    H144540   2.133   0.319  12.455 -0.8575  0.5501  0.5358
 7683TIP3    H244541   2.178   0.461  12.430  1.1435 -0.4282 -1.5993
 7684TIP3   OH244542   4.794   1.546   5.596 -0.6233  0.2129 -0.3916
 7684TIP3    H144543   4.766   1.612   5.533 -0.4639  0.2230 -0.4514
 7684TIP3    H244544   4.883   1.572   5.621  0.1465 -0.9768 -1.7715
 7685TIP3   OH244545   2.939   0.824  14.167  0.4440 -0.2708  0.5324
 7685TIP3    H144546   2.938   0.915  14.137  1.1271  0.9591  4.0011
 7685TIP3    H244547   3.027   0.793  14.144  0.5600  0.2619  0.2353
 7686TIP3   OH244548   1.779   5.727  16.113 -0.2028 -0.4371 -0.3441
 7686TIP3    H144549   1.816   5.721  16.201 -1.2317  0.6759  0.1836
 7686TIP3    H244550   1.845   5.689  16.055  1.6796  1.3967  0.5751
 7687TIP3   OH244551   4.408   2.434  16.552 -0.1543  0.3800  0.5337
 7687TIP3    H144552   4.424   2.385  16.471 -0.5308 -0.1668  0.7831
 7687TIP3    H244553   4.376   2.368  16.613  1.1562  0.5900  1.4613
 7688TIP3   OH244554   4.524   1.110   2.593  0.3257  0.3923 -0.5922
 7688TIP3    H144555   4.515   1.107   2.498  0.1124  0.2919 -0.5679
 7688TIP3    H244556   4.446   1.156   2.624  1.1490  1.8516 -0.5869
 7689TIP3   OH244557   0.754   0.076   4.584  0.7805  0.5848  0.1994
 7689TIP3    H144558   0.705   0.158   4.587 -1.3036 -0.6429  1.6365
 7689TIP3    H244559   0.778   0.059   4.675 -0.0218 -1.0715  0.1300
 7690TIP3   OH244560   3.075   5.530   2.035  0.2111  0.3257  0.0746
 7690TIP3    H144561   3.170   5.529   2.045  0.1577 -0.2409  0.6373
 7690TIP3    H244562   3.042   5.531   2.125 -0.3141  1.0655 -0.1228
 7691TIP3   OH244563   2.996   4.408   4.061  0.7309  0.1626 -0.1065
 7691TIP3    H144564   2.915   4.418   4.010  0.7324 -0.3284 -0.2102
 7691TIP3    H244565   2.966   4.384   4.148  0.6956  1.8615  0.3564
 7692TIP3   OH244566   4.705   1.052  16.364  0.1530  0.1911 -0.2849
 7692TIP3    H144567   4.697   1.125  16.302  0.5294  0.4266 -0.0620
 7692TIP3    H244568   4.699   1.094  16.450 -1.2982 -0.2369 -0.1528
 7693TIP3   OH244569   1.066   5.743   3.159 -0.9412  0.4618  0.1176
 7693TIP3    H144570   1.139   5.747   3.098 -2.0601  0.0856 -1.2831
 7693TIP3    H244571   1.029   5.832   3.157  0.3240  1.0520  1.9171
 7694TIP3   OH244572   4.977   1.286   0.757 -0.1768  0.1491 -0.1336
 7694TIP3    H144573   5.041   1.328   0.815 -0.2596 -0.2241  0.2252
 7694TIP3    H244574   5.030   1.248   0.687  0.1035 -1.1432  0.7610
 7695TIP3   OH244575   6.573   4.111   3.326  0.1035 -0.3624 -0.1555
 7695TIP3    H144576   6.637   4.082   3.262 -0.6535 -1.8987 -0.2310
 7695TIP3    H244577   6.579   4.047   3.397  0.6137  1.0587  1.1104
 7696TIP3   OH244578   5.371   3.124  13.327  0.8575 -0.1729 -0.0210
 7696TIP3    H144579   5.416   3.158  13.404  1.4827  0.0720 -0.4827
 7696TIP3    H244580   5.441   3.083  13.275  0.5632  0.2576 -0.7706
 7697TIP3   OH244581   4.499   0.386   3.851 -0.0846  0.2658  0.8082
 7697TIP3    H144582   4.441   0.458   3.875 -0.7135  0.4710 -1.2410
 7697TIP3    H244583   4.493   0.381   3.756  1.7937 -0.9589  0.7264
 7698TIP3   OH244584   0.695   3.155   3.169 -0.1032 -0.0282  0.0385
 7698TIP3    H144585   0.636   3.104   3.224 -0.3870  0.5942  0.3167
 7698TIP3    H244586   0.645   3.234   3.146  0.4700  0.3171 -0.0523
 7699TIP3   OH244587   6.816   5.901   0.863 -0.4469 -0.2770 -0.2420
 7699TIP3    H144588   6.893   5.956   0.852 -0.7305  0.6545  2.0422
 7699TIP3    H244589   6.755   5.955   0.913 -2.3569 -1.2110 -1.4883
 7700TIP3   OH244590   1.865   5.159  14.838  0.8719  0.4013 -0.1038
 7700TIP3    H144591   1.878   5.101  14.913 -0.4403 -0.2956 -0.3924
 7700TIP3    H244592   1.946   5.152  14.788  1.5607  0.4887  0.9942
 7701TIP3   OH244593   6.567   2.174   1.355 -0.3521 -0.3537 -0.1746
 7701TIP3    H144594   6.516   2.109   1.404  0.2002 -1.1943 -0.7016
 7701TIP3    H244595   6.518   2.256   1.365 -1.4468 -1.0075 -0.1088
 7702TIP3   OH244596   1.811   3.476  16.398  0.5123  0.0803 -0.3435
 7702TIP3    H144597   1.759   3.556  16.412  0.7114  0.4817 -1.7719
 7702TIP3    H244598   1.749   3.404  16.409 -0.1267  0.5200 -0.9990
 7703TIP3   OH244599   1.506   2.651  13.804  0.0714  0.3944 -0.6231
 7703TIP3    H144600   1.480   2.738  13.773 -0.7565 -0.0576 -1.2109
 7703TIP3    H244601   1.430   2.596  13.788  1.0341 -0.7234 -1.4236
 7704TIP3   OH244602   1.161   5.508   1.475 -0.1937  0.2512  0.6347
 7704TIP3    H144603   1.075   5.546   1.494 -0.7694 -0.4418 -0.4939
 7704TIP3    H244604   1.141   5.421   1.440  0.8968  0.6545 -1.0330
 7705TIP3   OH244605   3.499   0.492  12.149  0.1381  0.3266 -0.0781
 7705TIP3    H144606   3.498   0.530  12.236 -0.5150 -0.2056  0.1514
 7705TIP3    H244607   3.492   0.397  12.164 -0.5003  0.2688 -0.7239
 7706TIP3   OH244608   5.679   5.980   2.761  0.7496  0.0715 -0.3788
 7706TIP3    H144609   5.711   5.947   2.676 -0.7286 -1.3591 -0.4072
 7706TIP3    H244610   5.725   6.063   2.773  1.6181 -0.1129 -2.1893
 7707TIP3   OH244611   4.685   2.527   1.948  0.1490 -0.1948  0.1979
 7707TIP3    H144612   4.623   2.552   1.879 -0.4300 -0.6889  0.5370
 7707TIP3    H244613   4.688   2.603   2.006 -1.5090 -0.8367  1.1550
 7708TIP3   OH244614   4.304   1.819   1.570  0.0084 -0.3251 -0.3734
 7708TIP3    H144615   4.359   1.800   1.646  0.3858 -0.2305 -0.6229
 7708TIP3    H244616   4.269   1.734   1.543  1.3119 -0.6156 -1.1946
 7709TIP3   OH244617   3.030   4.507  10.870  0.0615 -0.8916  0.4177
 7709TIP3    H144618   2.956   4.485  10.927  0.9042 -0.9424  1.5170
 7709TIP3    H244619   3.048   4.599  10.889 -0.5640 -0.5050 -0.8300
 7710TIP3   OH244620   1.320   5.200  14.897  0.2178 -0.0192 -0.4871
 7710TIP3    H144621   1.239   5.200  14.846 -0.0932 -1.2525 -0.0273
 7710TIP3    H244622   1.342   5.107  14.906 -0.2459  0.1180  2.4252
 7711TIP3   OH244623   1.900   3.360  12.353 -0.0895  0.1145  0.2947
 7711TIP3    H144624   1.938   3.274  12.336  1.8348  1.2223 -1.1417
 7711TIP3    H244625   1.823   3.363  12.296 -0.6289 -0.9483  0.9413
 7712TIP3   OH244626   5.760   0.342   0.925  0.7000  0.2879 -0.0324
 7712TIP3    H144627   5.669   0.364   0.903  0.9498  0.1220 -1.2496
 7712TIP3    H244628   5.783   0.405   0.993 -1.1244 -1.2515  2.1074
 7713TIP3   OH244629   6.030   0.123   3.239 -0.4906  0.7843  0.9864
 7713TIP3    H144630   6.057   0.210   3.269  0.5022 -0.1363  2.8593
 7713TIP3    H244631   5.971   0.092   3.308 -0.6130 -0.1352  0.4753
 7714TIP3   OH244632   1.218   2.929  12.455  0.6389 -0.5122 -0.2801
 7714TIP3    H144633   1.308   2.953  12.477  0.2883  0.9117 -0.3513
 7714TIP3    H244634   1.178   2.906  12.539  0.7398  0.0067 -0.0869
 7715TIP3   OH244635   5.648   2.564  15.245  0.2686  0.3589 -0.5730
 7715TIP3    H144636   5.594   2.638  15.273 -0.0457  0.1902 -0.7231
 7715TIP3    H244637   5.590   2.512  15.189 -0.3197 -1.3161  1.5103
 7716TIP3   OH244638   2.797   3.869  12.140 -0.4981  0.0415  0.4639
 7716TIP3    H144639   2.728   3.866  12.206 -0.6206 -0.1257  0.3299
 7716TIP3    H244640   2.868   3.817  12.177 -0.6860 -0.3111  0.3300
 7717TIP3   OH244641   0.058   6.097  12.460 -0.3865  0.1003 -0.4858
 7717TIP3    H144642  -0.028   6.058  12.477  0.5184 -1.9531 -0.3891
 7717TIP3    H244643   0.106   6.084  12.542  0.8693 -1.2138 -1.3839
 7718TIP3   OH244644   5.345   0.942   3.579 -0.2472  0.3331 -0.3254
 7718TIP3    H144645   5.353   0.865   3.522 -0.5744  0.8095 -1.0308
 7718TIP3    H244646   5.296   1.006   3.526  1.7351  1.7645 -0.5130
 7719TIP3   OH244647   4.928   5.594  13.571 -0.1007 -0.2183  0.0331
 7719TIP3    H144648   4.992   5.574  13.639  2.0148  0.3180 -1.7540
 7719TIP3    H244649   4.916   5.512  13.524  2.3813  0.6309 -2.1639
 7720TIP3   OH244650   5.500   6.739  14.882 -0.3295  0.5679  0.1494
 7720TIP3    H144651   5.536   6.816  14.838 -0.0321  1.4003  1.7930
 7720TIP3    H244652   5.459   6.774  14.962 -0.3638 -0.9529  0.8256
 7721TIP3   OH244653   4.489   0.717   1.884  0.0249 -0.4521 -0.5071
 7721TIP3    H144654   4.426   0.768   1.934 -0.7512 -3.2757  1.5212
 7721TIP3    H244655   4.574   0.756   1.905 -0.4516 -0.5867  1.7953
 7722TIP3   OH244656   1.408   2.746  15.365  0.6263 -0.0888 -0.2433
 7722TIP3    H144657   1.393   2.781  15.277 -1.0459 -0.6509 -0.1984
 7722TIP3    H244658   1.490   2.788  15.394 -0.1510  2.0507 -1.0538
 7723TIP3   OH244659   3.672   1.252   5.846 -0.2185 -0.0406  0.1811
 7723TIP3    H144660   3.612   1.227   5.917 -1.1910  0.1301 -0.5753
 7723TIP3    H244661   3.685   1.346   5.860  0.2629 -0.1709  0.6327
 7724TIP3   OH244662   5.044   1.746  12.463  0.8306  0.6431 -0.5005
 7724TIP3    H144663   4.988   1.669  12.467  1.8050 -0.0799 -0.4654
 7724TIP3    H244664   5.016   1.793  12.385 -1.7446  1.8304  1.0580
 7725TIP3   OH244665   1.328   2.669   0.930 -0.4149 -0.2317 -0.3476
 7725TIP3    H144666   1.321   2.652   0.836 -1.2788 -1.1763 -0.1306
 7725TIP3    H244667   1.395   2.608   0.960 -0.9973 -0.7920 -0.1605
 7726TIP3   OH244668   0.502   2.035  14.304  0.4376 -0.4355 -0.1687
 7726TIP3    H144669   0.556   2.112  14.321  2.4056 -1.6571 -0.6640
 7726TIP3    H244670   0.430   2.067  14.250  1.7543  0.8878 -1.1724
 7727TIP3   OH244671   6.416   2.506  14.098 -0.1374 -0.5796 -0.0726
 7727TIP3    H144672   6.490   2.451  14.127  0.5118  0.5687  0.4631
 7727TIP3    H244673   6.387   2.464  14.017  0.3289 -1.7468  0.3462
 7728TIP3   OH244674   0.025   2.463   1.344 -0.0138  0.3118 -0.2502
 7728TIP3    H144675   0.107   2.474   1.392 -1.0790 -0.9380  1.9098
 7728TIP3    H244676   0.005   2.370   1.353 -1.5237  0.5593 -1.0254
 7729TIP3   OH244677   4.992   0.515   0.878 -0.5849 -0.3650 -0.1464
 7729TIP3    H144678   4.911   0.544   0.837 -0.7164  0.7467  0.8742
 7729TIP3    H244679   5.000   0.568   0.957 -0.0609 -2.0866  1.0005
 7730TIP3   OH244680   6.266   4.452   4.807  0.5682 -0.5054 -0.3100
 7730TIP3    H144681   6.235   4.532   4.850 -0.1656 -0.9464 -0.0243
 7730TIP3    H244682   6.361   4.455   4.816  0.4161 -0.5857  1.3204
 7731TIP3   OH244683   6.344   6.390   3.793 -0.2911 -0.0529 -0.7117
 7731TIP3    H144684   6.402   6.438   3.852 -2.1486  0.0757  1.0886
 7731TIP3    H244685   6.401   6.356   3.724  1.6230  1.5160  0.0665
 7732TIP3   OH244686   3.134   3.621   2.318 -0.5540  0.0284  0.3821
 7732TIP3    H144687   3.105   3.529   2.317  0.1970 -0.2175 -1.3012
 7732TIP3    H244688   3.227   3.616   2.340 -0.5909  0.4109  0.6164
 7733TIP3   OH244689   0.527   1.523   3.028  0.2567  0.0791 -0.1395
 7733TIP3    H144690   0.546   1.470   3.105  2.5764  1.5468  0.3513
 7733TIP3    H244691   0.590   1.494   2.963  0.6590  1.3058 -0.3022
 7734TIP3   OH244692   3.938   3.609  14.591 -0.0299 -0.1380 -0.5404
 7734TIP3    H144693   3.909   3.518  14.578 -0.0565 -0.5930  2.4739
 7734TIP3    H244694   4.023   3.601  14.633 -0.2532  1.2515  0.1816
 7735TIP3   OH244695   4.740   2.187  12.813  0.2229  0.0165 -0.2068
 7735TIP3    H144696   4.788   2.125  12.758  2.0232 -0.7741  2.1765
 7735TIP3    H244697   4.707   2.135  12.886 -2.5866  0.9464 -0.7447
 7736TIP3   OH244698   6.005   0.463  11.832  0.3861  0.0812 -0.4080
 7736TIP3    H144699   6.070   0.463  11.902 -0.7343  0.7191  0.6482
 7736TIP3    H244700   5.988   0.370  11.815  0.9690 -0.0763 -0.1291
 7737TIP3   OH244701   3.644   2.926   2.332 -0.0495  0.1336  0.0151
 7737TIP3    H144702   3.697   2.973   2.267 -0.9523 -1.8044 -2.1647
 7737TIP3    H244703   3.555   2.956   2.316 -0.0610  1.0964  1.6957
 7738TIP3   OH244704   4.311   5.429  12.572  0.7523 -0.4457 -0.5500
 7738TIP3    H144705   4.298   5.335  12.584  1.3977 -0.5192 -0.3705
 7738TIP3    H244706   4.224   5.467  12.574  0.7192 -0.6221  2.8219
 7739TIP3   OH244707   6.209   1.250   0.706 -0.2154 -0.0969 -0.5151
 7739TIP3    H144708   6.297   1.278   0.680 -0.1467  1.3910  1.1913
 7739TIP3    H244709   6.150   1.314   0.666 -0.2807  0.6811  0.7715
 7740TIP3   OH244710   5.722   2.613  11.724 -0.4590  0.1824  0.3095
 7740TIP3    H144711   5.742   2.586  11.813  0.5481  1.1356  0.3824
 7740TIP3    H244712   5.775   2.556  11.669 -1.4545 -0.7359  0.2972
 7741TIP3   OH244713   1.079   1.147  11.577 -0.1106  0.0062 -0.6689
 7741TIP3    H144714   1.110   1.156  11.487  0.3431  0.6892 -0.4498
 7741TIP3    H244715   1.147   1.189  11.630 -1.1902  1.0903 -0.1369
 7742TIP3   OH244716   5.540   3.786  14.274 -0.0456  0.1658 -0.3530
 7742TIP3    H144717   5.551   3.735  14.354  1.5984 -1.4668 -1.5853
 7742TIP3    H244718   5.599   3.860  14.284 -0.7592  0.6292  0.4677
 7743TIP3   OH244719   2.992   0.707   1.533  0.3312  0.6589 -0.2143
 7743TIP3    H144720   2.994   0.671   1.444 -1.0869  0.1587 -0.0419
 7743TIP3    H244721   2.943   0.643   1.584 -0.4000  1.8246  0.5517
 7744TIP3   OH244722   6.581   3.719   1.467 -0.2874 -0.5294  0.2146
 7744TIP3    H144723   6.507   3.681   1.514 -0.0735 -1.1865  0.0325
 7744TIP3    H244724   6.605   3.653   1.402  1.1906 -0.8372  1.0308
 7745TIP3   OH244725   1.896   6.441   1.157 -0.4318  0.3078 -0.5854
 7745TIP3    H144726   1.836   6.444   1.082 -0.3720 -0.6681 -0.6690
 7745TIP3    H244727   1.853   6.384   1.221 -0.8790  1.8029  0.4796
 7746TIP3   OH244728   6.365   5.161  17.157  0.2633 -0.5491 -0.1139
 7746TIP3    H144729   6.439   5.217  17.132  0.0265 -0.7333 -1.2401
 7746TIP3    H244730   6.364   5.092  17.090 -0.2653 -1.1479  0.5105
 7747TIP3   OH244731   3.095   4.703   1.405 -0.4239 -1.3244 -0.1120
 7747TIP3    H144732   3.058   4.629   1.356  1.1964 -2.0691 -0.2287
 7747TIP3    H244733   3.124   4.764   1.337  0.6967 -1.7960 -0.0537
 7748TIP3   OH244734   0.856   3.674   1.152  0.8014  0.3153 -0.0747
 7748TIP3    H144735   0.926   3.686   1.088 -1.2241  2.3583 -1.9814
 7748TIP3    H244736   0.870   3.743   1.217 -0.0019  1.3941 -1.0210
 7749TIP3   OH244737   5.490   4.298  17.022  0.2755 -0.2071 -0.4159
 7749TIP3    H144738   5.504   4.325  16.932 -1.2234 -0.2647 -0.6752
 7749TIP3    H244739   5.523   4.209  17.027 -1.1808 -0.8122 -1.3479
 7750TIP3   OH244740   1.055   1.853  14.668  0.1683  0.1207 -0.4506
 7750TIP3    H144741   0.994   1.908  14.717  1.5847  2.2071 -0.9416
 7750TIP3    H244742   1.054   1.769  14.713 -1.5290  0.7608  0.7445
 7751TIP3   OH244743   2.738   0.230  13.862 -0.0762 -0.3913  0.1575
 7751TIP3    H144744   2.752   0.144  13.823  0.3391 -1.0003  1.6136
 7751TIP3    H244745   2.825   0.269  13.865 -0.2432  0.0238 -0.3704
 7752TIP3   OH244746   3.548   4.134  15.177 -0.3104  0.3390  0.1385
 7752TIP3    H144747   3.530   4.061  15.118 -0.7464  1.2912 -0.9034
 7752TIP3    H244748   3.472   4.190  15.170 -0.4767  0.3444  1.8006
 7753TIP3   OH244749   1.593   3.083   1.384  0.0145 -0.5970  0.1934
 7753TIP3    H144750   1.653   3.064   1.313 -1.5336 -1.0429 -1.0322
 7753TIP3    H244751   1.649   3.104   1.458  1.6586 -0.4077 -1.0751
 7754TIP3   OH244752   5.547   1.689  11.677  0.5474 -0.7831  0.4392
 7754TIP3    H144753   5.488   1.648  11.740 -0.7596  0.3941  0.0015
 7754TIP3    H244754   5.523   1.651  11.593 -0.2690  0.4291  0.1171
 7755TIP3   OH244755   1.353   0.576  15.395 -0.3675  0.0424 -1.0715
 7755TIP3    H144756   1.418   0.508  15.408 -0.4714 -0.0381 -0.9642
 7755TIP3    H244757   1.279   0.549  15.450 -0.9338 -0.4556 -2.0874
 7756TIP3   OH244758   2.459   1.284   3.885  0.3391 -0.1999 -0.4091
 7756TIP3    H144759   2.376   1.260   3.843  0.0177  0.3418 -0.0963
 7756TIP3    H244760   2.447   1.376   3.911  0.7983 -0.3105  0.2184
 7757TIP3   OH244761   3.085   5.297  13.833 -0.5839  0.0775  0.4512
 7757TIP3    H144762   3.000   5.329  13.804  0.6731  2.7035 -0.5780
 7757TIP3    H244763   3.098   5.338  13.919 -0.1193  0.1511  0.3462
 7758TIP3   OH244764   6.108   5.524   5.482  0.4170 -0.6674  0.1420
 7758TIP3    H144765   6.097   5.590   5.414  4.1402  0.7477  0.7921
 7758TIP3    H244766   6.023   5.521   5.527 -0.3241  2.5038 -0.9425
 7759TIP3   OH244767   6.389   3.344   3.266 -0.0135 -1.0648  0.2338
 7759TIP3    H144768   6.345   3.266   3.299  1.0712 -2.3879 -1.3682
 7759TIP3    H244769   6.335   3.374   3.193  0.7608 -1.6603 -0.6012
 7760TIP3   OH244770   5.461   0.074  15.371  0.0202 -0.5426 -0.2408
 7760TIP3    H144771   5.543   0.096  15.414  0.8304 -2.4856 -0.7130
 7760TIP3    H244772   5.433  -0.008  15.412  0.1159 -1.7088 -2.4079
 7761TIP3   OH244773   0.047   0.009  14.091 -0.1456 -0.0740 -0.0932
 7761TIP3    H144774   0.008   0.040  14.010  1.2507  1.0988 -0.3218
 7761TIP3    H244775  -0.025   0.010  14.154 -1.8440 -3.3052 -1.8579
 7762TIP3   OH244776   2.494   1.716  12.781  0.0793 -0.4902 -0.0159
 7762TIP3    H144777   2.428   1.647  12.783  0.2018 -0.5986  0.2611
 7762TIP3    H244778   2.448   1.792  12.744 -0.4715 -0.2917  1.0470
 7763TIP3   OH244779   6.723   1.285   1.464  0.4905  0.2289  0.1430
 7763TIP3    H144780   6.710   1.281   1.369 -0.2402 -0.2195  0.2517
 7763TIP3    H244781   6.673   1.211   1.497  2.3489 -0.7957  0.7250
 7764TIP3   OH244782   3.464   0.594  13.132 -0.0073  0.6714  0.2336
 7764TIP3    H144783   3.559   0.597  13.120  0.0971  0.5177  0.9916
 7764TIP3    H244784   3.434   0.526  13.071  0.3637  0.7470 -0.0343
 7765TIP3   OH244785   0.076   4.644  15.537 -0.5002 -0.1980  0.3847
 7765TIP3    H144786   0.030   4.684  15.611  0.6747  0.9857  0.4872
 7765TIP3    H244787   0.044   4.553  15.536 -1.2561  0.0335  1.7389
 7766TIP3   OH244788   0.547   5.302   4.194  0.2730  0.1739 -0.2882
 7766TIP3    H144789   0.622   5.248   4.170  0.5767 -1.0048  3.0353
 7766TIP3    H244790   0.481   5.240   4.224 -0.6354  1.4107  0.3261
 7767TIP3   OH244791   2.387   0.654  16.511  0.6465 -0.2773 -0.1195
 7767TIP3    H144792   2.314   0.695  16.558  0.8265 -0.9211  0.7326
 7767TIP3    H244793   2.421   0.723  16.454 -1.1709 -0.2074 -1.1621
 7768TIP3   OH244794   1.412   5.214   0.647 -0.5032 -0.4956 -0.3542
 7768TIP3    H144795   1.369   5.156   0.584  0.4078 -2.7452  1.0317
 7768TIP3    H244796   1.506   5.201   0.631 -0.2885  0.7590 -0.1519
 7769TIP3   OH244797   2.202   3.249   1.709 -0.0590 -0.7502 -0.3819
 7769TIP3    H144798   2.227   3.160   1.685  1.0288 -0.5971  0.1548
 7769TIP3    H244799   2.223   3.302   1.632  1.7366 -0.5508  0.2133
 7770TIP3   OH244800   3.708   3.951   1.655 -0.2472  0.6123  0.3235
 7770TIP3    H144801   3.626   3.944   1.704 -0.2425 -3.8572 -0.0970
 7770TIP3    H244802   3.776   3.952   1.723 -0.5599  1.9826  0.6143
 7771TIP3   OH244803   3.290   1.406  15.992  0.5575  0.6055 -0.4122
 7771TIP3    H144804   3.338   1.356  16.058 -0.5941 -0.5404 -0.4176
 7771TIP3    H244805   3.236   1.466  16.042 -0.3344 -0.2799 -0.2855
 7772TIP3   OH244806   0.399   5.480  14.156 -0.5347  0.2923 -0.1281
 7772TIP3    H144807   0.384   5.558  14.102  0.2720  1.4102  1.2449
 7772TIP3    H244808   0.317   5.430  14.150 -1.9131  2.3929  0.8910
 7773TIP3   OH244809   3.694   2.383   3.074 -0.3769  0.1527  0.3081
 7773TIP3    H144810   3.687   2.377   2.979  1.5264 -1.9569  0.2863
 7773TIP3    H244811   3.740   2.466   3.089 -0.9296  0.6336 -0.5571
 7774TIP3   OH244812   1.185   6.638  12.567 -0.2494  0.3157 -0.1442
 7774TIP3    H144813   1.100   6.658  12.528 -0.1218 -0.2492 -0.7188
 7774TIP3    H244814   1.235   6.597  12.496  0.3444  0.2279  0.3186
 7775TIP3   OH244815   0.731   2.004   5.715 -0.1145 -0.1826 -0.0774
 7775TIP3    H144816   0.639   2.006   5.742  0.2844 -1.1273  1.3729
 7775TIP3    H244817   0.768   2.086   5.746 -0.6313  0.5246 -1.2949
 7776TIP3   OH244818   2.887   2.070   1.032  0.1912 -0.0487 -0.1818
 7776TIP3    H144819   2.927   2.072   1.119 -1.1100 -1.2057  0.4718
 7776TIP3    H244820   2.806   2.021   1.044 -0.4334  0.5074 -1.8828
 7777TIP3   OH244821   0.421   2.124   4.964 -0.1852 -0.0543  0.0509
 7777TIP3    H144822   0.489   2.156   5.022  0.1579  0.2659 -0.5219
 7777TIP3    H244823   0.425   2.183   4.888 -1.1576  0.0272  0.0566
 7778TIP3   OH244824   3.362   3.332   5.040 -0.5349 -0.3529  0.5273
 7778TIP3    H144825   3.457   3.345   5.043 -0.6631  1.6765 -2.1382
 7778TIP3    H244826   3.326   3.414   5.076 -1.2655  0.0409 -1.0688
 7779TIP3   OH244827   5.970   3.438   5.701  0.1775  0.1473  0.2465
 7779TIP3    H144828   5.918   3.482   5.769 -1.9089  0.6312 -1.6183
 7779TIP3    H244829   5.942   3.478   5.619  2.7157 -0.3863 -0.9413
 7780TIP3   OH244830   3.582   1.316  16.519 -0.6162  0.7094 -0.4259
 7780TIP3    H144831   3.530   1.397  16.516  0.5810  1.5507  1.0126
 7780TIP3    H244832   3.579   1.290  16.611  0.3873  0.0225 -0.5928
 7781TIP3   OH244833   6.542   3.755  13.104 -0.0376 -0.2640  0.1973
 7781TIP3    H144834   6.600   3.679  13.104 -0.7715 -0.8912  2.9937
 7781TIP3    H244835   6.460   3.723  13.066  0.1694 -0.4312 -0.1089
 7782TIP3   OH244836   2.231   0.162   3.707 -0.5918  0.2086  0.2781
 7782TIP3    H144837   2.172   0.101   3.752 -0.2229  0.9617  1.8261
 7782TIP3    H244838   2.280   0.204   3.778 -0.5135  1.9584 -0.7895
 7783TIP3   OH244839   4.865   3.775   2.789 -0.3648  0.1443  0.5368
 7783TIP3    H144840   4.949   3.745   2.825 -0.2580 -1.7086 -1.2168
 7783TIP3    H244841   4.800   3.747   2.853  0.3341  1.7414  1.9963
 7784TIP3   OH244842   5.483   4.616   1.346 -0.2992  0.1442  0.0363
 7784TIP3    H144843   5.556   4.638   1.288  0.2340  0.8716  0.9656
 7784TIP3    H244844   5.409   4.666   1.312  0.1861  1.1183  0.3782
 7785TIP3   OH244845   6.347   1.589   2.036 -0.4698  0.1317  0.1015
 7785TIP3    H144846   6.263   1.609   2.077  0.4612  1.8913  1.2209
 7785TIP3    H244847   6.383   1.518   2.089 -0.0632  1.2062  1.2919
 7786TIP3   OH244848   3.711   0.182  15.368 -0.5651  0.0890  0.6922
 7786TIP3    H144849   3.774   0.250  15.342  0.2508 -1.9731 -3.0920
 7786TIP3    H244850   3.639   0.193  15.306 -0.9696 -1.7239  0.8371
 7787TIP3   OH244851   3.883   0.036   2.644  0.2463 -0.5630  0.1597
 7787TIP3    H144852   3.821  -0.029   2.678  0.0863  0.5018  2.0024
 7787TIP3    H244853   3.831   0.092   2.587 -0.1387 -0.6156  0.4601
 7788TIP3   OH244854   5.423   1.540  15.588 -0.1945  0.7076  0.3983
 7788TIP3    H144855   5.494   1.573  15.532 -0.9826  0.2514 -0.9018
 7788TIP3    H244856   5.344   1.548  15.533 -0.6737 -1.6558  0.7101
 7789TIP3   OH244857   0.613   6.311   0.436  1.0641 -0.0089 -0.9073
 7789TIP3    H144858   0.540   6.370   0.416 -0.8999 -1.5237  1.5346
 7789TIP3    H244859   0.662   6.356   0.504 -0.2488 -0.9880  0.7227
 7790TIP3   OH244860   1.021   1.468   0.931 -0.3984  0.0339 -0.2230
 7790TIP3    H144861   1.009   1.471   0.836 -0.2430  0.3412 -0.2315
 7790TIP3    H244862   1.092   1.406   0.945  0.3432  0.8358 -0.3752
 7791TIP3   OH244863   3.201   1.875   2.919  0.9809  0.5293  0.2339
 7791TIP3    H144864   3.113   1.843   2.903  0.2831  1.1112  2.7428
 7791TIP3    H244865   3.250   1.853   2.840 -1.6130  0.9759 -1.5356
 7792TIP3   OH244866   4.183   1.152   3.766 -0.3989 -0.0653 -0.3745
 7792TIP3    H144867   4.250   1.158   3.834 -1.4133 -2.0772  0.8549
 7792TIP3    H244868   4.100   1.168   3.812 -0.9182  0.7319 -1.5602
 7793TIP3   OH244869   5.881   2.263  11.892 -0.0484 -0.4430  0.6547
 7793TIP3    H144870   5.817   2.322  11.931  0.0466  0.7121 -0.8797
 7793TIP3    H244871   5.966   2.298  11.917  0.0178  0.5373 -0.8889
 7794TIP3   OH244872   0.941   5.947  11.568 -0.1689 -0.1983  0.2582
 7794TIP3    H144873   0.933   5.952  11.663  1.1295 -2.4330  0.4981
 7794TIP3    H244874   0.898   5.865  11.544 -1.1461  0.6962 -1.1908
 7795TIP3   OH244875   6.353   2.369   1.721 -0.2472  0.4207  0.0791
 7795TIP3    H144876   6.356   2.275   1.737  0.6964  0.4873  0.2859
 7795TIP3    H244877   6.283   2.380   1.656 -0.0338 -0.4660 -0.3040
 7796TIP3   OH244878   0.036   2.381  13.534  0.4880  0.2089 -0.5767
 7796TIP3    H144879   0.107   2.371  13.597  0.4801  0.7837 -0.4727
 7796TIP3    H244880   0.062   2.327  13.459  1.7010  1.4905 -1.1085
 7797TIP3   OH244881   5.370   0.419  12.712 -0.0633  0.0826  0.4031
 7797TIP3    H144882   5.295   0.474  12.735 -0.9772 -1.8542  2.3347
 7797TIP3    H244883   5.361   0.404  12.618 -2.4104 -0.4789  0.6769
 7798TIP3   OH244884   1.167   1.468  16.050 -0.3125 -0.7352 -0.0156
 7798TIP3    H144885   1.091   1.437  16.100 -1.1923 -0.8279 -1.3674
 7798TIP3    H244886   1.183   1.556  16.082  0.0131 -1.3010  1.4019
 7799TIP3   OH244887   2.569   0.954   5.714 -0.0324  0.5159 -0.5165
 7799TIP3    H144888   2.520   0.922   5.637  1.6724 -0.8862 -1.0428
 7799TIP3    H244889   2.503   0.957   5.784 -0.5372 -3.1296 -0.7342
 7800TIP3   OH244890   1.284   1.976   6.542  0.3872 -0.0352  0.0872
 7800TIP3    H144891   1.231   1.906   6.579 -1.5031  3.1124  3.6959
 7800TIP3    H244892   1.344   2.002   6.613  1.3333  1.7202 -1.2872
 7801TIP3   OH244893   1.680   0.758  15.328  0.4595 -0.1821  0.7214
 7801TIP3    H144894   1.641   0.775  15.242  0.6223  0.7100  0.8200
 7801TIP3    H244895   1.671   0.664  15.340  1.3040 -0.4702 -0.7051
 7802TIP3   OH244896   4.293   4.305   4.938  0.2203 -0.5592 -0.5920
 7802TIP3    H144897   4.205   4.280   4.910 -0.1451  1.1418 -1.0071
 7802TIP3    H244898   4.317   4.239   5.003 -1.9029 -0.3102  0.5124
 7803TIP3   OH244899   6.693   5.059  13.617 -0.1895  0.1729  0.0430
 7803TIP3    H144900   6.623   5.026  13.673 -0.6266  1.9097  0.5586
 7803TIP3    H244901   6.739   4.981  13.587 -0.1936 -0.8179  2.5164
 7804TIP3   OH244902   4.400   5.774  14.072 -0.1417 -0.5423  0.2072
 7804TIP3    H144903   4.457   5.823  14.131  0.2262 -0.3437 -0.3161
 7804TIP3    H244904   4.351   5.840  14.024  1.1895 -0.6306 -1.3355
 7805TIP3   OH244905   4.136   0.612  13.901  0.1429  0.1118 -0.2388
 7805TIP3    H144906   4.181   0.575  13.977  0.6011 -2.2411 -1.6044
 7805TIP3    H244907   4.075   0.543  13.874 -0.9957  1.4638 -1.1799
 7806TIP3   OH244908   2.596   4.669   3.829  0.0171 -0.1374 -0.8019
 7806TIP3    H144909   2.616   4.592   3.882  0.6010  1.0232  0.7179
 7806TIP3    H244910   2.679   4.691   3.787 -0.1664 -0.3765 -1.2930
 7807TIP3   OH244911   5.346   4.374   4.701 -0.4770  0.1479  0.3793
 7807TIP3    H144912   5.431   4.376   4.745 -0.8848  0.5978  1.1454
 7807TIP3    H244913   5.356   4.433   4.627  0.1701 -0.5077 -0.0617
 7808TIP3   OH244914   2.324   6.819  14.715 -0.3639 -0.0090 -0.7826
 7808TIP3    H144915   2.349   6.881  14.646  0.5549  0.0216 -0.4149
 7808TIP3    H244916   2.317   6.735  14.669  1.3712 -0.2072 -0.7080
 7809TIP3   OH244917   3.915   5.040   5.294  0.4797  0.0429  0.2717
 7809TIP3    H144918   3.887   5.056   5.204  0.6725 -0.0877  0.1879
 7809TIP3    H244919   3.962   5.120   5.320  2.4885 -0.8416 -0.5567
 7810TIP3   OH244920   2.492   6.218  14.656  0.4170  0.3737 -0.2567
 7810TIP3    H144921   2.431   6.202  14.728 -0.7182 -0.0356 -1.2870
 7810TIP3    H244922   2.447   6.282  14.600  1.3846  0.8644 -0.4718
 7811TIP3   OH244923   3.859   3.336   3.279  0.4294  0.1947  0.3768
 7811TIP3    H144924   3.895   3.422   3.257  0.4495  0.1012  0.0293
 7811TIP3    H244925   3.851   3.336   3.374  0.4892  0.5581  0.3821
 7812TIP3   OH244926   4.657   3.944   6.282 -0.7522 -0.2467  0.0651
 7812TIP3    H144927   4.747   3.971   6.301 -0.6386 -0.8896  0.4392
 7812TIP3    H244928   4.621   3.918   6.367  0.0605 -4.0457 -0.6535
 7813TIP3   OH244929   1.231   3.640  16.715  0.1215  0.0245  0.3451
 7813TIP3    H144930   1.210   3.734  16.717 -0.8984 -0.1852 -0.1906
 7813TIP3    H244931   1.269   3.626  16.628  0.8958  0.0710  0.6751
 7814TIP3   OH244932   6.718   0.046  13.383 -0.1139  0.2120 -0.1602
 7814TIP3    H144933   6.677   0.106  13.321  0.0975  0.1453 -0.3643
 7814TIP3    H244934   6.793   0.095  13.417 -0.9920  0.7641  1.0514
 7815TIP3   OH244935   2.420   2.796   2.035  0.1902  0.0500 -0.1228
 7815TIP3    H144936   2.430   2.821   1.943  1.2802  1.8968  0.4871
 7815TIP3    H244937   2.325   2.798   2.050  0.1797  2.8935 -0.3535
 7816TIP3   OH244938   3.056   6.301  14.978  0.5897 -0.3396 -0.2562
 7816TIP3    H144939   3.040   6.389  15.010 -3.0298 -0.3174 -1.9798
 7816TIP3    H244940   3.062   6.247  15.057  2.3280  1.3061  0.7787
 7817TIP3   OH244941   2.529   3.121  14.172 -0.0074 -0.0103 -0.0306
 7817TIP3    H144942   2.569   3.111  14.085  0.5190 -1.1709  0.3418
 7817TIP3    H244943   2.475   3.200  14.164 -0.2388 -0.3008 -1.5205
 7818TIP3   OH244944   6.637   3.941  15.988  0.7703  0.3954 -0.0044
 7818TIP3    H144945   6.649   3.877  16.059  1.1730  0.4380 -0.0337
 7818TIP3    H244946   6.578   4.007  16.026  1.4443  0.7225  0.4908
 7819TIP3   OH244947   1.128   2.338  14.824 -0.3154 -0.4472  0.3291
 7819TIP3    H144948   1.144   2.394  14.748 -0.5499 -0.3958  0.3191
 7819TIP3    H244949   1.195   2.270  14.818  0.0514 -0.0950  0.4160
 7820TIP3   OH244950   1.068   5.598  12.602 -0.5893  0.3359  0.0929
 7820TIP3    H144951   1.021   5.518  12.575  0.4668 -0.4098  0.4557
 7820TIP3    H244952   1.027   5.623  12.685 -0.1040 -0.5264  0.5980
 7821TIP3   OH244953   1.622   6.262  13.027 -0.2318 -0.0617 -0.1339
 7821TIP3    H144954   1.686   6.242  13.095  1.2479  1.6185 -1.0040
 7821TIP3    H244955   1.672   6.258  12.945 -1.4879  0.1878 -0.9247
 7822TIP3   OH244956   4.298   0.970  15.205 -0.0790  1.1495 -0.1423
 7822TIP3    H144957   4.354   1.025  15.149  1.4261 -0.6854 -0.4858
 7822TIP3    H244958   4.238   0.927  15.144 -0.2197  1.2110 -0.0478
 7823TIP3   OH244959   0.745   6.446   0.641 -0.0930 -0.2161 -0.1630
 7823TIP3    H144960   0.740   6.469   0.734  0.2299 -0.3701 -0.1059
 7823TIP3    H244961   0.819   6.497   0.608 -0.9677  0.7881 -0.6216
 7824TIP3   OH244962   3.266   1.018   6.200 -0.3996  0.1061  0.4675
 7824TIP3    H144963   3.346   1.002   6.249 -0.0388  0.9448  0.1559
 7824TIP3    H244964   3.268   1.111   6.180 -1.6162  0.2085  0.7423
 7825TIP3   OH244965   0.424   1.907  15.828 -0.4477 -0.1535  0.3697
 7825TIP3    H144966   0.350   1.847  15.821 -1.6610  1.1178  1.9310
 7825TIP3    H244967   0.385   1.992  15.847  1.3710  0.6819  0.5207
 7826TIP3   OH244968   3.796   1.743  14.088 -0.6715  0.0889 -0.5844
 7826TIP3    H144969   3.879   1.786  14.066 -0.6623  0.7102  0.6299
 7826TIP3    H244970   3.806   1.654  14.055 -0.1029  0.5845 -1.7733
 7827TIP3   OH244971   2.487   2.130  13.142  0.0300 -0.5447  0.7744
 7827TIP3    H144972   2.456   2.040  13.131 -0.4166 -0.4026  0.8912
 7827TIP3    H244973   2.408   2.183  13.147  0.2986 -0.0542 -0.0025
 7828TIP3   OH244974   6.633   6.092  11.260 -0.0180 -1.0544 -0.4814
 7828TIP3    H144975   6.689   6.098  11.337 -1.7300  0.0391  0.7180
 7828TIP3    H244976   6.694   6.094  11.186  1.4391  2.7130  0.6878
 7829TIP3   OH244977   0.408   1.575   4.638 -0.1829 -0.4386 -0.4477
 7829TIP3    H144978   0.475   1.565   4.570  0.9509 -2.0440  0.8772
 7829TIP3    H244979   0.443   1.528   4.713 -1.4063  1.3324  1.2765
 7830TIP3   OH244980   5.826   6.794  14.628  0.0466 -0.0281 -0.0512
 7830TIP3    H144981   5.828   6.710  14.674 -1.4838 -0.2244 -0.3270
 7830TIP3    H244982   5.902   6.791  14.570  0.9236 -0.5487  1.0890
 7831TIP3   OH244983   4.601   0.119   6.544 -0.0049 -0.1420  0.7466
 7831TIP3    H144984   4.651   0.120   6.462 -0.7427  0.8163  0.2855
 7831TIP3    H244985   4.659   0.078   6.608  0.2616 -1.6785 -0.4588
 7832TIP3   OH244986   2.902   6.560   3.647  0.7005 -0.4834 -0.2144
 7832TIP3    H144987   2.860   6.517   3.721  0.1331 -0.4746 -0.5308
 7832TIP3    H244988   2.926   6.488   3.588 -0.0368 -0.3930 -0.6335
 7833TIP3   OH244989   3.982   2.037  16.049 -0.8047 -0.2531  0.4609
 7833TIP3    H144990   3.996   2.014  15.957 -1.1642  0.8406  0.1238
 7833TIP3    H244991   4.005   1.958  16.097 -0.7533 -0.8864 -0.5814
 7834TIP3   OH244992   3.840   3.705  16.334  0.6157 -0.1721 -0.4788
 7834TIP3    H144993   3.768   3.706  16.271 -0.7321  1.1490  1.0398
 7834TIP3    H244994   3.877   3.617  16.326 -1.0318 -0.8127 -1.4327
 7835TIP3   OH244995   2.147   0.642  13.447 -0.0080 -0.0247  0.3809
 7835TIP3    H144996   2.092   0.719  13.462  1.8381  0.9500  2.5331
 7835TIP3    H244997   2.201   0.666  13.372 -0.3381  0.2421  0.2255
 7836TIP3   OH244998   4.412   0.834  15.621  0.0199  0.2049  0.5027
 7836TIP3    H144999   4.469   0.801  15.691 -1.2763 -1.1809  0.9246
 7836TIP3    H245000   4.324   0.805  15.645 -0.8665  2.2543 -0.2041
 7837TIP3   OH245001   5.576   5.068   2.390  0.3105 -0.1117  0.2325
 7837TIP3    H145002   5.620   5.003   2.445 -2.2511 -2.4223 -0.3723
 7837TIP3    H245003   5.559   5.141   2.450  1.7963 -0.6140  1.3111
 7838TIP3   OH245004   6.538   6.643  11.720  0.1509 -0.7219  0.3769
 7838TIP3    H145005   6.610   6.611  11.773  0.1384  0.0093  0.8406
 7838TIP3    H245006   6.578   6.673  11.639  0.7991  2.6447  1.8717
 7839TIP3   OH245007   3.868   2.718  16.775 -0.3759  0.5068  0.1884
 7839TIP3    H145008   3.960   2.693  16.785 -0.1417  1.4180  0.3327
 7839TIP3    H245009   3.852   2.782  16.844 -0.8204  1.1492 -0.4875
 7840TIP3   OH245010   1.282   1.599   0.386 -0.1529  0.4273 -0.4069
 7840TIP3    H145011   1.243   1.672   0.433 -0.6958  0.3677 -0.7603
 7840TIP3    H245012   1.235   1.522   0.418  1.6090  0.0089  1.2760
 7841TIP3   OH245013   2.604   4.249   3.375  0.6990 -0.0715 -0.2441
 7841TIP3    H145014   2.617   4.177   3.437 -0.6460  0.0759  0.2168
 7841TIP3    H245015   2.544   4.309   3.419  0.8984  0.7762 -1.0957
 7842TIP3   OH245016   5.609   5.134  16.036 -0.1221 -0.1786  0.4120
 7842TIP3    H145017   5.680   5.090  16.083  0.1777  0.0853  0.2179
 7842TIP3    H245018   5.654   5.202  15.985 -0.2861 -1.4451 -1.4304
 7843TIP3   OH245019   4.485   6.141  12.604  0.2295 -0.7063  0.2103
 7843TIP3    H145020   4.528   6.065  12.565 -0.7828 -1.0807 -0.1808
 7843TIP3    H245021   4.522   6.216  12.558  0.0623 -1.0596 -0.5032
 7844TIP3   OH245022   4.215   3.764  11.530  0.1713  0.4271 -0.1593
 7844TIP3    H145023   4.244   3.700  11.465 -0.7537 -0.4495  0.2732
 7844TIP3    H245024   4.296   3.805  11.561  0.8004 -0.6721 -0.3006
 7845TIP3   OH245025   4.942   2.997  12.948 -0.2457  0.1913 -0.7762
 7845TIP3    H145026   4.953   3.076  13.002 -1.5180  0.0957 -0.3507
 7845TIP3    H245027   4.847   2.988  12.938 -0.0755 -0.7670 -1.5984
 7846TIP3   OH245028   3.264   3.001   5.415  0.0587  0.3559 -0.2154
 7846TIP3    H145029   3.200   3.069   5.396 -0.2865 -0.1364 -0.8362
 7846TIP3    H245030   3.224   2.921   5.381  1.5133  0.2186 -1.6684
 7847TIP3   OH245031   6.336   3.675  15.606  0.0606  0.2253  1.0347
 7847TIP3    H145032   6.257   3.650  15.652  0.1273 -1.5212  0.2485
 7847TIP3    H245033   6.317   3.660  15.513  0.2369  2.8155  0.5119
 7848TIP3   OH245034   5.203   0.735  13.732 -0.1943 -0.3490 -0.3339
 7848TIP3    H145035   5.140   0.685  13.679 -1.3997 -0.1077  0.8616
 7848TIP3    H245036   5.243   0.669  13.789 -0.0441 -0.3448 -0.4344
 7849TIP3   OH245037   1.465   6.009  12.006  0.2359 -0.1705  0.4350
 7849TIP3    H145038   1.534   6.070  11.980 -2.3940  1.9958 -1.8862
 7849TIP3    H245039   1.408   6.060  12.063 -1.4332 -0.7345 -0.6854
 7850TIP3   OH245040   3.160   3.786   1.216  0.1657  0.2104  0.1317
 7850TIP3    H145041   3.228   3.848   1.243  1.1624  0.1581 -2.1441
 7850TIP3    H245042   3.199   3.699   1.232  0.5452  0.1829 -0.8731
 7851TIP3   OH245043   1.432   6.214  11.241 -0.4731 -0.2843 -0.6651
 7851TIP3    H145044   1.505   6.270  11.215  0.1912 -1.0695 -0.5103
 7851TIP3    H245045   1.452   6.190  11.331 -1.1229 -0.1900 -0.4938
 7852TIP3   OH245046   5.299   5.516   2.415 -0.1973 -0.1344  1.1038
 7852TIP3    H145047   5.276   5.579   2.483 -1.2013 -1.6156  2.1530
 7852TIP3    H245048   5.223   5.515   2.356 -0.5288 -0.9356  1.5314
 7853TIP3   OH245049   3.567   5.669   3.997  0.0120  0.2670  0.1170
 7853TIP3    H145050   3.662   5.674   4.000  0.0104  1.0845 -0.7677
 7853TIP3    H245051   3.548   5.617   3.919 -0.2435 -1.6973  1.4555
 7854TIP3   OH245052   6.122   3.279  11.905 -0.0676  0.3377  0.0528
 7854TIP3    H145053   6.048   3.229  11.939  1.6243 -1.3444  1.4169
 7854TIP3    H245054   6.149   3.335  11.977 -1.0985  2.2656 -1.0301
 7855TIP3   OH245055   0.336   4.202  11.525 -0.2755  0.4978  0.1122
 7855TIP3    H145056   0.326   4.297  11.529 -0.7772  0.3859  2.1703
 7855TIP3    H245057   0.381   4.180  11.607  0.1474 -0.9971 -0.5166
 7856TIP3   OH245058   0.675   0.662   5.927  0.4672 -0.1642 -0.2226
 7856TIP3    H145059   0.702   0.577   5.962  0.3228 -1.3930 -2.9414
 7856TIP3    H245060   0.732   0.726   5.970  2.5500 -1.9434 -0.3103
 7857TIP3   OH245061   0.028   0.761  13.515 -0.1017 -0.4009  0.3416
 7857TIP3    H145062  -0.015   0.733  13.434 -0.0291  0.7831 -0.1123
 7857TIP3    H245063  -0.036   0.817  13.558  0.2581 -0.1839  0.5969
 7858TIP3   OH245064   1.046   0.640   6.147  0.9403 -0.6238  0.0378
 7858TIP3    H145065   1.045   0.638   6.243  0.9248  0.3500  0.0606
 7858TIP3    H245066   1.064   0.549   6.121  2.5760 -0.5738  0.9832
 7859TIP3   OH245067   4.581   1.225  11.012 -0.5064 -0.0222 -0.3868
 7859TIP3    H145068   4.591   1.314  10.977 -1.6654  0.3751  0.2529
 7859TIP3    H245069   4.508   1.188  10.962 -1.3017  0.0805  0.6833
 7860TIP3   OH245070   3.873   2.402  10.218  0.4637 -0.3286 -0.1230
 7860TIP3    H145071   3.782   2.373  10.214 -0.1068  1.3476  0.0356
 7860TIP3    H245072   3.910   2.356  10.294 -1.0911  1.1455  1.5866
 7861TIP3   OH245073   0.716   1.858  14.203 -0.5080 -0.0446 -0.6912
 7861TIP3    H145074   0.790   1.886  14.256 -1.0426 -0.9329  0.5627
 7861TIP3    H245075   0.646   1.920  14.226 -0.3463  0.3998 -1.3876
 7862TIP3   OH245076   0.134   0.617   3.654  0.0349  0.7297 -0.4258
 7862TIP3    H145077   0.148   0.541   3.710 -0.7698  1.1806  0.3959
 7862TIP3    H245078   0.129   0.581   3.565 -1.0941 -0.2600  0.0349
 7863TIP3   OH245079   4.011   4.092   5.697  0.9082  0.1836  0.6217
 7863TIP3    H145080   3.969   4.088   5.611 -1.6296  0.7860  1.7751
 7863TIP3    H245081   4.067   4.014   5.701  1.3889  0.3833 -1.7154
 7864TIP3   OH245082   6.668   3.592  11.958 -0.4618  0.0284 -0.2078
 7864TIP3    H145083   6.736   3.623  11.899 -1.9507  0.3921 -1.7468
 7864TIP3    H245084   6.685   3.639  12.040  2.3241 -1.3755  0.0706
 7865TIP3   OH245085   6.380   6.161   2.288  0.6576  0.3545  0.1801
 7865TIP3    H145086   6.397   6.213   2.366  0.0964  1.0836 -0.1867
 7865TIP3    H245087   6.378   6.224   2.216  2.0575 -0.4083 -0.5655
 7866TIP3   OH245088   0.630   3.030   4.086 -0.5373 -0.5921 -0.4264
 7866TIP3    H145089   0.616   2.939   4.112  0.2155 -0.2131  1.3677
 7866TIP3    H245090   0.630   3.079   4.168  0.0853  0.9028 -1.2873
 7867TIP3   OH245091   5.492   2.668   5.129 -0.1039 -0.4718 -0.0288
 7867TIP3    H145092   5.549   2.744   5.127  0.4221 -0.8525  0.4856
 7867TIP3    H245093   5.403   2.704   5.120  0.1718  0.1573 -0.2391
 7868TIP3   OH245094   3.722   6.409   6.045 -0.1302 -0.4842 -0.5760
 7868TIP3    H145095   3.647   6.351   6.060 -0.7237  0.0374 -1.4592
 7868TIP3    H245096   3.700   6.490   6.090 -0.5256  0.0013 -1.6372
 7869TIP3   OH245097   1.655   2.701   2.381 -0.0710 -0.0417 -0.4719
 7869TIP3    H145098   1.717   2.770   2.360  0.4899 -1.3043 -3.2486
 7869TIP3    H245099   1.708   2.632   2.422 -0.3492  0.4602  0.7651
 7870TIP3   OH245100   0.900   5.915   0.824 -0.8307  0.0452 -0.1577
 7870TIP3    H145101   0.870   6.006   0.825 -0.9634  0.0023 -0.0547
 7870TIP3    H245102   0.995   5.920   0.815 -0.7552  0.2115  0.6951
 7871TIP3   OH245103   5.650   0.869   3.490  0.2866 -0.0397 -0.2704
 7871TIP3    H145104   5.621   0.785   3.525  0.5083 -0.7942 -1.8622
 7871TIP3    H245105   5.744   0.870   3.507 -0.1863  1.3231  2.6428
 7872TIP3   OH245106   0.969   3.000  12.950 -0.1747 -0.1340 -0.7864
 7872TIP3    H145107   0.902   2.935  12.967  0.3774 -0.6985 -0.7493
 7872TIP3    H245108   0.921   3.079  12.927 -0.8472 -1.2543 -3.4721
 7873TIP3   OH245109   0.668   1.727  11.667 -0.2681  0.1383  0.3910
 7873TIP3    H145110   0.573   1.735  11.676 -0.3205  1.2432 -0.8839
 7873TIP3    H245111   0.685   1.748  11.575  1.3369  1.2227  0.9052
 7874TIP3   OH245112   5.239   6.129  13.016 -0.2176 -0.6847  0.4250
 7874TIP3    H145113   5.285   6.204  12.977  1.0862 -1.2865  0.7779
 7874TIP3    H245114   5.302   6.057  13.011 -1.1994 -1.5799  0.7507
 7875TIP3   OH245115   1.124   1.585  15.116 -0.0125  0.0111  0.1196
 7875TIP3    H145116   1.216   1.592  15.088  0.3197 -1.1009  0.9199
 7875TIP3    H245117   1.075   1.579  15.034  0.6239  0.5455 -0.3146
 7876TIP3   OH245118   1.460   5.038  11.914 -0.3087 -0.0706 -0.3682
 7876TIP3    H145119   1.538   5.072  11.870 -0.2110 -0.3074 -0.3784
 7876TIP3    H245120   1.481   5.041  12.007 -0.2338 -0.2586 -0.3779
 7877TIP3   OH245121   3.955   1.948   0.580  0.3476 -0.1406 -0.1387
 7877TIP3    H145122   3.945   1.988   0.493  2.4425 -0.2018 -0.4437
 7877TIP3    H245123   4.010   2.010   0.628  2.0571 -1.7101  0.0010
 7878TIP3   OH245124   2.240   4.222   1.678 -0.3632  0.1512 -0.2147
 7878TIP3    H145125   2.167   4.162   1.664 -1.4606  1.2633  0.5707
 7878TIP3    H245126   2.271   4.203   1.767  1.4757 -1.5185 -1.1709
 7879TIP3   OH245127   5.685   0.094  15.522  0.1396 -0.0381  0.0198
 7879TIP3    H145128   5.746   0.061  15.456  1.1903  0.0961  0.8896
 7879TIP3    H245129   5.730   0.171  15.559 -1.6413  1.5306 -0.9972
 7880TIP3   OH245130   4.763   0.355  16.454  0.1145 -0.5331 -0.2745
 7880TIP3    H145131   4.839   0.412  16.443  0.1800 -0.9711 -2.3674
 7880TIP3    H245132   4.687   0.412  16.438  0.0768 -0.4786  0.1015
 7881TIP3   OH245133   1.942   0.572  12.465 -0.0606 -0.0494  0.1945
 7881TIP3    H145134   1.883   0.521  12.410  0.7779 -0.2988 -0.4873
 7881TIP3    H245135   2.028   0.532  12.451  0.1570 -0.1392  1.7159
 7882TIP3   OH245136   4.842   3.913  16.656  0.1265  0.1302 -0.6588
 7882TIP3    H145137   4.751   3.942  16.654 -0.1601 -0.4575  1.9886
 7882TIP3    H245138   4.839   3.826  16.696  1.7714 -0.2804 -1.3640
 7883TIP3   OH245139   3.374   0.288   6.321  0.5897  0.8775 -0.2480
 7883TIP3    H145140   3.343   0.372   6.286  0.0524  0.1566 -1.5675
 7883TIP3    H245141   3.398   0.306   6.411  0.1743  2.3824 -0.4298
 7884TIP3   OH245142   5.178   2.051   1.414 -0.0074  0.2013 -0.2023
 7884TIP3    H145143   5.119   2.044   1.489  1.4476 -0.7017  0.8815
 7884TIP3    H245144   5.216   2.139   1.420  0.5030 -0.0580  0.4343
 7885TIP3   OH245145   6.662   4.286   2.699 -0.5428  0.3455  0.0046
 7885TIP3    H145146   6.657   4.196   2.732  1.2101  0.6384  1.1696
 7885TIP3    H245147   6.571   4.315   2.692 -1.0390 -0.2994  3.0903
 7886TIP3   OH245148   5.797   3.098  15.959  0.0388 -0.0483 -0.0142
 7886TIP3    H145149   5.863   3.033  15.937 -0.1011 -0.1708 -0.0674
 7886TIP3    H245150   5.726   3.082  15.898  0.4160  0.7944 -0.6843
 7887TIP3   OH245151   2.686   0.066   5.204 -0.4773 -0.2204 -0.4694
 7887TIP3    H145152   2.728  -0.020   5.208 -0.3529 -0.1395  0.0970
 7887TIP3    H245153   2.689   0.097   5.295 -0.7644  0.2629 -0.6284
 7888TIP3   OH245154   2.194   0.438  17.212  0.0748 -0.3718 -0.0475
 7888TIP3    H145155   2.262   0.394  17.161  0.6456 -0.5438  0.8592
 7888TIP3    H245156   2.221   0.530  17.215  0.9449 -0.6601  1.3843
 7889TIP3   OH245157   2.893   3.457  14.492  0.7052  0.2694 -0.3464
 7889TIP3    H145158   2.827   3.468  14.560 -0.2908 -2.4143 -0.8201
 7889TIP3    H245159   2.849   3.406  14.424  2.9198 -0.6122 -1.1567
 7890TIP3   OH245160   4.843   3.028   5.888 -0.6353  0.2904  0.2806
 7890TIP3    H145161   4.783   3.039   5.814 -0.2782  0.6606  0.0438
 7890TIP3    H245162   4.914   3.090   5.871 -0.7923  0.7202  1.1788
 7891TIP3   OH245163   3.473   0.521   0.275 -0.2226 -0.2743 -0.5405
 7891TIP3    H145164   3.411   0.526   0.203  1.7643  1.1803 -2.2218
 7891TIP3    H245165   3.517   0.606   0.275 -0.3486 -0.1450  2.5740
 7892TIP3   OH245166   2.953   1.122   0.468 -0.0954  0.1525 -0.0915
 7892TIP3    H145167   2.875   1.166   0.502 -1.1143 -0.6944 -1.2870
 7892TIP3    H245168   2.919   1.063   0.400  1.5558 -0.4350 -0.4145
 7893TIP3   OH245169   5.674   2.168  14.247  0.0250  0.1615  0.3023
 7893TIP3    H145170   5.689   2.073  14.254  0.3092  0.1356 -0.5746
 7893TIP3    H245171   5.760   2.207  14.259  0.1342  0.2329 -0.6702
 7894TIP3   OH245172   1.301   5.197   2.776 -0.2068 -0.2121  0.1569
 7894TIP3    H145173   1.229   5.258   2.758  0.5756  0.0411 -2.2701
 7894TIP3    H245174   1.367   5.219   2.711  0.9599 -2.2669  0.6188
 7895TIP3   OH245175   2.161   4.204   2.054  0.4384  0.3551 -0.1551
 7895TIP3    H145176   2.220   4.279   2.064  0.0300  0.7009 -0.3185
 7895TIP3    H245177   2.138   4.180   2.144  0.8956  0.1658 -0.0880
 7896TIP3   OH245178   3.696   0.608  12.584 -0.2270 -0.0002  0.1559
 7896TIP3    H145179   3.777   0.574  12.547 -0.9086 -0.2861 -1.0914
 7896TIP3    H245180   3.721   0.692  12.622  0.6646 -0.1272 -0.1295
 7897TIP3   OH245181   4.577   3.594   1.901 -0.1133 -0.1270  0.0697
 7897TIP3    H145182   4.598   3.513   1.854  0.4918 -0.5530  1.0517
 7897TIP3    H245183   4.658   3.617   1.946  0.4154  2.3379 -2.0598
 7898TIP3   OH245184   0.346   3.084  17.008 -0.2298  0.2484 -0.0494
 7898TIP3    H145185   0.310   3.162  16.967  0.0069 -0.0507 -0.8416
 7898TIP3    H245186   0.290   3.069  17.085  0.5923  1.9873  0.9017
 7899TIP3   OH245187   3.009   0.948  14.414  0.1258  0.5075 -0.6163
 7899TIP3    H145188   2.973   0.909  14.335  1.0550 -0.1093 -0.7386
 7899TIP3    H245189   3.090   0.990  14.386  0.4611  0.2884  0.0096
 7900TIP3   OH245190   2.006   1.603   0.078  0.0831  0.4267  0.1606
 7900TIP3    H145191   1.913   1.581   0.086  0.0583  0.5734  0.2849
 7900TIP3    H245192   2.043   1.577   0.162  0.0418  0.9143  0.3302
 7901TIP3   OH245193   4.247   2.355   2.876 -0.0257 -0.2182 -0.1000
 7901TIP3    H145194   4.315   2.407   2.919 -0.9881  0.7677  0.2403
 7901TIP3    H245195   4.291   2.316   2.800  0.8370  0.6707 -0.0612
 7902TIP3   OH245196   3.078   6.491  10.713 -0.3377  0.1473  0.5148
 7902TIP3    H145197   3.085   6.576  10.756 -0.5137  1.4759 -1.9983
 7902TIP3    H245198   3.164   6.477  10.673 -0.2323 -0.9899  1.1075
 7903TIP3   OH245199   4.150   5.452   0.800 -0.0216  0.0808  0.6085
 7903TIP3    H145200   4.108   5.442   0.714  1.5127 -1.3239 -0.0143
 7903TIP3    H245201   4.135   5.543   0.824 -0.9073  0.3592 -0.9272
 7904TIP3   OH245202   2.846   0.626   0.299 -0.4156 -0.4145 -0.1538
 7904TIP3    H145203   2.922   0.567   0.298 -1.3213 -1.5948  0.1750
 7904TIP3    H245204   2.844   0.659   0.389  1.2159  1.6125 -0.8281
 7905TIP3   OH245205   1.042   2.112  15.664 -0.0886  0.2862 -0.2763
 7905TIP3    H145206   0.993   2.189  15.637 -3.1089 -2.1587 -2.1261
 7905TIP3    H245207   1.027   2.107  15.759 -3.5392 -0.3931 -0.7923
 7906TIP3   OH245208   4.769   3.190  13.996  0.1363  0.1648  0.0505
 7906TIP3    H145209   4.679   3.157  13.995  0.1067  0.2376 -2.4672
 7906TIP3    H245210   4.819   3.122  13.950  1.1999  0.5855  0.5840
 7907TIP3   OH245211   5.121   5.221  10.535  0.1168  0.2116  0.0984
 7907TIP3    H145212   5.191   5.158  10.519 -1.1188 -1.5957  1.5849
 7907TIP3    H245213   5.066   5.216  10.457  0.7137  0.4170 -0.3420
 7908TIP3   OH245214   4.239   0.781  11.808 -0.0932  0.0602 -0.1005
 7908TIP3    H145215   4.321   0.796  11.855  1.0291 -1.1804 -1.6145
 7908TIP3    H245216   4.227   0.859  11.755  1.4758 -0.7837 -1.7855
 7909TIP3   OH245217   0.855   4.920  15.200  0.7042 -0.4892 -0.0726
 7909TIP3    H145218   0.863   4.837  15.152  0.0895 -1.5199  1.5250
 7909TIP3    H245219   0.892   4.901  15.286  0.4275  0.8677  0.3542
 7910TIP3   OH245220   3.440   2.536  10.822  0.3348 -0.4980 -0.2899
 7910TIP3    H145221   3.352   2.529  10.784 -1.0911  1.2722  2.4880
 7910TIP3    H245222   3.463   2.628  10.812  1.8693 -0.9458 -0.9327
 7911TIP3   OH245223   4.002   5.654  10.208  0.4571  0.2359 -0.2752
 7911TIP3    H145224   3.924   5.708  10.218  0.9281  1.3215 -2.3249
 7911TIP3    H245225   3.996   5.590  10.279 -1.8474  0.8557  0.1202
 7912TIP3   OH245226   0.405   0.683  16.904  0.2264  0.5728 -0.1924
 7912TIP3    H145227   0.362   0.623  16.965 -1.1363  1.1818 -0.5266
 7912TIP3    H245228   0.406   0.767  16.949  1.0636  0.5707 -0.2007
 7913TIP3   OH245229   4.175   6.304  12.056 -0.3597  0.1416 -0.1948
 7913TIP3    H145230   4.250   6.290  12.113 -1.6953 -0.3215  1.4779
 7913TIP3    H245231   4.103   6.257  12.099 -1.0452 -1.5538 -3.0272
 7914TIP3   OH245232   0.112   4.458   0.660 -0.4851 -0.1821 -0.6048
 7914TIP3    H145233   0.122   4.453   0.755 -0.3721  0.5214 -0.5777
 7914TIP3    H245234   0.111   4.367   0.631  0.9548 -0.3669 -0.0879
 7915TIP3   OH245235   4.505   2.226  17.283 -0.1751 -0.4227 -0.0799
 7915TIP3    H145236   4.457   2.221  17.200 -2.3650 -1.0727  1.1904
 7915TIP3    H245237   4.513   2.320  17.300 -0.9011 -0.3044 -0.3734
 7916TIP3   OH245238   1.772   5.857  13.687  0.3880  0.2813 -0.1071
 7916TIP3    H145239   1.798   5.848  13.779  0.5111  0.0308 -0.1675
 7916TIP3    H245240   1.728   5.942  13.683 -0.4916 -0.1396  0.3888
 7917TIP3   OH245241   4.856   3.872  15.679  0.4937 -0.1834  0.4765
 7917TIP3    H145242   4.922   3.838  15.740 -2.0975 -0.1928  3.4698
 7917TIP3    H245243   4.852   3.965  15.698  1.8515  0.4119 -1.9785
 7918TIP3   OH245244   6.106   5.833  13.779 -0.7436  0.0374  0.0611
 7918TIP3    H145245   6.059   5.777  13.717  0.6796 -0.5848 -0.4663
 7918TIP3    H245246   6.144   5.902  13.725  1.2112 -0.9747  0.0814
 7919TIP3   OH245247   5.967   5.953  11.218  0.3268  0.2373 -0.4845
 7919TIP3    H145248   5.901   6.008  11.175  2.7233  3.3177 -0.4321
 7919TIP3    H245249   5.951   5.966  11.311  0.9828  0.9910 -0.4722
 7920TIP3   OH245250   3.237   2.216   1.385 -0.6687  0.1461 -0.3600
 7920TIP3    H145251   3.308   2.154   1.401 -1.5728 -0.2162  2.7292
 7920TIP3    H245252   3.266   2.297   1.427 -1.3968  0.4357 -0.4082
 7921TIP3   OH245253   0.510   5.372  14.784  0.1333 -0.2759  0.3181
 7921TIP3    H145254   0.461   5.305  14.736  2.0670 -1.6783  0.2282
 7921TIP3    H245255   0.554   5.423  14.715  1.7247 -1.3574  0.5079
 7922TIP3   OH245256   2.779   1.519   1.337  0.4009  0.3745  0.1749
 7922TIP3    H145257   2.819   1.460   1.273  1.2568  1.0675  0.0497
 7922TIP3    H245258   2.706   1.560   1.290 -0.0825 -0.4484  0.2098
 7923TIP3   OH245259   2.942   0.661  12.002 -0.0663  0.0714 -0.1892
 7923TIP3    H145260   2.979   0.573  12.005  1.6953  0.7803 -0.3725
 7923TIP3    H245261   2.870   0.659  12.065 -0.1845 -1.5579 -0.3521
 7924TIP3   OH245262   2.374   2.482   2.207  0.2292 -0.6764 -0.1732
 7924TIP3    H145263   2.400   2.571   2.183 -0.0816 -1.0843 -2.0634
 7924TIP3    H245264   2.443   2.453   2.267 -0.4632  1.3603  1.7127
 7925TIP3   OH245265   1.467   0.237   3.029  0.0844 -0.3644  0.3753
 7925TIP3    H145266   1.430   0.174   3.091 -0.4613  1.2286  1.7108
 7925TIP3    H245267   1.439   0.205   2.943  0.1384 -2.1449  0.9917
 7926TIP3   OH245268   5.387   2.807  12.838  0.5017  0.3873  0.0462
 7926TIP3    H145269   5.296   2.805  12.809  0.0014  2.3679  1.3278
 7926TIP3    H245270   5.388   2.872  12.909  3.3181  1.9916 -1.3553
 7927TIP3   OH245271   2.648   2.102  13.911  0.0527  0.1807  0.0500
 7927TIP3    H145272   2.693   2.058  13.839  1.1740 -0.5699  1.1909
 7927TIP3    H245273   2.644   2.036  13.980 -0.0744  1.2404  1.0588
 7928TIP3   OH245274   2.894   3.888   1.224 -0.3718  0.0233  0.1430
 7928TIP3    H145275   2.985   3.859   1.220 -0.3279  0.1695  0.0944
 7928TIP3    H245276   2.843   3.810   1.199 -0.2767 -0.1603  0.5204
 7929TIP3   OH245277   6.584   0.873  17.015 -0.1067 -0.0851 -0.2994
 7929TIP3    H145278   6.527   0.894  16.941  0.2705  1.4843 -0.1589
 7929TIP3    H245279   6.624   0.789  16.990 -1.1003 -0.3092 -1.2014
 7930TIP3   OH245280   1.490   4.497   1.489 -0.0558 -0.3994 -0.0902
 7930TIP3    H145281   1.553   4.564   1.460  1.0071 -0.9053  0.9838
 7930TIP3    H245282   1.544   4.434   1.537 -1.2923 -1.2203  0.2269
 7931TIP3   OH245283   1.840   1.110   6.711 -0.2131  0.0969 -0.1464
 7931TIP3    H145284   1.791   1.192   6.716 -1.4626 -0.6064 -0.6802
 7931TIP3    H245285   1.808   1.059   6.786  0.3478 -0.0193  0.0147
 7932TIP3   OH245286   1.740   2.443   6.932  0.0902  0.4927 -0.6008
 7932TIP3    H145287   1.787   2.361   6.953  0.8483  0.7439 -1.2917
 7932TIP3    H245288   1.660   2.438   6.985  1.0182  0.1837  0.8157
 7933TIP3   OH245289   1.857   0.636  17.148 -0.2321 -0.0570  0.0564
 7933TIP3    H145290   1.914   0.687  17.090  0.9429 -0.7786  0.5781
 7933TIP3    H245291   1.831   0.560  17.096  0.4374 -0.4608  0.3138
 7934TIP3   OH245292   6.030   6.349  11.151 -0.1139  0.2180 -0.4974
 7934TIP3    H145293   6.016   6.444  11.156 -1.8639  0.0676 -2.0342
 7934TIP3    H245294   5.950   6.311  11.185  0.5484 -0.7207  0.0272
 7935TIP3   OH245295   3.873   2.724   3.753  0.3274 -0.1580 -0.1569
 7935TIP3    H145296   3.800   2.684   3.706  0.6551  0.2713 -1.0437
 7935TIP3    H245297   3.924   2.650   3.785 -0.8809 -0.4698  1.0925
 7936TIP3   OH245298   3.718   5.571  11.229 -0.0425  0.3313  0.5200
 7936TIP3    H145299   3.750   5.501  11.172 -0.0015  0.1077  0.8149
 7936TIP3    H245300   3.664   5.626  11.172  0.4548  0.4256  0.1385
 7937TIP3   OH245301   5.767   1.920   3.140  0.7370  0.0643  0.4649
 7937TIP3    H145302   5.674   1.933   3.159  0.0952 -2.4491 -0.6929
 7937TIP3    H245303   5.811   1.947   3.220 -1.0204  0.9586  1.1674
 7938TIP3   OH245304   2.625   3.981  12.650  0.6522  0.5209 -1.0515
 7938TIP3    H145305   2.638   3.890  12.624 -1.7716 -0.2758  0.3686
 7938TIP3    H245306   2.713   4.013  12.671  1.2373 -2.2798  0.9769
 7939TIP3   OH245307   4.633   1.914   3.596  0.0520  0.5734  0.4682
 7939TIP3    H145308   4.591   1.831   3.617 -0.4004  0.5155 -0.6411
 7939TIP3    H245309   4.726   1.892   3.589 -0.4378 -0.6129 -3.4417
 7940TIP3   OH245310   4.245   0.255  13.858  0.2053  0.3704  0.2819
 7940TIP3    H145311   4.240   0.238  13.952 -0.8805 -2.8376 -0.3065
 7940TIP3    H245312   4.155   0.277  13.833 -0.1775 -2.0821 -0.5704
 7941TIP3   OH245313   5.147   2.061   4.402  0.4133  0.0989 -0.2297
 7941TIP3    H145314   5.065   2.011   4.401 -0.6303  1.7199  0.8334
 7941TIP3    H245315   5.193   2.031   4.480  1.1782 -1.3230 -1.2118
 7942TIP3   OH245316   5.824   5.480  12.015  0.5326  0.0679  0.0412
 7942TIP3    H145317   5.834   5.570  11.983 -1.0481  0.3440  0.2674
 7942TIP3    H245318   5.816   5.427  11.936 -1.9410  0.5714 -0.0824
 7943TIP3   OH245319   0.191   2.403  13.978 -0.1256  0.0408 -0.2560
 7943TIP3    H145320   0.153   2.368  13.897 -0.4846  0.3658 -0.2300
 7943TIP3    H245321   0.132   2.474  14.003  1.4380  1.7117 -1.1443
 7944TIP3   OH245322   2.958   5.151   2.992 -0.0829 -0.2166 -0.1790
 7944TIP3    H145323   2.889   5.085   3.006  0.4188 -1.0389 -1.5022
 7944TIP3    H245324   3.031   5.121   3.046 -0.0570 -0.4577 -0.3427
 7945TIP3   OH245325   0.616   1.056  13.897 -0.3523  0.0930  0.2845
 7945TIP3    H145326   0.678   1.106  13.843 -0.9769 -0.3097 -0.8259
 7945TIP3    H245327   0.539   1.112  13.903 -0.7850 -0.4239 -0.3631
 7946TIP3   OH245328   5.337   0.308  15.810  0.2007 -0.4974 -0.6797
 7946TIP3    H145329   5.271   0.324  15.878  2.0758  0.4224  0.9971
 7946TIP3    H245330   5.384   0.230  15.841  1.7597  0.5537 -0.3405
 7947TIP3   OH245331   6.273   1.391   4.197  0.6567  0.0581  0.7016
 7947TIP3    H145332   6.189   1.417   4.158 -0.0893 -1.4876  1.2211
 7947TIP3    H245333   6.311   1.331   4.132  2.4179  2.4694 -0.5523
 7948TIP3   OH245334   2.405   2.153   5.642 -0.2856 -0.2096  0.0198
 7948TIP3    H145335   2.324   2.162   5.692 -1.0468  1.1838 -1.4349
 7948TIP3    H245336   2.471   2.197   5.697 -0.9543  0.6184  0.1646
 7949TIP3   OH245337   1.026   6.287   4.220 -0.5627 -0.0175 -0.4302
 7949TIP3    H145338   1.082   6.340   4.163 -0.2651 -0.6921 -0.7722
 7949TIP3    H245339   0.952   6.344   4.241  0.3938  0.9775  0.2659
 7950TIP3   OH245340   6.652   5.465   4.970  0.1968  0.1918  0.5555
 7950TIP3    H145341   6.684   5.513   4.893  0.9333 -1.5740 -0.2661
 7950TIP3    H245342   6.557   5.464   4.959  0.2353  0.7153  0.1329
 7951TIP3   OH245343   3.064   4.878   6.240  0.6911  1.0585 -0.4335
 7951TIP3    H145344   3.125   4.819   6.285  0.4992  0.1790 -1.3083
 7951TIP3    H245345   2.988   4.824   6.219 -0.3836  2.1416  0.5945
 7952TIP3   OH245346   0.519   4.145   2.892  0.5455  0.0670 -0.2351
 7952TIP3    H145347   0.454   4.195   2.844 -0.0462 -1.5809 -1.1999
 7952TIP3    H245348   0.592   4.134   2.830  1.1302  0.6535  0.3391
 7953TIP3   OH245349   1.864   6.515  11.279  0.0873 -0.1611 -0.4188
 7953TIP3    H145350   1.906   6.544  11.360 -0.9036  1.1189 -0.3466
 7953TIP3    H245351   1.913   6.437  11.253  3.9237  2.4640 -1.4997
 7954TIP3   OH245352   3.604   4.859   5.128 -0.1372  0.1995 -0.2931
 7954TIP3    H145353   3.590   4.930   5.190  0.3064 -1.4655  1.8098
 7954TIP3    H245354   3.533   4.797   5.145  0.6111 -0.7952 -0.6701
 7955TIP3   OH245355   0.686   2.172  10.593 -0.4491  0.2045  0.1066
 7955TIP3    H145356   0.660   2.260  10.566 -1.4047  0.1364  0.7854
 7955TIP3    H245357   0.605   2.131  10.623 -0.1963 -1.2443 -1.1193
 7956TIP3   OH245358   2.454   0.950  11.278  0.0788  0.2756 -0.3435
 7956TIP3    H145359   2.397   0.933  11.203  1.2774 -0.3757 -1.1228
 7956TIP3    H245360   2.486   1.040  11.264  2.2688 -0.7026 -1.9732
 7957TIP3   OH245361   1.905   1.313  14.627 -0.2950 -0.0166  0.0338
 7957TIP3    H145362   1.827   1.267  14.599 -0.9587  0.9072  0.3290
 7957TIP3    H245363   1.901   1.397  14.582  0.1779  0.2949  0.5575
 7958TIP3   OH245364   0.565   6.146   0.979 -0.3455 -0.9694  0.2837
 7958TIP3    H145365   0.530   6.066   1.017 -1.0592  0.4022  2.6405
 7958TIP3    H245366   0.638   6.170   1.036  0.5257 -0.5144 -1.0148
 7959TIP3   OH245367   3.985   2.122  12.665 -0.8259  0.1143  0.5099
 7959TIP3    H145368   3.979   2.030  12.641 -1.7093 -0.4888  2.9902
 7959TIP3    H245369   3.913   2.164  12.618 -0.5513 -0.4615 -0.4538
 7960TIP3   OH245370   4.657   1.545   0.444  0.3468  0.2554  0.2985
 7960TIP3    H145371   4.598   1.471   0.435 -0.9781  1.5300 -1.7792
 7960TIP3    H245372   4.613   1.604   0.505 -0.3004  0.9587 -0.8335
 7961TIP3   OH245373   2.650   4.035  13.687 -0.4956 -0.4718  0.2757
 7961TIP3    H145374   2.674   4.066  13.599 -0.3889 -0.3144  0.3611
 7961TIP3    H245375   2.572   4.086  13.709  0.2310  0.4261  0.8093
 7962TIP3   OH245376   5.476   0.949   0.642 -0.3746 -0.6620  0.3511
 7962TIP3    H145377   5.465   0.859   0.610 -1.9924 -0.6094  0.7070
 7962TIP3    H245378   5.420   1.002   0.586  0.4436  0.1097  0.2543
 7963TIP3   OH245379   2.977   6.730   5.857  0.0405  0.4123  0.1139
 7963TIP3    H145380   2.991   6.699   5.947  0.5042 -0.9776 -0.4322
 7963TIP3    H245381   3.020   6.665   5.802  0.4119  1.6630 -1.0917
 7964TIP3   OH245382   5.630   4.615  13.658 -0.1820  0.0531 -0.1044
 7964TIP3    H145383   5.608   4.708  13.668  2.1686  0.7206 -0.8430
 7964TIP3    H245384   5.677   4.610  13.575  3.8350 -0.9881  2.1157
 7965TIP3   OH245385   2.030   5.891  14.968 -0.2597  0.3399  0.0126
 7965TIP3    H145386   2.056   5.929  15.052 -0.0098 -1.1659  0.6208
 7965TIP3    H245387   2.075   5.945  14.903 -0.7239  1.7300  0.8210
 7966TIP3   OH245388   6.494   5.093  10.984 -0.4439  0.7204 -0.5327
 7966TIP3    H145389   6.559   5.139  10.930 -0.4607 -0.4102 -1.5346
 7966TIP3    H245390   6.436   5.162  11.016 -1.3093  1.2519 -3.1557
 7967TIP3   OH245391   4.717   2.914  13.085 -0.1073  0.1851 -0.2195
 7967TIP3    H145392   4.643   2.861  13.055 -0.8805 -0.1291  2.1185
 7967TIP3    H245393   4.780   2.850  13.118 -0.1970  0.5990  0.7788
 7968TIP3   OH245394   1.428   4.264  15.918  0.0087  0.7718 -0.1651
 7968TIP3    H145395   1.354   4.323  15.901  0.0644  0.5820 -1.0915
 7968TIP3    H245396   1.404   4.183  15.873  0.4969  0.4951  0.0666
 7969TIP3   OH245397   6.139   5.033  12.070  0.3122 -0.2433 -0.6839
 7969TIP3    H145398   6.154   5.031  11.975 -1.9415  1.0559 -1.1084
 7969TIP3    H245399   6.203   5.096  12.102  1.3339 -0.9571 -1.2909
 7970TIP3   OH245400   6.100   0.582   4.214 -0.3725  0.5949 -0.0965
 7970TIP3    H145401   6.160   0.520   4.255  0.1390  0.8306 -0.4864
 7970TIP3    H245402   6.145   0.610   4.134 -2.4924 -1.9395 -2.2955
 7971TIP3   OH245403   1.922   3.565   2.411 -0.0245 -0.2105 -0.0809
 7971TIP3    H145404   1.832   3.533   2.411  0.2031 -0.8750  0.4786
 7971TIP3    H245405   1.953   3.549   2.500 -0.2517  2.5871  0.5358
 7972TIP3   OH245406   5.464   5.505  10.473  0.3476  0.0082 -0.1982
 7972TIP3    H145407   5.558   5.522  10.459  0.2814  0.1297 -0.5000
 7972TIP3    H245408   5.432   5.480  10.387 -0.3187  1.9452 -0.5441
 7973TIP3   OH245409   3.312   2.418   4.349  0.1860 -0.0772  0.7702
 7973TIP3    H145410   3.276   2.492   4.396 -0.1379  0.4433 -0.2721
 7973TIP3    H245411   3.382   2.456   4.295 -1.1055 -0.2042 -1.0673
 7974TIP3   OH245412   5.691   0.703   5.288 -0.1641 -0.0988 -0.1296
 7974TIP3    H145413   5.681   0.653   5.207  0.5979  0.9420 -0.8885
 7974TIP3    H245414   5.708   0.793   5.259 -0.6736  0.4402  1.1986
 7975TIP3   OH245415   0.821   4.481   5.893 -0.5428  0.0606 -0.0608
 7975TIP3    H145416   0.845   4.571   5.917 -0.0608 -0.0296 -0.1863
 7975TIP3    H245417   0.829   4.478   5.798  0.4767 -0.3928  0.0243
 7976TIP3   OH245418   2.653   4.163   6.086  0.5143  0.6123 -0.0529
 7976TIP3    H145419   2.592   4.221   6.041 -0.8153  0.1958  1.1593
 7976TIP3    H245420   2.653   4.194   6.177 -0.5768 -1.5461  0.7208
 7977TIP3   OH245421   6.157   5.387   4.246 -0.1166  0.2458 -0.1812
 7977TIP3    H145422   6.163   5.293   4.262 -0.0898  0.5426  1.7220
 7977TIP3    H245423   6.247   5.417   4.242 -0.0693 -0.1414 -3.1586
 7978TIP3   OH245424   5.094   3.689   3.709 -0.2702 -0.4128 -0.6342
 7978TIP3    H145425   5.159   3.688   3.639  1.1153 -2.9631  0.6102
 7978TIP3    H245426   5.142   3.720   3.786 -1.0322 -0.4355 -0.1425
 7979TIP3   OH245427   1.049   3.442  15.168 -0.0134 -0.0330 -0.0543
 7979TIP3    H145428   1.128   3.433  15.221 -0.7411  0.5512  1.1547
 7979TIP3    H245429   1.035   3.537  15.163 -1.0910 -0.1591  0.4382
 7980TIP3   OH245430   4.904   4.084  16.903 -0.3125  0.5204 -0.2566
 7980TIP3    H145431   4.994   4.113  16.885 -0.2151  0.7225  0.5424
 7980TIP3    H245432   4.876   4.043  16.822  1.3778 -1.7689  0.2715
 7981TIP3   OH245433   6.265   2.343   5.243  0.0311  0.0463 -0.3656
 7981TIP3    H145434   6.320   2.308   5.173  2.1982  0.9823  0.8028
 7981TIP3    H245435   6.301   2.305   5.324 -2.5150 -1.1379  0.2739
 7982TIP3   OH245436   0.313   1.937   2.941 -0.3471  0.1943 -0.1090
 7982TIP3    H145437   0.274   1.865   2.993 -0.0077  0.2183  0.1778
 7982TIP3    H245438   0.261   2.014   2.965 -0.6956  0.0533 -0.3973
 7983TIP3   OH245439   3.136   3.990   1.748  0.1811  0.1810  0.2838
 7983TIP3    H145440   3.100   4.078   1.741  0.7364  0.7395  3.3650
 7983TIP3    H245441   3.144   3.975   1.843  3.4531 -1.7849 -0.2240
 7984TIP3   OH245442   2.702   1.094  14.933  0.5375 -0.0436 -0.0527
 7984TIP3    H145443   2.757   1.065  14.861 -0.7457  2.4548 -2.1155
 7984TIP3    H245444   2.762   1.134  14.995  1.5535 -1.4449 -0.1158
 7985TIP3   OH245445   4.930   1.427   3.975  0.2613 -0.0952 -0.0125
 7985TIP3    H145446   4.947   1.341   4.013  1.5856 -0.1683 -0.7192
 7985TIP3    H245447   5.017   1.466   3.964 -0.1718  0.4150 -1.7833
 7986TIP3   OH245448   5.342   0.978   0.396  0.2921  0.6297 -0.4398
 7986TIP3    H145449   5.280   1.017   0.334 -1.1344 -1.5504 -0.4129
 7986TIP3    H245450   5.428   0.988   0.354 -0.3602  1.4492 -1.6000
 7987TIP3   OH245451   2.296   4.401   4.679 -0.0015  0.4006  0.0689
 7987TIP3    H145452   2.227   4.380   4.616  0.0508  1.0754 -0.2139
 7987TIP3    H245453   2.274   4.348   4.756  0.6059 -1.3291 -0.9209
 7988TIP3   OH245454   2.154   4.884  11.079 -0.3117 -0.8748  0.2825
 7988TIP3    H145455   2.094   4.839  11.019 -0.2651 -0.5713  0.0068
 7988TIP3    H245456   2.134   4.848  11.165 -0.5521 -1.1322  0.1180
 7989TIP3   OH245457   0.701   0.864  15.776 -0.3554 -0.0603  0.5359
 7989TIP3    H145458   0.615   0.900  15.752 -0.6557 -0.8714  0.3956
 7989TIP3    H245459   0.715   0.893  15.866 -0.9336 -0.2299  0.6797
 7990TIP3   OH245460   3.829   4.541  13.990  0.4339  0.0966 -0.2425
 7990TIP3    H145461   3.814   4.541  13.895 -0.7897  1.5997 -0.0711
 7990TIP3    H245462   3.755   4.493  14.026  1.5884 -1.6255 -0.1239
 7991TIP3   OH245463   4.260   2.308  16.111 -0.5547  0.0730 -0.0593
 7991TIP3    H145464   4.286   2.222  16.078 -0.6256  0.1283 -0.2634
 7991TIP3    H245465   4.252   2.296  16.206 -3.1336 -0.8255 -0.3383
 7992TIP3   OH245466   6.098   2.634  13.119 -0.7249  0.5967 -1.3488
 7992TIP3    H145467   6.128   2.682  13.042 -1.5738  0.4814 -1.7507
 7992TIP3    H245468   6.005   2.653  13.126 -0.4351  1.4923  0.3066
 7993TIP3   OH245469   0.880   2.182   0.264  0.3590 -0.2767 -0.1599
 7993TIP3    H145470   0.937   2.208   0.337  0.5068 -0.8900 -0.0591
 7993TIP3    H245471   0.920   2.223   0.187  1.3607 -1.3292 -0.2002
 7994TIP3   OH245472   3.882   3.697   4.639  0.2500 -0.1990  0.4078
 7994TIP3    H145473   3.919   3.647   4.567 -0.5736 -0.9635  0.5125
 7994TIP3    H245474   3.825   3.762   4.596 -0.1037 -0.5386  0.3683
 7995TIP3   OH245475   4.690   5.931   3.837 -0.5087 -0.1028  0.0262
 7995TIP3    H145476   4.728   6.019   3.836  3.1815 -1.6254  0.2067
 7995TIP3    H245477   4.713   5.894   3.752 -2.3055 -0.8571 -0.1646
 7996TIP3   OH245478   0.864   3.214  13.759 -0.3605  0.0258 -0.6507
 7996TIP3    H145479   0.795   3.274  13.731 -0.0532 -0.2184 -1.9477
 7996TIP3    H245480   0.932   3.224  13.693  1.0210  0.5489  0.8187
 7997TIP3   OH245481   0.018   2.153  11.968 -0.0409  0.1974 -0.5897
 7997TIP3    H145482  -0.005   2.227  11.910  0.5228  0.6448 -0.2442
 7997TIP3    H245483   0.098   2.118  11.931 -1.2751 -1.4010 -1.8228
 7998TIP3   OH245484   0.928   5.584  16.057  0.1425 -0.0165 -0.2738
 7998TIP3    H145485   0.871   5.636  16.001 -0.1549 -1.3729 -1.2555
 7998TIP3    H245486   1.016   5.598  16.020  0.3483  1.3974  0.7229
 7999TIP3   OH245487   5.261   2.115  13.864  0.0859 -0.1596 -0.2109
 7999TIP3    H145488   5.326   2.114  13.793 -2.1204  0.3553 -2.3288
 7999TIP3    H245489   5.259   2.206  13.893  1.9401 -0.6234  1.4751
 8000TIP3   OH245490   0.411   5.436   0.555 -0.2031  0.0259  0.0913
 8000TIP3    H145491   0.350   5.425   0.482  0.1130 -0.2221 -0.1379
 8000TIP3    H245492   0.490   5.389   0.527  0.3873  1.0429  0.0285
 8001TIP3   OH245493   0.380   5.425   6.077 -0.1809  0.4942  0.2750
 8001TIP3    H145494   0.341   5.377   6.149 -2.1557  1.6672  0.0187
 8001TIP3    H245495   0.447   5.480   6.118  0.5479 -0.7756  0.8365
 8002TIP3   OH245496   6.101   5.434  14.507  0.1179 -0.2001 -0.0435
 8002TIP3    H145497   6.165   5.364  14.494  2.9275  2.7338 -2.5458
 8002TIP3    H245498   6.146   5.500  14.559 -1.5563  1.0319 -0.0970
 8003TIP3   OH245499   1.234   1.008  13.197 -0.5817 -0.2247 -0.1094
 8003TIP3    H145500   1.246   0.917  13.170  2.2198 -0.1814  0.7800
 8003TIP3    H245501   1.199   1.002  13.286 -1.1691 -0.4141 -0.3489
 8004TIP3   OH245502   6.113   6.445  12.130  0.2767 -0.1700 -0.0466
 8004TIP3    H145503   6.193   6.473  12.173 -0.4550  0.7536  0.7272
 8004TIP3    H245504   6.044   6.459  12.195 -0.4435 -1.4848 -0.4982
 8005TIP3   OH245505   2.456   0.177  13.051 -0.2602  0.0814  0.4874
 8005TIP3    H145506   2.447   0.192  13.145  1.0938 -0.0942  0.6575
 8005TIP3    H245507   2.456   0.082  13.042 -1.3298  0.1009  0.2001
 8006TIP3   OH245508   0.214   1.215   1.837  0.0444 -0.4944  0.3197
 8006TIP3    H145509   0.136   1.270   1.844  1.1023  1.3430 -1.6859
 8006TIP3    H245510   0.285   1.269   1.874  1.0001 -0.6639 -1.2019
 8007TIP3   OH245511   1.291   6.023  10.483  0.0480 -0.2721 -0.8099
 8007TIP3    H145512   1.203   5.992  10.463  0.2877 -0.7374 -1.1371
 8007TIP3    H245513   1.326   5.960  10.546  1.0478 -1.4859 -2.5153
 8008TIP3   OH245514   1.542   2.405  16.600  0.6002 -0.0993  0.1090
 8008TIP3    H145515   1.530   2.404  16.695  0.1027 -2.8345  0.0735
 8008TIP3    H245516   1.632   2.375  16.587  0.0856 -1.5295 -0.3001
 8009TIP3   OH245517   5.108   6.676  15.717  0.5175  0.4311 -0.4869
 8009TIP3    H145518   5.018   6.663  15.688  1.0120 -0.8464 -1.5268
 8009TIP3    H245519   5.134   6.760  15.680 -0.1235  0.6369 -0.4763
 8010TIP3   OH245520   4.699   3.164  16.009 -0.1464 -0.5448  0.1989
 8010TIP3    H145521   4.733   3.095  15.951 -0.8524  0.2250 -1.1635
 8010TIP3    H245522   4.611   3.135  16.031  0.0706 -0.7656  0.7812
 8011TIP3   OH245523   4.577   1.907   3.332 -0.4357 -0.5715  0.4255
 8011TIP3    H145524   4.672   1.896   3.328 -0.4321 -0.2096 -0.9338
 8011TIP3    H245525   4.561   1.945   3.418  0.5969 -1.1509  0.8864
 8012TIP3   OH245526   2.639   4.998  16.142  0.0976  0.0463  0.0369
 8012TIP3    H145527   2.592   5.082  16.143  0.1459  0.0724  1.2338
 8012TIP3    H245528   2.723   5.018  16.101  0.0863  0.5741  0.2640
 8013TIP3   OH245529   3.323   1.676   1.739  0.2364 -0.1466  0.0140
 8013TIP3    H145530   3.366   1.759   1.718 -1.3806  0.5572 -0.6157
 8013TIP3    H245531   3.293   1.687   1.830 -1.1955  0.5050 -0.5275
 8014TIP3   OH245532   4.113   2.580   3.295  0.0666 -0.5573 -0.4400
 8014TIP3    H145533   4.153   2.621   3.218  0.0831  0.4763  0.1165
 8014TIP3    H245534   4.182   2.580   3.361  0.0070 -1.3115 -0.3739
 8015TIP3   OH245535   6.469   6.410   2.456 -0.0024  0.0687 -0.4424
 8015TIP3    H145536   6.550   6.439   2.415  0.4934  0.0583  0.5140
 8015TIP3    H245537   6.409   6.484   2.446  0.3535  0.3477 -0.5084
 8016TIP3   OH245538   1.788   4.942   3.016 -0.3329 -0.3589  0.1580
 8016TIP3    H145539   1.768   4.960   3.107  1.1858  0.1813  0.3938
 8016TIP3    H245540   1.842   4.862   3.018 -0.2033 -0.2875 -0.2542
 8017TIP3   OH245541   1.297   6.737  15.081  0.0213  0.4083 -0.1424
 8017TIP3    H145542   1.343   6.675  15.025  0.4062  0.3739  0.2158
 8017TIP3    H245543   1.306   6.821  15.037  2.1818  0.7768  0.9724
 8018TIP3   OH245544   4.478   2.534   4.916  0.3659  0.1110  0.2155
 8018TIP3    H145545   4.454   2.619   4.953 -1.0080 -0.3915  0.5283
 8018TIP3    H245546   4.510   2.483   4.990 -0.8776 -0.3626  0.4383
 8019TIP3   OH245547   1.199   5.196  14.646  0.2227  0.4501 -0.0457
 8019TIP3    H145548   1.244   5.280  14.656  1.8089 -0.2442 -1.2744
 8019TIP3    H245549   1.120   5.218  14.596  0.4860  1.2436 -0.1233
 8020TIP3   OH245550   2.084   5.728   4.891 -0.4314 -0.4789 -0.3517
 8020TIP3    H145551   2.155   5.666   4.879  0.3295  0.4743 -0.8531
 8020TIP3    H245552   2.029   5.718   4.813  0.8646  0.9733 -1.4956
 8021TIP3   OH245553   6.075   1.871   0.288 -0.1719 -0.0417  0.0054
 8021TIP3    H145554   5.991   1.886   0.244  0.0543 -0.4627 -0.5711
 8021TIP3    H245555   6.051   1.852   0.379 -0.7170 -0.4115 -0.2133
 8022TIP3   OH245556   4.436   6.339  15.514  0.1093  0.2009  0.4438
 8022TIP3    H145557   4.413   6.414  15.569  2.4203  0.1742  1.5054
 8022TIP3    H245558   4.503   6.374  15.454  1.4823 -1.0792  1.1986
 8023TIP3   OH245559   1.450   5.748  11.895 -0.0954  0.1853  0.1405
 8023TIP3    H145560   1.357   5.759  11.874 -0.4309  0.5183  1.7400
 8023TIP3    H245561   1.476   5.832  11.932  0.9481  0.2144 -0.6435
 8024TIP3   OH245562   5.059   1.499  11.045  0.2156  0.9548 -0.2171
 8024TIP3    H145563   5.037   1.461  11.131  1.9417 -1.0492 -0.6372
 8024TIP3    H245564   5.153   1.518  11.051  0.1300  1.7447 -1.3365
 8025TIP3   OH245565   4.752   4.308  10.292  0.1832  0.3448 -0.4447
 8025TIP3    H145566   4.837   4.268  10.274 -0.7424 -1.0041 -1.9551
 8025TIP3    H245567   4.702   4.240  10.336 -0.2393  1.0035  0.1004
 8026TIP3   OH245568   1.976   4.178  14.087 -0.0218  0.4609  0.2855
 8026TIP3    H145569   1.978   4.087  14.056 -1.4986  0.6236 -0.3633
 8026TIP3    H245570   1.916   4.222  14.026 -0.4308  1.5428  1.4519
 8027TIP3   OH245571   1.359   3.102   2.321 -0.1650 -0.1014 -0.6259
 8027TIP3    H145572   1.276   3.146   2.301 -0.3029  0.6601  1.4708
 8027TIP3    H245573   1.334   3.014   2.348 -0.5874  0.9733  2.7078
 8028TIP3   OH245574   0.665   3.952  13.224 -0.3053 -0.4664  0.5390
 8028TIP3    H145575   0.633   3.862  13.218 -0.8829 -0.2831  0.8269
 8028TIP3    H245576   0.714   3.966  13.143  0.8641 -1.4562  1.0584
 8029TIP3   OH245577   6.680   3.578   2.088 -0.4219 -0.0703  0.0470
 8029TIP3    H145578   6.764   3.622   2.075  0.7878 -2.1784  0.3785
 8029TIP3    H245579   6.633   3.633   2.150  0.9599  0.8178  0.3257
 8030TIP3   OH245580   0.731   5.763   1.752  0.2179  0.5944  0.5740
 8030TIP3    H145581   0.690   5.678   1.767  0.5122  0.1939 -0.7583
 8030TIP3    H245582   0.815   5.757   1.798  0.0953  0.2758  0.7587
 8031TIP3   OH245583   2.109   1.290   6.706 -0.3761  0.7258 -0.3034
 8031TIP3    H145584   2.139   1.335   6.784 -2.0146  1.4950 -0.0914
 8031TIP3    H245585   2.064   1.358   6.655  0.0809  0.0826 -1.5921
 8032TIP3   OH245586   5.704   2.701   5.380 -0.2358 -0.2519  0.0312
 8032TIP3    H145587   5.631   2.740   5.333  0.2714 -0.6011 -1.0732
 8032TIP3    H245588   5.776   2.700   5.316  0.6383 -0.1880  1.0012
 8033TIP3   OH245589   5.200   6.454  13.767 -0.0556  0.3889 -0.2787
 8033TIP3    H145590   5.165   6.542  13.756  1.0475  0.9970  0.8949
 8033TIP3    H245591   5.140   6.398  13.719 -1.1131  1.7148 -0.5329
 8034TIP3   OH245592   1.140   2.172  12.525  0.2945 -0.1084  0.2980
 8034TIP3    H145593   1.123   2.152  12.616 -3.6558  1.3397 -0.0253
 8034TIP3    H245594   1.097   2.102  12.476  1.0085 -0.0127 -0.4883
 8035TIP3   OH245595   2.073   0.644  16.711  0.2671 -0.1548 -0.2889
 8035TIP3    H145596   2.123   0.571  16.675  0.2181  0.4689 -1.6736
 8035TIP3    H245597   1.986   0.608  16.727  0.8194 -0.9417  1.0370
 8036TIP3   OH245598   5.018   0.085  16.138 -0.3458  0.6838 -0.0637
 8036TIP3    H145599   5.049   0.008  16.089  0.6725 -0.2678  2.0116
 8036TIP3    H245600   4.923   0.083  16.127 -0.2248 -0.0971 -1.1395
 8037TIP3   OH245601   0.666   1.988  12.831 -0.4718  0.2361  0.0655
 8037TIP3    H145602   0.634   2.030  12.910  0.8952 -0.7535  1.1664
 8037TIP3    H245603   0.590   1.984  12.773 -1.4245  1.1735  1.2398
 8038TIP3   OH245604   2.815   4.977  15.014  0.4071 -0.3870  0.3911
 8038TIP3    H145605   2.752   5.046  15.035  0.4907  0.4409 -1.8689
 8038TIP3    H245606   2.852   4.951  15.098 -1.1457  0.8545  1.4893
 8039TIP3   OH245607   0.694   5.869   2.019 -1.1933 -0.7029 -0.1210
 8039TIP3    H145608   0.757   5.940   2.016 -1.5147 -0.2698  2.4578
 8039TIP3    H245609   0.687   5.839   1.928 -0.3834  1.9341 -1.0865
 8040TIP3   OH245610   1.872   1.105  12.450 -0.0374  0.1970 -0.3695
 8040TIP3    H145611   1.833   1.053  12.520  1.2434  0.1675  0.3326
 8040TIP3    H245612   1.808   1.175  12.434 -0.1187  0.4926  1.1799
 8041TIP3   OH245613   2.999   2.489   1.408  1.0511  0.6916  0.3841
 8041TIP3    H145614   2.939   2.449   1.472  0.1292 -0.5224 -1.2105
 8041TIP3    H245615   2.972   2.581   1.406  0.5331  0.5658  1.1258
 8042TIP3   OH245616   6.431   3.458  14.221  0.1550 -0.7847  0.3860
 8042TIP3    H145617   6.347   3.469  14.265 -0.3940  1.6842 -1.2005
 8042TIP3    H245618   6.468   3.546  14.217 -0.1884 -0.7283 -4.7347
 8043TIP3   OH245619   6.296   4.105   3.280 -0.4213  0.1003  0.3591
 8043TIP3    H145620   6.285   4.013   3.254  0.7258 -0.0587  0.4167
 8043TIP3    H245621   6.390   4.114   3.296 -0.6967  0.9747  1.5322
 8044TIP3   OH245622   0.744   4.472  15.995 -0.5399 -0.4600 -0.0688
 8044TIP3    H145623   0.670   4.413  16.006  0.3238 -1.9978 -2.2471
 8044TIP3    H245624   0.821   4.417  16.008  0.2610  1.1255  2.1852
 8045TIP3   OH245625   3.451   5.585   6.204 -0.2152  0.4704 -0.5921
 8045TIP3    H145626   3.418   5.532   6.131 -1.2265  0.8733 -0.4363
 8045TIP3    H245627   3.544   5.599   6.183 -0.0664 -0.8625 -0.9244
 8046TIP3   OH245628   1.057   5.089  12.072 -0.2230 -0.2687 -0.4049
 8046TIP3    H145629   1.024   5.162  12.020  1.1733 -0.6212 -1.8444
 8046TIP3    H245630   1.147   5.077  12.041 -0.8568 -3.4544 -1.1549
 8047TIP3   OH245631   0.730   0.517  12.506  0.2529 -0.2314 -0.4179
 8047TIP3    H145632   0.729   0.612  12.494 -1.5969 -0.1937 -0.1622
 8047TIP3    H245633   0.686   0.482  12.429  0.9107 -0.8918 -0.5037
 8048TIP3   OH245634   4.069   4.708  15.198 -0.3909 -0.2209  0.3473
 8048TIP3    H145635   4.088   4.647  15.128 -1.0838 -2.9388  2.4511
 8048TIP3    H245636   4.152   4.753  15.214 -0.4506  1.1187 -2.7684
 8049TIP3   OH245637   4.765   2.404  16.861  0.4017 -0.0904  0.3351
 8049TIP3    H145638   4.785   2.311  16.853 -0.6752 -0.2939 -0.1038
 8049TIP3    H245639   4.773   2.438  16.772 -1.8180 -0.3230  0.0066
 8050TIP3   OH245640   6.758   2.435  13.186 -0.1565 -0.7032 -0.1426
 8050TIP3    H145641   6.758   2.510  13.127  0.6575  0.8409  1.7701
 8050TIP3    H245642   6.708   2.463  13.263 -0.1465 -2.2287  0.4579
 8051TIP3   OH245643   0.376   1.525  14.652 -0.1678 -0.4283  0.0136
 8051TIP3    H145644   0.376   1.454  14.588  0.6606  1.2740 -1.9669
 8051TIP3    H245645   0.440   1.588  14.617  1.0629  0.1063  3.0502
 8052TIP3   OH245646   2.444   3.606  15.105 -0.2110 -0.2962  0.1133
 8052TIP3    H145647   2.407   3.692  15.125 -1.4873 -0.9595  0.5966
 8052TIP3    H245648   2.522   3.600  15.160 -2.3643 -1.1264  3.2050
 8053TIP3   OH245649   4.142   3.417   2.719  0.0078  0.2558 -0.9897
 8053TIP3    H145650   4.054   3.413   2.757  0.3159 -1.1197 -0.4224
 8053TIP3    H245651   4.152   3.336   2.670  0.6606  0.7749 -1.7349
 8054TIP3   OH245652   6.033   1.481  14.227 -0.5594  0.5142 -0.0010
 8054TIP3    H145653   6.077   1.564  14.246  1.0931 -0.1044 -1.0180
 8054TIP3    H245654   6.089   1.414  14.267 -1.7187 -0.1434  0.5580
 8055TIP3   OH245655   5.107   6.812   1.198 -0.1069  0.2635  0.3966
 8055TIP3    H145656   5.099   6.856   1.282  0.5972  1.2298 -0.0253
 8055TIP3    H245657   5.115   6.719   1.219  0.0643  0.5013  1.3949
 8056TIP3   OH245658   3.872   3.074   4.563 -0.6997 -0.0416 -0.2551
 8056TIP3    H145659   3.796   3.019   4.541 -1.2978 -0.1127  1.8939
 8056TIP3    H245660   3.878   3.070   4.658  1.9565  0.0645 -0.3781
 8057TIP3   OH245661   4.053   4.068   5.209 -0.1187  0.1300 -0.0383
 8057TIP3    H145662   4.096   4.145   5.247  0.1902 -0.1686  0.2196
 8057TIP3    H245663   4.061   4.001   5.276 -0.7237 -0.0201 -0.1134
 8058TIP3   OH245664   4.813   3.727   3.605 -0.2848 -0.0886 -0.0731
 8058TIP3    H145665   4.907   3.729   3.623 -0.2333  0.0328 -0.3600
 8058TIP3    H245666   4.805   3.748   3.512 -0.5513 -0.8034 -0.2163
 8059TIP3   OH245667   1.030   6.041   5.016 -0.3742 -0.2761 -0.5252
 8059TIP3    H145668   1.081   5.967   5.049  2.9659  0.9867 -2.5785
 8059TIP3    H245669   1.032   6.032   4.921 -1.3033  1.5633 -0.7474
 8060TIP3   OH245670   4.035   6.586  16.486 -0.0609 -0.2610  0.3156
 8060TIP3    H145671   4.085   6.663  16.515  0.4123 -0.4605  0.0493
 8060TIP3    H245672   3.964   6.577  16.549  0.1824  0.0959  0.6406
 8061TIP3   OH245673   4.462   0.373  10.977  0.9025 -0.0358  0.6120
 8061TIP3    H145674   4.554   0.381  11.002  0.8139 -0.6723  1.1740
 8061TIP3    H245675   4.460   0.398  10.885  1.8564 -1.2783  0.2367
 8062TIP3   OH245676   5.374   1.142   1.044  0.5739  0.0566 -0.4247
 8062TIP3    H145677   5.287   1.108   1.023  0.9982 -0.5715 -1.1768
 8062TIP3    H245678   5.435   1.083   0.999  1.3761  0.7781 -0.3035
 8063TIP3   OH245679   4.529   3.479  14.730 -0.1289  0.9900  0.5471
 8063TIP3    H145680   4.454   3.422  14.711  1.3705 -1.0879  0.6960
 8063TIP3    H245681   4.551   3.519  14.645 -0.5164  0.5181  0.2224
 8064TIP3   OH245682   0.196   6.201  12.706  0.6833 -0.9221 -0.0739
 8064TIP3    H145683   0.247   6.263  12.653  0.9240 -1.3775 -0.3818
 8064TIP3    H245684   0.172   6.250  12.784  1.8977 -0.8028  0.2336
 8065TIP3   OH245685   5.991   3.225   3.497 -0.5066  0.2773  0.3827
 8065TIP3    H145686   5.990   3.284   3.572  2.4597  2.0771 -0.9202
 8065TIP3    H245687   5.936   3.151   3.524 -2.2848  2.4578  2.9768
 8066TIP3   OH245688   6.238   0.782  14.982 -0.1349  0.0335 -0.1786
 8066TIP3    H145689   6.250   0.773  15.076  0.1401  0.4861 -0.1684
 8066TIP3    H245690   6.149   0.749  14.966  0.3967 -1.5584  0.0061
 8067TIP3   OH245691   1.562   5.920   4.729 -0.3653 -0.0332 -0.1180
 8067TIP3    H145692   1.471   5.921   4.698 -0.5355  1.0221  0.3821
 8067TIP3    H245693   1.559   5.965   4.814  0.5932 -0.1756 -0.0017
 8068TIP3   OH245694   0.376   4.029  15.706  0.0571 -0.0690 -0.0225
 8068TIP3    H145695   0.367   4.006  15.799 -1.1491  2.4602  0.5193
 8068TIP3    H245696   0.389   4.123  15.706 -0.9043  0.0872 -2.4831
 8069TIP3   OH245697   4.646   3.502   1.031  0.4515 -0.0407 -0.1670
 8069TIP3    H145698   4.565   3.489   0.982  1.0377  1.3201 -1.5396
 8069TIP3    H245699   4.617   3.516   1.121 -0.8393  0.1528 -0.5938
 8070TIP3   OH245700   5.383   2.153  11.588 -0.2436 -0.7851 -0.1650
 8070TIP3    H145701   5.456   2.173  11.646  0.9306 -0.3553 -1.7391
 8070TIP3    H245702   5.369   2.059  11.598 -0.4926 -0.5957  1.2986
 8071TIP3   OH245703   3.071   2.506   5.513  0.0492  0.3113  0.2826
 8071TIP3    H145704   3.152   2.460   5.489 -0.0187  0.4847 -0.3049
 8071TIP3    H245705   3.001   2.452   5.476 -0.0002  1.1827 -0.9177
 8072TIP3   OH245706   2.420   1.809   3.979 -0.5675  0.2337 -0.4532
 8072TIP3    H145707   2.405   1.898   4.011  2.0162  1.0701 -1.4723
 8072TIP3    H245708   2.374   1.753   4.042 -0.4290  2.1440  1.4125
 8073TIP3   OH245709   6.623   3.284  16.778  0.1455 -0.5396  0.6489
 8073TIP3    H145710   6.555   3.348  16.757  0.9402  0.5676  1.4027
 8073TIP3    H245711   6.590   3.202  16.741 -0.4099  0.4996 -1.2434
 8074TIP3   OH245712   5.767   3.756  15.459 -0.0043 -0.0038  0.3307
 8074TIP3    H145713   5.860   3.741  15.443  0.2649  0.2248  1.5645
 8074TIP3    H245714   5.731   3.777  15.373  1.9126  4.0964  0.4006
 8075TIP3   OH245715   1.929   2.948  15.571  0.2362 -0.0833 -0.2397
 8075TIP3    H145716   1.863   3.010  15.602  1.3868  0.1605  1.8582
 8075TIP3    H245717   1.979   2.996  15.505 -0.1348  0.5486 -0.0614
 8076TIP3   OH245718   2.659   0.662   2.845 -0.1191 -0.3594  0.0736
 8076TIP3    H145719   2.614   0.591   2.800  0.8389 -0.4035 -0.8310
 8076TIP3    H245720   2.749   0.658   2.813 -0.1103  1.3993 -0.1682
 8077TIP3   OH245721   3.050   3.451  11.737 -0.0177 -0.4332 -0.1439
 8077TIP3    H145722   3.129   3.447  11.683 -0.2887  1.2691 -0.6952
 8077TIP3    H245723   2.996   3.378  11.705  0.3428 -0.1905 -1.3383
 8078TIP3   OH245724   2.556   0.390  11.696 -0.0769 -0.3730 -0.1823
 8078TIP3    H145725   2.587   0.422  11.611 -0.3247 -1.1678 -0.5743
 8078TIP3    H245726   2.615   0.430  11.759 -0.6362  1.2108 -0.6282
 8079TIP3   OH245727   5.296   5.211   1.284 -0.1242 -0.0737  0.1847
 8079TIP3    H145728   5.301   5.288   1.227 -1.7261  0.0057  0.1226
 8079TIP3    H245729   5.215   5.224   1.334  0.3100 -1.0426  1.1633
 8080TIP3   OH245730   2.867   4.257   2.856 -0.4120 -0.2958 -0.0028
 8080TIP3    H145731   2.840   4.296   2.772 -1.1142 -0.1802  0.2698
 8080TIP3    H245732   2.842   4.322   2.921  1.1901  0.1115  0.2032
 8081TIP3   OH245733   3.080   0.885  13.123 -0.0791  0.5826  0.1228
 8081TIP3    H145734   3.122   0.905  13.206  1.7394  1.5946 -0.9944
 8081TIP3    H245735   2.992   0.922  13.131  0.1000  0.7268  1.5590
 8082TIP3   OH245736   1.331   1.977  13.054  0.1614 -0.3507  0.4838
 8082TIP3    H145737   1.365   2.050  13.002 -0.6431 -0.8578 -0.7748
 8082TIP3    H245738   1.395   1.967  13.124  1.1232  0.5374 -0.2328
 8083TIP3   OH245739   4.376   5.873   2.606 -0.0008  0.3866  0.0177
 8083TIP3    H145740   4.398   5.810   2.675  1.2149 -0.4536 -1.1027
 8083TIP3    H245741   4.391   5.959   2.646  0.4172 -0.0753  0.8798
 8084TIP3   OH245742   0.209   4.529  16.827 -0.4889 -0.2299  0.3822
 8084TIP3    H145743   0.259   4.608  16.847  1.0372 -0.9054 -0.6688
 8084TIP3    H245744   0.171   4.503  16.911  1.3243  0.0277  1.3165
 8085TIP3   OH245745   5.498   4.878   3.413 -0.7305  0.5816  0.6443
 8085TIP3    H145746   5.497   4.789   3.448  0.6075 -0.4099 -1.6972
 8085TIP3    H245747   5.586   4.910   3.431 -1.2445  1.4860  1.5812
 8086TIP3   OH245748   0.809   0.429  11.157  0.3327  0.3763  0.9085
 8086TIP3    H145749   0.803   0.491  11.085  0.3034 -1.3092 -0.5680
 8086TIP3    H245750   0.902   0.409  11.163  0.2583  0.0415  0.9329
 8087TIP3   OH245751   1.021   5.343  12.497  0.1235 -0.6119 -0.1778
 8087TIP3    H145752   1.094   5.296  12.537  0.0504 -1.6673 -1.2552
 8087TIP3    H245753   0.956   5.275  12.480 -1.8472  0.5719  2.3399
 8088TIP3   OH245754   4.583   5.227  12.368  0.7731  0.9544  0.0496
 8088TIP3    H145755   4.676   5.212  12.384 -0.0213 -3.1503  1.3826
 8088TIP3    H245756   4.543   5.231  12.455 -0.7747 -0.9010 -0.5405
 8089TIP3   OH245757   6.261   2.841   1.783  0.1129  0.0486 -0.1494
 8089TIP3    H145758   6.172   2.831   1.748  0.6054 -0.2401 -1.3203
 8089TIP3    H245759   6.248   2.882   1.869 -1.1836 -0.4182 -0.1130
 8090TIP3   OH245760   5.212   0.152  17.058 -0.1477 -0.5428 -0.1891
 8090TIP3    H145761   5.131   0.187  17.092  0.2743 -0.8462  1.1781
 8090TIP3    H245762   5.280   0.211  17.090  0.2638 -0.7994 -0.5666
 8091TIP3   OH245763   6.502   2.826   0.610 -0.3666 -0.4012 -0.5429
 8091TIP3    H145764   6.508   2.733   0.632 -2.3044 -0.5368 -0.5029
 8091TIP3    H245765   6.434   2.830   0.542 -2.2365  1.2731  1.3549
 8092TIP3   OH245766   0.994   3.252   4.921 -0.0372  0.0960  0.4107
 8092TIP3    H145767   0.970   3.162   4.899  0.5308 -0.3206  1.4644
 8092TIP3    H245768   0.989   3.255   5.016 -0.8319  1.4105  0.3299
 8093TIP3   OH245769   2.579   0.247  12.559  0.5121  0.1663 -0.1548
 8093TIP3    H145770   2.559   0.224  12.650  2.7146 -1.1003  0.0409
 8093TIP3    H245771   2.598   0.341  12.562 -0.4784  0.3561  0.4843
 8094TIP3   OH245772   5.169   3.831   5.597  0.5672 -0.3590  0.4999
 8094TIP3    H145773   5.127   3.761   5.645 -2.1257  0.3789 -0.7032
 8094TIP3    H245774   5.156   3.909   5.651 -0.6516  0.0899 -0.4293
 8095TIP3   OH245775   4.446   2.156   5.814 -0.6323 -0.0757 -0.3305
 8095TIP3    H145776   4.380   2.167   5.744 -0.9659  1.6331  0.2269
 8095TIP3    H245777   4.461   2.062   5.818 -1.6779 -0.3227 -1.7445
 8096TIP3   OH245778   0.313   0.672  12.938 -0.9549  0.7351  0.2560
 8096TIP3    H145779   0.299   0.757  12.898 -1.0453  1.0205  0.8920
 8096TIP3    H245780   0.261   0.612  12.885 -3.0913  1.5012  1.4540
 8097TIP3   OH245781   3.639   1.806   2.732  0.4181  0.3146  0.3184
 8097TIP3    H145782   3.676   1.736   2.786 -0.9254  0.1580  1.0552
 8097TIP3    H245783   3.714   1.860   2.708  1.2643 -0.5778  0.9350
 8098TIP3   OH245784   2.806   2.907  11.671  1.1318 -0.2362  0.8109
 8098TIP3    H145785   2.746   2.979  11.689  1.2241 -0.3881  1.8109
 8098TIP3    H245786   2.878   2.947  11.623  0.8762  0.2194  0.8061
 8099TIP3   OH245787   1.022   3.990  14.400 -0.3476  0.4572 -0.0317
 8099TIP3    H145788   1.025   3.935  14.321 -0.5024  1.5567 -0.8217
 8099TIP3    H245789   1.063   4.073  14.372 -1.1384  1.1388  0.8174
 8100TIP3   OH245790   0.980   4.258  15.280 -0.3892 -0.0500  0.8973
 8100TIP3    H145791   0.983   4.325  15.348  0.4323  0.3756  0.4551
 8100TIP3    H245792   0.889   4.258  15.251 -0.1836  1.6797  0.1344
 8101TIP3   OH245793   2.792   1.632   1.914 -0.3439  0.1247 -0.6053
 8101TIP3    H145794   2.771   1.546   1.951 -0.6515 -0.5797 -2.3781
 8101TIP3    H245795   2.868   1.662   1.964 -0.5442 -0.9408  0.3664
 8102TIP3   OH245796   3.660   0.454   1.576 -0.0249  0.6418  0.2496
 8102TIP3    H145797   3.579   0.499   1.602 -0.4373  0.3592 -0.5158
 8102TIP3    H245798   3.694   0.417   1.657  0.3415  2.3790  0.8910
 8103TIP3   OH245799   6.110   2.945  11.559  0.2754 -0.2157  0.5983
 8103TIP3    H145800   6.190   2.943  11.611  0.9312 -0.2188 -0.3967
 8103TIP3    H245801   6.136   2.985  11.476 -0.8242  0.0875  0.3864
 8104TIP3   OH245802   2.315   0.352  16.289 -0.7175  0.4834 -0.4626
 8104TIP3    H145803   2.264   0.278  16.255 -0.8598  0.2080  0.3303
 8104TIP3    H245804   2.250   0.416  16.316 -0.6567  0.1108  0.5944
 8105TIP3   OH245805   4.739   3.278  16.691 -0.6382 -0.3523 -0.1467
 8105TIP3    H145806   4.650   3.311  16.678 -0.7375 -0.6523 -0.2311
 8105TIP3    H245807   4.794   3.357  16.689 -1.0342 -0.0328  1.2236
 8106TIP3   OH245808   2.710   2.283  13.040  0.1369  0.0055 -0.2117
 8106TIP3    H145809   2.692   2.375  13.057  1.4224  0.2112  0.0985
 8106TIP3    H245810   2.633   2.236  13.074 -0.0052  0.8743  0.6701
 8107TIP3   OH245811   3.595   5.388  14.704  0.0584 -0.7653 -0.2148
 8107TIP3    H145812   3.507   5.395  14.741 -0.4450  0.9780 -1.6907
 8107TIP3    H245813   3.654   5.408  14.776 -0.8479  0.7158  0.1143
 8108TIP3   OH245814   2.421   5.545  14.883  0.1228 -0.1629  0.0626
 8108TIP3    H145815   2.373   5.496  14.949 -0.0931  0.5336  0.4286
 8108TIP3    H245816   2.460   5.618  14.931  1.9740 -1.0047 -0.1308
 8109TIP3   OH245817   5.332   4.309   0.112  0.3950  0.1030 -0.4022
 8109TIP3    H145818   5.321   4.344   0.200  0.5748 -1.7688  0.4028
 8109TIP3    H245819   5.243   4.295   0.079  0.2906 -1.8040  0.5995
 8110TIP3   OH245820   1.006   4.044  11.986 -0.4996 -0.3928 -0.1755
 8110TIP3    H145821   1.020   4.112  11.920  1.8833 -0.7445 -0.0537
 8110TIP3    H245822   1.030   4.086  12.069  0.2721 -1.1673 -0.0066
 8111TIP3   OH245823   5.813   1.688  12.618 -0.3590  0.5168  0.6225
 8111TIP3    H145824   5.726   1.724  12.601 -0.7875  0.1596  2.0217
 8111TIP3    H245825   5.799   1.593  12.623  0.1483  0.4414  0.6338
 8112TIP3   OH245826   0.590   5.153   5.968  0.3595  0.4395 -0.0504
 8112TIP3    H145827   0.552   5.142   6.055 -0.4538  0.0159 -0.4522
 8112TIP3    H245828   0.584   5.066   5.929  2.0648  0.2904  0.0063
 8113TIP3   OH245829   0.634   4.839  14.573  0.3019  0.0098 -0.4775
 8113TIP3    H145830   0.720   4.855  14.535  0.2079  0.8223 -0.3482
 8113TIP3    H245831   0.589   4.923  14.568 -1.5505 -1.0533 -3.2001
 8114TIP3   OH245832   4.455   3.135  15.752  0.9626 -0.4019  0.3512
 8114TIP3    H145833   4.550   3.147  15.750  0.8457  0.6851  1.0906
 8114TIP3    H245834   4.435   3.114  15.843  0.2909  1.1163  0.5617
 8115TIP3   OH245835   3.495   1.047   4.514  0.0325  0.2244  0.0812
 8115TIP3    H145836   3.435   1.062   4.441  0.4581 -1.2830 -0.5958
 8115TIP3    H245837   3.566   1.110   4.500  1.7235 -2.1303 -2.6469
 8116TIP3   OH245838   1.603   5.151   4.252 -0.6754  0.0687  0.0743
 8116TIP3    H145839   1.581   5.242   4.234  0.3660  0.1667 -0.7543
 8116TIP3    H245840   1.519   5.107   4.260 -1.1938  1.2065  1.0514
 8117TIP3   OH245841   3.209   0.371  12.385 -0.4859  0.2052  0.5456
 8117TIP3    H145842   3.173   0.435  12.446 -0.4963 -0.5179  1.3108
 8117TIP3    H245843   3.212   0.289  12.435 -1.6238 -0.6732 -0.8035
 8118TIP3   OH245844   1.972   2.962  14.029  0.2282 -0.3965 -0.3898
 8118TIP3    H145845   1.951   2.947  13.937  0.6014 -0.2014 -0.5083
 8118TIP3    H245846   2.014   3.049  14.031  1.8551 -1.1543 -0.3001
 8119TIP3   OH245847   3.026   6.524   3.901  0.5683  0.5609 -0.2348
 8119TIP3    H145848   2.947   6.470   3.908  0.8029  0.5409  3.1184
 8119TIP3    H245849   3.098   6.462   3.897  0.5696  0.5823 -0.5043
 8120TIP3   OH245850   6.724   5.827  15.142 -0.4627  0.2496 -0.0412
 8120TIP3    H145851   6.761   5.750  15.186  0.2522  0.0938 -0.9079
 8120TIP3    H245852   6.694   5.883  15.213  0.3363 -0.1769  0.6385
 8121TIP3   OH245853   2.253   4.897   4.532 -0.6461  0.0693 -0.6998
 8121TIP3    H145854   2.301   4.839   4.592  0.5802  1.1463 -0.6076
 8121TIP3    H245855   2.178   4.845   4.503 -0.2172 -1.1388  0.2961
 8122TIP3   OH245856   2.036   1.405  12.032  0.8817  0.2521  0.4474
 8122TIP3    H145857   1.973   1.413  12.105  0.2745 -2.9058  0.3518
 8122TIP3    H245858   2.014   1.477  11.974 -2.5419 -0.6099  0.5553
 8123TIP3   OH245859   4.798   3.313  14.631  0.1497 -0.3368 -0.4939
 8123TIP3    H145860   4.706   3.328  14.608  0.1204 -0.6427 -0.5742
 8123TIP3    H245861   4.794   3.281  14.722  0.0798 -1.6622 -0.9570
 8124TIP3   OH245862   6.814   1.871   2.421  0.3101  0.5481  0.0116
 8124TIP3    H145863   6.726   1.910   2.414  0.4416  1.5446  3.1307
 8124TIP3    H245864   6.798   1.781   2.449  0.2505  0.4003 -0.4927
 8125TIP3   OH245865   2.163   4.006   3.783 -0.3544  0.1585  0.0503
 8125TIP3    H145866   2.100   4.006   3.711  0.2594  0.5409 -0.4934
 8125TIP3    H245867   2.117   3.964   3.855 -1.6220  1.4126  0.0006
 8126TIP3   OH245868   1.244   5.380  12.875 -0.2793 -0.4599 -0.2072
 8126TIP3    H145869   1.192   5.377  12.955 -2.6290 -0.1697 -1.6714
 8126TIP3    H245870   1.251   5.473  12.854 -0.6070 -0.5905 -0.9135
 8127TIP3   OH245871   3.547   3.284  14.233  0.0255 -0.3362 -0.8172
 8127TIP3    H145872   3.486   3.349  14.269 -0.6566 -0.7981 -1.1385
 8127TIP3    H245873   3.589   3.246  14.310  0.5078  0.5531 -0.6272
 8128TIP3   OH245874   1.784   1.948  14.222  0.2695  0.7417 -0.0502
 8128TIP3    H145875   1.842   1.905  14.285  0.4189  0.4248 -0.4035
 8128TIP3    H245876   1.780   1.888  14.148 -0.0484  1.0322 -0.2691
 8129TIP3   OH245877   6.683   1.334   1.168  0.1887 -0.3137  0.1028
 8129TIP3    H145878   6.676   1.323   1.073  1.8303  0.2087 -0.1085
 8129TIP3    H245879   6.775   1.356   1.182 -0.2603  0.6013  1.7259
 8130TIP3   OH245880   0.038   1.780   0.219 -0.1316  0.2447 -0.1428
 8130TIP3    H145881   0.105   1.836   0.180  0.9346 -1.5449 -0.9221
 8130TIP3    H245882   0.075   1.692   0.215 -1.6251 -0.4843  1.4136
 8131TIP3   OH245883   4.849   2.138   2.854 -0.0358 -0.4407  0.0858
 8131TIP3    H145884   4.857   2.062   2.911  0.8210 -0.0179  0.5289
 8131TIP3    H245885   4.871   2.212   2.910  0.6289 -0.0047 -0.7487
 8132TIP3   OH245886   4.398   0.352  16.389  0.3664  0.0087 -0.1235
 8132TIP3    H145887   4.366   0.304  16.465  2.7122  0.6059  1.2850
 8132TIP3    H245888   4.447   0.426  16.425  0.8540  0.7494 -2.2093
 8133TIP3   OH245889   4.421   0.874   2.227 -0.1248  0.4591  0.3458
 8133TIP3    H145890   4.432   0.820   2.305 -0.4561  0.5245  0.4413
 8133TIP3    H245891   4.465   0.956   2.249 -1.1584  0.8880  0.9001
 8134TIP3   OH245892   3.477   3.022   5.280  0.1220  0.2816  0.5318
 8134TIP3    H145893   3.468   2.977   5.196 -0.2012  3.3306 -1.1412
 8134TIP3    H245894   3.391   3.016   5.321  0.0094 -0.3530  0.2022
 8135TIP3   OH245895   0.901   0.676   1.709 -0.5127 -0.4111  0.5835
 8135TIP3    H145896   0.858   0.742   1.764 -1.1316 -0.5555  0.2718
 8135TIP3    H245897   0.844   0.600   1.713 -0.1272 -0.7093  0.4187
 8136TIP3   OH245898   6.422   6.298   1.566 -0.1940 -0.1583 -0.7544
 8136TIP3    H145899   6.374   6.357   1.624  1.9920  1.7018 -0.7390
 8136TIP3    H245900   6.376   6.214   1.573 -1.7837  0.8353  1.3012
 8137TIP3   OH245901   1.933   2.914  16.759 -0.0112 -0.2937  0.4587
 8137TIP3    H145902   1.959   3.006  16.758 -0.6831 -0.0904  1.0547
 8137TIP3    H245903   1.985   2.874  16.829  0.5880 -0.4666 -0.0778
 8138TIP3   OH245904   4.640   5.601   2.174  0.5881  0.0206  0.5181
 8138TIP3    H145905   4.598   5.585   2.090  1.1211 -1.7639  0.5502
 8138TIP3    H245906   4.624   5.693   2.193  1.0116  0.5997 -1.8420
 8139TIP3   OH245907   3.433   6.334   0.536 -0.1127  0.2985 -0.0999
 8139TIP3    H145908   3.349   6.314   0.576 -0.0806  0.3479 -0.0089
 8139TIP3    H245909   3.471   6.248   0.516 -0.3741  0.2793 -0.5363
 8140TIP3   OH245910   4.769   3.783  13.586 -0.1692 -0.2351 -0.2337
 8140TIP3    H145911   4.790   3.708  13.643  0.6141 -0.0459 -0.2718
 8140TIP3    H245912   4.828   3.773  13.511  0.3285  0.7299  0.0240
 8141TIP3   OH245913   1.622   1.312   0.446 -0.3583  0.2862 -0.2268
 8141TIP3    H145914   1.697   1.301   0.505  0.1950 -1.2438 -1.1763
 8141TIP3    H245915   1.620   1.406   0.427  0.4044  0.5540  0.9911
 8142TIP3   OH245916   3.731   5.930  15.939 -0.5327 -0.2151 -0.5877
 8142TIP3    H145917   3.788   5.913  15.864  0.4491  0.0825  0.0827
 8142TIP3    H245918   3.654   5.973  15.901  0.1772  0.3976 -1.3599
 8143TIP3   OH245919   2.109   6.638   5.600 -0.2114  0.4084  0.0768
 8143TIP3    H145920   2.160   6.708   5.640  0.6748  0.4788 -1.1637
 8143TIP3    H245921   2.174   6.574   5.570 -0.9246 -0.1983 -0.2017
 8144TIP3   OH245922   3.657   1.469  16.128  0.1255 -0.2718  0.1126
 8144TIP3    H145923   3.660   1.525  16.205 -2.1655  1.8938 -1.3162
 8144TIP3    H245924   3.583   1.411  16.143 -0.2718  0.0978 -0.4376
 8145TIP3   OH245925   5.615   6.294  13.220 -0.2196 -0.0858 -0.5918
 8145TIP3    H145926   5.585   6.376  13.182 -0.9813 -0.7698 -1.4855
 8145TIP3    H245927   5.671   6.255  13.153  0.6105 -0.0362  0.0560
 8146TIP3   OH245928   2.075   3.481   2.914 -0.4927  0.5956 -0.2530
 8146TIP3    H145929   1.991   3.438   2.898 -0.8620  0.7491  1.2004
 8146TIP3    H245930   2.137   3.409   2.925 -0.5937  0.4720 -0.4896
 8147TIP3   OH245931   3.811   2.921  13.219 -0.0928 -0.2248  0.3555
 8147TIP3    H145932   3.808   2.925  13.123  2.5731  0.1930  0.2572
 8147TIP3    H245933   3.892   2.967  13.242 -0.6254 -0.4645  2.8162
 8148TIP3   OH245934   2.328   5.733  14.680  0.4000  0.4947 -0.0918
 8148TIP3    H145935   2.335   5.696  14.592  1.7939 -0.6461  0.4573
 8148TIP3    H245936   2.370   5.667  14.736 -0.3335  1.2780  1.3968
 8149TIP3   OH245937   0.833   5.681  14.913 -0.1488 -0.0442 -0.4314
 8149TIP3    H145938   0.796   5.593  14.899 -0.9933  0.4249 -1.2523
 8149TIP3    H245939   0.906   5.685  14.852  1.2075 -0.9258  1.1004
 8150TIP3   OH245940   2.884   4.945   3.571  0.6889 -0.1016 -0.0280
 8150TIP3    H145941   2.813   4.941   3.506  0.7788 -0.0585 -0.1295
 8150TIP3    H245942   2.913   5.036   3.568 -1.1915  0.5936  2.1001
 8151TIP3   OH245943   5.210   0.309  16.054  0.3456 -0.3956 -0.0858
 8151TIP3    H145944   5.149   0.240  16.080  1.9663 -1.2668  1.4431
 8151TIP3    H245945   5.292   0.288  16.098  0.2594  3.7488  2.2843
 8152TIP3   OH245946   3.682   6.203   4.566 -0.4487  0.2538  0.2858
 8152TIP3    H145947   3.649   6.120   4.601 -0.8731  0.5852  0.6678
 8152TIP3    H245948   3.771   6.182   4.536  0.5617  0.3297  3.0508
 8153TIP3   OH245949   5.561   0.760  11.162 -0.3043  0.3155 -0.0230
 8153TIP3    H145950   5.541   0.790  11.074 -1.1743 -0.3496 -0.0595
 8153TIP3    H245951   5.656   0.771  11.171 -0.1025 -0.3745 -1.3255
 8154TIP3   OH245952   1.907   2.126  13.011 -0.5113 -0.4625 -0.6076
 8154TIP3    H145953   1.874   2.164  12.929 -0.0601 -0.6888 -0.8926
 8154TIP3    H245954   1.987   2.080  12.987 -0.4513 -0.6549 -0.0631
 8155TIP3   OH245955   2.447   2.705  11.546  0.2351  0.1890 -0.4879
 8155TIP3    H145956   2.532   2.672  11.576  1.5884  1.4818 -2.7990
 8155TIP3    H245957   2.463   2.736  11.457 -2.6139  0.7106 -0.8666
 8156TIP3   OH245958   0.434   0.732   4.733  0.1720 -0.2344 -0.4075
 8156TIP3    H145959   0.402   0.688   4.812  1.6220  1.9333  1.4505
 8156TIP3    H245960   0.355   0.749   4.681 -1.1026  0.4918  1.7163
 8157TIP3   OH245961   3.291   6.081  16.971  0.3413  0.3654 -0.3092
 8157TIP3    H145962   3.304   6.164  17.018  0.1578 -0.6066  1.4989
 8157TIP3    H245963   3.374   6.067  16.925  0.2187  1.7653 -0.9756
 8158TIP3   OH245964   4.409   0.507  13.572 -0.2308  0.2770  0.0601
 8158TIP3    H145965   4.326   0.479  13.533 -0.0883 -0.3563  0.2003
 8158TIP3    H245966   4.474   0.446  13.536  0.0898  0.4449  0.3505
 8159TIP3   OH245967   2.581   6.294  11.285  0.2764 -0.2617 -0.3535
 8159TIP3    H145968   2.646   6.351  11.243  0.3894 -0.2888 -0.2137
 8159TIP3    H245969   2.588   6.211  11.238 -0.1818 -0.0329 -0.8340
 8160TIP3   OH245970   5.205   3.299  13.851  0.5666  0.4077 -0.3040
 8160TIP3    H145971   5.252   3.228  13.895 -0.3550  0.2368  0.4230
 8160TIP3    H245972   5.239   3.378  13.892 -1.1438  0.1950  1.5908
 8161TIP3   OH245973   6.014   4.397  13.674 -0.2171 -0.1471 -0.6133
 8161TIP3    H145974   5.944   4.384  13.738 -0.1887 -1.7009 -0.8663
 8161TIP3    H245975   5.972   4.440  13.600 -0.3727  1.1540  0.2220
 8162TIP3   OH245976   6.537   4.181   1.867  0.2339 -0.2705  0.1624
 8162TIP3    H145977   6.627   4.160   1.892  0.2091  0.3629  0.7879
 8162TIP3    H245978   6.526   4.139   1.782  0.9502 -0.7996  0.3208
 8163TIP3   OH245979   4.024   4.664  15.791  0.0364  0.0256 -0.0824
 8163TIP3    H145980   4.069   4.744  15.763  1.0335 -0.5596 -0.1680
 8163TIP3    H245981   4.070   4.637  15.870 -1.2728  0.3666  0.8084
 8164TIP3   OH245982   2.222   0.601  15.415 -0.0783  0.7393  0.0431
 8164TIP3    H145983   2.169   0.680  15.422 -1.7203 -0.2096 -1.3346
 8164TIP3    H245984   2.168   0.533  15.455  0.4745 -0.0709 -0.5878
 8165TIP3   OH245985   4.563   1.989  16.466 -0.2817  0.2281 -0.2284
 8165TIP3    H145986   4.540   1.948  16.550 -0.4931 -0.2888 -0.5335
 8165TIP3    H245987   4.479   2.008  16.425 -0.1780  0.4939 -0.3196
 8166TIP3   OH245988   5.822   0.296  13.921  1.1096  0.1587  0.0722
 8166TIP3    H145989   5.870   0.245  13.856 -1.6388 -1.7655 -0.5420
 8166TIP3    H245990   5.874   0.287  14.001  1.3596 -2.6235 -0.3472
 8167TIP3   OH245991   0.963   6.142   5.257  0.6567  0.6182  0.0980
 8167TIP3    H145992   0.934   6.081   5.324  0.3784  0.5805 -0.0535
 8167TIP3    H245993   0.969   6.090   5.177  0.7410  0.7154  0.0397
 8168TIP3   OH245994   2.415   4.269  11.405  0.3338  0.3588 -0.4579
 8168TIP3    H145995   2.486   4.318  11.363  0.6408 -0.4375 -0.8756
 8168TIP3    H245996   2.359   4.337  11.443 -0.3457  1.1421 -2.7726
 8169TIP3   OH245997   6.311   2.573   2.717  0.6954 -0.4757  0.4364
 8169TIP3    H145998   6.270   2.659   2.707 -0.9440 -1.4168 -1.3199
 8169TIP3    H245999   6.301   2.532   2.631  1.8437 -2.2754  1.1288
 8170TIP3   OH246000   6.149   3.258   4.029  0.1685  0.0325 -0.4588
 8170TIP3    H146001   6.196   3.342   4.027 -0.4083  0.3666 -0.0230
 8170TIP3    H246002   6.057   3.282   4.025 -0.0206 -0.5524  0.3211
 8171TIP3   OH246003   0.909   4.389  14.960  0.0376 -0.3069 -0.4014
 8171TIP3    H146004   0.996   4.368  14.925  0.1089 -0.8598  0.1094
 8171TIP3    H246005   0.927   4.444  15.037 -0.0921  0.1935 -0.7252
 8172TIP3   OH246006   3.192   3.351   0.110  0.0302 -0.2445  0.3911
 8172TIP3    H146007   3.148   3.303   0.180 -0.3355 -0.1246  0.2510
 8172TIP3    H246008   3.135   3.338   0.034  1.0112 -1.3094 -0.1699
 8173TIP3   OH246009   2.022   4.156  16.701  0.3338 -0.2695 -0.2700
 8173TIP3    H146010   1.940   4.167  16.749 -0.8783 -1.1631 -2.0504
 8173TIP3    H246011   2.051   4.068  16.723  0.8849  0.0918  0.4537
 8174TIP3   OH246012   5.199   6.731  16.938  0.3653 -0.6647 -0.6373
 8174TIP3    H146013   5.201   6.810  16.992 -1.6952 -1.0454  0.0207
 8174TIP3    H246014   5.290   6.702  16.936  0.8605  0.7165  0.5869
 8175TIP3   OH246015   2.396   4.203  14.681  0.2670 -0.0806 -0.1574
 8175TIP3    H146016   2.428   4.121  14.644  0.2904 -0.6165  1.0257
 8175TIP3    H246017   2.410   4.194  14.775  1.2982  1.7325 -0.1124
 8176TIP3   OH246018   4.015   0.174  16.091 -0.3818 -0.4274 -0.1169
 8176TIP3    H146019   4.090   0.195  16.147 -1.7859  0.2458  1.5577
 8176TIP3    H246020   4.053   0.124  16.018  1.6550 -0.2435  0.7776
 8177TIP3   OH246021   5.441   6.529  10.823  0.1009  1.0416  0.3978
 8177TIP3    H146022   5.353   6.509  10.853  0.0975 -0.5402 -0.6067
 8177TIP3    H246023   5.430   6.564  10.735  0.4113  1.6221  0.5889
 8178TIP3   OH246024   3.096   2.910  15.368  0.3649  0.4768 -0.4618
 8178TIP3    H146025   3.095   2.822  15.404 -0.4044  0.1255 -1.3381
 8178TIP3    H246026   3.129   2.899  15.279  0.2746  1.0800 -0.5704
 8179TIP3   OH246027   4.066   4.686  14.785 -0.3096 -0.0573  0.2707
 8179TIP3    H146028   3.980   4.650  14.763  0.9929 -1.9129 -2.0325
 8179TIP3    H246029   4.102   4.716  14.701  0.8946  1.6482  1.3565
 8180TIP3   OH246030   3.367   6.527  12.301 -0.1761 -0.8288 -0.2077
 8180TIP3    H146031   3.355   6.576  12.382 -1.3592 -3.3822  1.2212
 8180TIP3    H246032   3.281   6.528  12.258  0.7499  1.6286 -2.1573
 8181TIP3   OH246033   6.615   3.866   3.428 -0.2398 -0.6880 -0.7313
 8181TIP3    H146034   6.609   3.795   3.492  1.9609 -1.5482 -1.4109
 8181TIP3    H246035   6.675   3.833   3.361 -0.7696  1.0399 -2.1033
 8182TIP3   OH246036   2.894   4.080   4.015  0.2505  0.0175 -0.0854
 8182TIP3    H146037   2.957   4.008   4.018  0.1534 -0.0186  1.6763
 8182TIP3    H246038   2.948   4.158   4.000  0.6308 -0.1252  0.5101
 8183TIP3   OH246039   1.397   5.913   5.254 -0.6868 -0.2441  0.4207
 8183TIP3    H146040   1.327   5.978   5.264 -0.4261 -0.0598  1.0617
 8183TIP3    H246041   1.477   5.961   5.275 -0.2874 -0.2669 -1.0041
 8184TIP3   OH246042   5.970   5.786  15.198  0.2613 -0.1437 -0.1537
 8184TIP3    H146043   5.962   5.741  15.282  0.0012 -2.8506 -1.5780
 8184TIP3    H246044   5.969   5.879  15.220 -2.1040 -0.7734  2.6490
 8185TIP3   OH246045   5.809   6.339   3.516  0.0337 -0.1589 -0.4082
 8185TIP3    H146046   5.864   6.301   3.584  0.4125  0.1038 -0.5644
 8185TIP3    H246047   5.728   6.364   3.561  0.3975  0.2796  0.0048
 8186TIP3   OH246048   4.043   5.708  15.837  0.6001  0.7188 -0.2501
 8186TIP3    H146049   3.953   5.711  15.804  0.9854  0.1556 -1.3898
 8186TIP3    H246050   4.057   5.795  15.874 -1.1817  0.0531  2.0833
 8187TIP3   OH246051   0.323   3.022  11.693  0.2823  0.2322  0.1364
 8187TIP3    H146052   0.345   3.027  11.600  0.7881 -0.6409  0.2021
 8187TIP3    H246053   0.317   2.928  11.712  0.5518  0.3934  1.0729
 8188TIP3   OH246054   0.263   4.512   4.802 -0.3929 -0.1834 -0.5095
 8188TIP3    H146055   0.317   4.546   4.874 -0.6904  1.3524 -1.0020
 8188TIP3    H246056   0.325   4.493   4.732 -0.3689  0.6905 -0.7355
 8189TIP3   OH246057   4.497   1.110   0.639 -0.2783  0.5445 -0.1175
 8189TIP3    H146058   4.501   1.062   0.722 -1.6513  1.3133  0.4261
 8189TIP3    H246059   4.581   1.093   0.597 -1.1745 -3.2799 -0.5077
 8190TIP3   OH246060   5.334   3.836  15.574 -0.8501 -0.1952  0.3364
 8190TIP3    H146061   5.263   3.848  15.511  0.1133 -0.8365 -0.8821
 8190TIP3    H246062   5.404   3.795  15.524  0.4299  0.5253  1.5075
 8191TIP3   OH246063   3.389   1.879   3.487 -0.0397 -0.1300  0.1674
 8191TIP3    H146064   3.297   1.890   3.461  0.0186 -0.5929 -0.2385
 8191TIP3    H246065   3.424   1.815   3.425  0.3063 -0.6880  0.9344
 8192TIP3   OH246066   6.037   2.667  15.896  0.1269 -0.2679  0.0068
 8192TIP3    H146067   6.131   2.664  15.915  0.0215  1.1759  0.8284
 8192TIP3    H246068   6.009   2.753  15.927 -1.3277 -0.3904 -0.9308
 8193TIP3   OH246069   4.576   3.865   1.063  0.6335 -0.8430  0.4229
 8193TIP3    H146070   4.614   3.815   1.135  2.4176  0.0422  0.1152
 8193TIP3    H246071   4.620   3.831   0.985 -1.0531 -1.5704 -0.2248
 8194TIP3   OH246072   0.304   5.859  12.627 -0.2138  0.1134 -0.1339
 8194TIP3    H146073   0.335   5.939  12.585 -0.8447 -0.3154 -1.4136
 8194TIP3    H246074   0.221   5.884  12.668 -0.2304  0.2103 -0.2268
 8195TIP3   OH246075   5.431   6.319  14.941 -0.1081 -0.0516 -0.1794
 8195TIP3    H146076   5.353   6.312  14.995 -0.6657  0.3413 -0.9135
 8195TIP3    H246077   5.483   6.241  14.961 -1.3313 -1.0111 -0.6988
 8196TIP3   OH246078   3.802   5.529   2.769 -0.0652 -0.0640  0.4582
 8196TIP3    H146079   3.747   5.584   2.713 -0.0806  1.8829  2.3402
 8196TIP3    H246080   3.757   5.444   2.772 -1.3493  0.5787 -0.4480
 8197TIP3   OH246081   1.554   4.850  15.744 -0.3720 -0.1810 -0.4209
 8197TIP3    H146082   1.591   4.809  15.666  0.9503 -0.9961  0.6247
 8197TIP3    H246083   1.602   4.932  15.754 -2.4440  1.2960 -2.0285
 8198TIP3   OH246084   0.182   2.641  13.216  0.7184  0.7743 -0.1557
 8198TIP3    H146085   0.183   2.559  13.166 -0.7754  0.0604  0.9562
 8198TIP3    H246086   0.218   2.618  13.301 -1.1277  0.9043  0.6853
 8199TIP3   OH246087   2.364   4.518   4.425 -0.3701 -0.4381 -0.0538
 8199TIP3    H146088   2.423   4.549   4.356  0.2734 -1.7593 -0.1152
 8199TIP3    H246089   2.409   4.442   4.462 -1.3202 -0.5136  0.9495
 8200TIP3   OH246090   1.919   0.200   0.748  0.3437 -0.7829  0.5527
 8200TIP3    H146091   1.924   0.206   0.843 -2.1740 -1.9080  0.7903
 8200TIP3    H246092   1.903   0.107   0.731  0.2858 -0.5099 -0.9519
 8201TIP3   OH246093   2.909   3.661  15.485 -0.0233  0.4168  0.4225
 8201TIP3    H146094   2.998   3.656  15.449  0.4469  2.6092  1.1637
 8201TIP3    H246095   2.858   3.705  15.417 -0.2021  0.4526  0.5794
 8202TIP3   OH246096   0.595   3.958   0.253 -0.2057  0.0014 -0.1280
 8202TIP3    H146097   0.605   3.929   0.344 -0.5969  1.1868  0.2941
 8202TIP3    H246098   0.569   3.879   0.206  3.5114 -1.4582  0.1119
 8203TIP3   OH246099   6.741   0.124   5.842 -0.0021  0.1633 -0.3663
 8203TIP3    H146100   6.745   0.037   5.883  0.1185  1.7761  3.2295
 8203TIP3    H246101   6.647   0.142   5.834 -0.0334  0.4370  0.5662
 8204TIP3   OH246102   1.981   5.016  11.922  0.0384  0.5890 -0.1862
 8204TIP3    H146103   1.985   5.080  11.851 -0.3679  1.3249  0.4419
 8204TIP3    H246104   2.010   5.064  11.999 -1.0382  0.2351  0.4442
 8205TIP3   OH246105   0.172   0.515  12.755 -0.0378  0.0711 -0.7027
 8205TIP3    H146106   0.152   0.446  12.692  0.0998 -2.0531  1.4994
 8205TIP3    H246107   0.111   0.586  12.734 -0.7186 -1.0219 -2.5025
 8206TIP3   OH246108   0.428   0.434  10.763 -0.2623  0.0624 -0.1726
 8206TIP3    H146109   0.346   0.425  10.811  0.7160 -0.0352  1.5525
 8206TIP3    H246110   0.441   0.529  10.755  0.9831  0.1533  2.3582
 8207TIP3   OH246111   0.026   2.666   0.783 -0.0410 -0.5148 -0.5708
 8207TIP3    H146112   0.079   2.725   0.838 -0.5489 -1.6692  1.1777
 8207TIP3    H246113   0.074   2.663   0.699  0.5678  1.5166 -0.3254
 8208TIP3   OH246114   2.026   2.369  11.670  0.4055  0.4577 -0.2923
 8208TIP3    H146115   2.079   2.445  11.694  0.3900  0.0745  0.9664
 8208TIP3    H246116   2.089   2.304  11.640  0.7017 -0.1367  1.5661
 8209TIP3   OH246117   1.846   4.232  14.984 -0.2763  0.7861 -0.1052
 8209TIP3    H146118   1.849   4.161  14.920 -0.9766  1.9051 -1.3833
 8209TIP3    H246119   1.905   4.203  15.054  0.6435 -0.3556 -1.3212
 8210TIP3   OH246120   3.321   4.271  15.117  0.7685  0.1543  0.3526
 8210TIP3    H146121   3.228   4.293  15.117  0.2999 -1.7488  1.1504
 8210TIP3    H246122   3.357   4.317  15.041 -0.9917  0.2611 -0.4283
 8211TIP3   OH246123   5.383   0.291   1.658 -0.3624  0.0823 -0.2381
 8211TIP3    H146124   5.412   0.270   1.747  2.4035  0.9566 -0.8780
 8211TIP3    H246125   5.422   0.223   1.604  1.0316  1.6188 -1.2063
 8212TIP3   OH246126   1.008   1.065  15.525  0.1141 -0.1033 -0.1497
 8212TIP3    H146127   0.945   0.993  15.520  0.7007 -0.7296  1.1630
 8212TIP3    H246128   0.954   1.143  15.538 -0.4027 -0.6983  1.5067
 8213TIP3   OH246129   6.061   3.228   1.249 -0.0873  0.6090 -0.3857
 8213TIP3    H146130   6.024   3.300   1.300  1.1939  1.4683 -0.6246
 8213TIP3    H246131   6.088   3.163   1.314 -1.4824  0.2222 -0.1827
 8214TIP3   OH246132   0.424   1.930   3.459 -0.2580  0.1486 -0.4619
 8214TIP3    H146133   0.475   1.857   3.423  0.1084  0.8027 -1.2741
 8214TIP3    H246134   0.362   1.888   3.519  1.4390 -0.6491  0.8003
 8215TIP3   OH246135   0.284   1.263   4.929 -0.4060 -0.0450  0.0516
 8215TIP3    H146136   0.355   1.262   4.865 -1.4204  2.4305 -1.1550
 8215TIP3    H246137   0.321   1.307   5.006 -0.3714  0.4752 -0.2634
 8216TIP3   OH246138   0.096   0.101   2.179 -0.1877 -0.3633  0.1785
 8216TIP3    H146139   0.071   0.170   2.118  2.9145 -0.7890 -1.6476
 8216TIP3    H246140   0.076   0.020   2.132  0.4038 -0.6977  0.5011
 8217TIP3   OH246141   4.027   6.390  12.323 -0.3460  0.2142  0.7164
 8217TIP3    H146142   3.999   6.421  12.409 -0.9347 -1.5091  1.1662
 8217TIP3    H246143   4.015   6.465  12.265 -2.2708  0.6562  1.6611
 8218TIP3   OH246144   1.688   0.184  13.874  0.1463  0.6437 -0.1791
 8218TIP3    H146145   1.634   0.249  13.917  0.9739  0.6022  0.9626
 8218TIP3    H246146   1.628   0.114  13.849 -0.7429  1.8377 -1.4176
 8219TIP3   OH246147   2.409   6.066  16.226  0.2439 -0.2632  0.5511
 8219TIP3    H146148   2.448   6.081  16.312 -1.3160 -0.8714  1.3901
 8219TIP3    H246149   2.401   6.153  16.186  2.6466 -0.1621  0.2619
 8220TIP3   OH246150   5.646   0.397  13.440 -0.0650  0.2941  0.1724
 8220TIP3    H146151   5.657   0.311  13.481  1.3340  0.5193  0.3118
 8220TIP3    H246152   5.553   0.416  13.448  0.0486  0.0071  2.5879
 8221TIP3   OH246153   3.270   1.795  14.390 -0.6117 -0.2058 -0.1174
 8221TIP3    H146154   3.335   1.755  14.448  1.3437  1.1111 -1.3462
 8221TIP3    H246155   3.267   1.737  14.314  1.0734  1.1294 -1.2141
 8222TIP3   OH246156   6.028   6.758   2.729  0.1976  0.7252  0.3659
 8222TIP3    H146157   6.089   6.772   2.658  1.4855  0.4029  1.3936
 8222TIP3    H246158   5.973   6.686   2.699  1.8991 -0.6283  0.4272
 8223TIP3   OH246159   4.828   0.476  11.453 -0.1554  0.8086  0.0314
 8223TIP3    H146160   4.871   0.405  11.500 -3.3114 -0.3553  1.2659
 8223TIP3    H246161   4.855   0.556  11.499 -0.3400 -0.0055  1.5661
 8224TIP3   OH246162   0.369   3.923   2.726 -0.1834  0.0543 -0.2563
 8224TIP3    H146163   0.356   3.920   2.820 -0.0696  1.4609 -0.1746
 8224TIP3    H246164   0.385   4.016   2.707 -0.2738 -0.1988 -1.6608
 8225TIP3   OH246165   5.903   1.041   6.479 -0.2342  0.1909 -0.4115
 8225TIP3    H146166   5.809   1.061   6.478 -0.2011  0.3501 -0.3504
 8225TIP3    H246167   5.937   1.090   6.554 -0.3462 -0.9239  0.3876
 8226TIP3   OH246168   3.311   3.108  16.008  1.0555 -0.0894  0.0110
 8226TIP3    H146169   3.303   3.169  15.934  4.0530 -0.0278 -0.3232
 8226TIP3    H246170   3.405   3.095  16.018  0.6735 -0.8019  3.2815
 8227TIP3   OH246171   3.596   3.008   4.987  0.6363 -0.0679 -0.2657
 8227TIP3    H146172   3.511   3.045   4.961  1.2205  1.0025 -0.6679
 8227TIP3    H246173   3.661   3.065   4.945  1.5596 -0.7758  0.1895
 8228TIP3   OH246174   0.677   1.029  14.945  0.3208  0.0094 -0.2147
 8228TIP3    H146175   0.598   1.039  14.891  0.4406  1.5789 -0.1334
 8228TIP3    H246176   0.648   1.048  15.034  0.7869  0.6495 -0.1903
 8229TIP3   OH246177   0.782   0.184  15.289  0.1089 -0.0504 -0.1330
 8229TIP3    H146178   0.779   0.143  15.203  0.6970 -0.3867  0.0022
 8229TIP3    H246179   0.779   0.278  15.272  1.3572 -0.0859 -0.5799
 8230TIP3   OH246180   2.865   6.448   0.775 -0.6277  0.5263  0.1635
 8230TIP3    H146181   2.945   6.440   0.826 -1.2745 -0.6812  1.0134
 8230TIP3    H246182   2.854   6.542   0.763  1.9287  0.6585 -1.6091
 8231TIP3   OH246183   6.526   0.412   5.910 -0.0228  0.9027  0.0771
 8231TIP3    H146184   6.515   0.390   6.003  0.7873 -1.1243 -0.2883
 8231TIP3    H246185   6.493   0.336   5.863 -0.8161  2.0868 -1.3388
 8232TIP3   OH246186   6.335   1.339   3.842  0.3174  0.1057  0.2202
 8232TIP3    H146187   6.291   1.312   3.762 -0.8314 -1.8468  1.4781
 8232TIP3    H246188   6.275   1.400   3.884  0.6180  0.6007 -0.0672
 8233TIP3   OH246189   6.552   6.512   3.931  0.5075 -0.4132 -0.5709
 8233TIP3    H146190   6.586   6.587   3.980  1.6306 -1.3810  0.1602
 8233TIP3    H246191   6.628   6.478   3.883  0.3520 -1.9495  0.2350
 8234TIP3   OH246192   6.456   4.273  10.519  0.1162  0.3757 -0.0914
 8234TIP3    H146193   6.513   4.350  10.513  0.1478  0.3704  0.1055
 8234TIP3    H246194   6.504   4.204  10.474  0.2977  0.3548  0.1311
 8235TIP3   OH246195   0.797   1.052  16.396 -0.4218  0.3430 -0.2446
 8235TIP3    H146196   0.834   1.029  16.310  0.5521  3.0765 -0.5915
 8235TIP3    H246197   0.871   1.047  16.456 -0.5033  1.1147 -0.0728
 8236TIP3   OH246198   2.695   0.708   3.543  0.3412  0.1120 -0.1407
 8236TIP3    H146199   2.649   0.754   3.612  0.1993 -0.7954  0.3785
 8236TIP3    H246200   2.636   0.712   3.468  0.2510  0.6088 -0.0416
 8237TIP3   OH246201   6.007   1.263   2.178  0.2151 -0.1194 -0.3480
 8237TIP3    H146202   5.956   1.200   2.127 -0.5686 -0.9745  1.4337
 8237TIP3    H246203   5.954   1.280   2.256  1.3829  1.1393  0.1977
 8238TIP3   OH246204   3.450   4.692  13.760  0.2517  0.1712  0.4943
 8238TIP3    H146205   3.425   4.606  13.727 -0.2334  0.4584  0.1163
 8238TIP3    H246206   3.381   4.751  13.730 -1.7060 -0.0101  4.3353
 8239TIP3   OH246207   0.191   3.073  11.083 -0.5262  0.6123  0.0734
 8239TIP3    H146208   0.183   2.995  11.139  0.3309  0.3973 -0.1025
 8239TIP3    H246209   0.154   3.144  11.135 -1.2880  0.0983  0.2504
 8240TIP3   OH246210   1.218   1.018  12.509  0.1256  0.4406 -0.1329
 8240TIP3    H146211   1.311   0.996  12.502  0.1820  0.7340 -0.3156
 8240TIP3    H246212   1.216   1.096  12.565 -0.0561  0.1028  0.3407
 8241TIP3   OH246213   0.573   2.436  11.223  0.2453 -0.2470 -0.1767
 8241TIP3    H146214   0.483   2.430  11.253 -0.0537  0.5140 -0.9033
 8241TIP3    H246215   0.614   2.499  11.281 -0.2103  0.8772 -1.0603
 8242TIP3   OH246216   4.119   5.965   2.114 -0.2530  0.0720 -0.1915
 8242TIP3    H146217   4.205   5.980   2.074  0.5995  1.6133  2.1015
 8242TIP3    H246218   4.121   5.874   2.142  0.6496  0.1038 -0.1465
 8243TIP3   OH246219   0.649   2.783  17.015 -0.4125 -0.0674 -0.4717
 8243TIP3    H146220   0.576   2.753  16.959 -1.2525  0.6735  0.2243
 8243TIP3    H246221   0.717   2.809  16.953 -0.8518 -0.4820 -1.1390
 8244TIP3   OH246222   4.366   3.738   0.149  0.3143  0.2503 -0.0448
 8244TIP3    H146223   4.354   3.643   0.154 -1.2139  0.4622  0.3348
 8244TIP3    H246224   4.399   3.753   0.060  1.3355 -0.7117  0.1694
 8245TIP3   OH246225   4.834   6.688  15.199 -0.1969  0.3788 -0.6365
 8245TIP3    H146226   4.795   6.776  15.199 -1.3367 -0.1032  0.4172
 8245TIP3    H246227   4.761   6.629  15.181  0.1507 -0.4982  0.7406
 8246TIP3   OH246228   1.759   1.231   4.454  0.1130  0.0696 -0.4810
 8246TIP3    H146229   1.709   1.284   4.516 -1.3188 -1.5537 -0.2085
 8246TIP3    H246230   1.841   1.279   4.442 -0.0417  0.9534  1.8238
 8247TIP3   OH246231   2.524   4.921   3.911  0.1013 -1.0909 -0.0121
 8247TIP3    H146232   2.547   4.831   3.892  0.6541 -0.8017 -0.7407
 8247TIP3    H246233   2.547   4.969   3.832  0.8085 -0.1386  0.7573
 8248TIP3   OH246234   3.086   1.566  16.894  0.1351 -0.2590  0.2557
 8248TIP3    H146235   3.068   1.536  16.982  1.6178 -0.7784  0.4051
 8248TIP3    H246236   3.027   1.516  16.838  1.6945 -2.5621  0.6222
 8249TIP3   OH246237   0.341   2.123   2.088 -0.7206  0.1505 -0.6031
 8249TIP3    H146238   0.362   2.116   2.181  0.2582 -2.6894 -0.9866
 8249TIP3    H246239   0.247   2.139   2.086 -0.4421  2.1312  0.8953
 8250TIP3   OH246240   5.507   4.586   0.464 -0.0966 -0.1907  0.5357
 8250TIP3    H146241   5.580   4.590   0.526 -0.3223 -2.2108  0.9955
 8250TIP3    H246242   5.534   4.521   0.399 -0.6420  0.5414 -0.4396
 8251TIP3   OH246243   3.414   5.097  13.323  0.8029 -0.2475 -0.3174
 8251TIP3    H146244   3.356   5.027  13.349 -0.8336  0.4346 -1.9687
 8251TIP3    H246245   3.502   5.058  13.324  0.1682 -1.6726  0.8754
 8252TIP3   OH246246   0.876   1.289  13.137 -0.2929  0.3453 -0.1146
 8252TIP3    H146247   0.860   1.334  13.053 -1.0179  2.1288  0.9508
 8252TIP3    H246248   0.842   1.349  13.203  1.0723 -0.6617  1.5358
 8253TIP3   OH246249   0.822   3.489  16.332 -0.5743 -0.3909  0.2042
 8253TIP3    H146250   0.824   3.509  16.239 -0.8355 -0.8999  0.0855
 8253TIP3    H246251   0.747   3.537  16.366  2.4234  3.8784  1.1343
 8254TIP3   OH246252   2.719   3.693  11.955 -0.1027 -0.1350  0.3028
 8254TIP3    H146253   2.633   3.717  11.922  0.2082 -0.2189 -0.5855
 8254TIP3    H246254   2.732   3.751  12.031 -0.2121  1.1019 -0.5998
 8255TIP3   OH246255   2.842   5.689  13.452 -0.1752  0.4717 -0.1735
 8255TIP3    H146256   2.928   5.683  13.494  0.6825  0.3565 -1.8702
 8255TIP3    H246257   2.858   5.740  13.372 -2.4857  3.9382  1.4598
 8256TIP3   OH246258   5.957   0.445  16.199 -0.0536  0.1678  0.2070
 8256TIP3    H146259   5.968   0.389  16.122  0.2818 -0.4070  0.6684
 8256TIP3    H246260   6.000   0.397  16.270  1.0341  1.4265  0.4224
 8257TIP3   OH246261   4.472   4.953   0.566  0.0958 -0.7697 -0.2982
 8257TIP3    H146262   4.384   4.919   0.550  0.3457 -1.1979 -0.7722
 8257TIP3    H246263   4.518   4.881   0.610 -0.1755 -0.0922  1.1291
 8258TIP3   OH246264   4.743   4.550   4.295  0.0084 -0.3792  0.0262
 8258TIP3    H146265   4.696   4.633   4.302 -0.3533 -0.5208 -0.6610
 8258TIP3    H246266   4.725   4.505   4.378 -2.5063 -1.1683 -0.9104
 8259TIP3   OH246267   4.010   3.012   5.062 -0.3576  0.0014 -0.3187
 8259TIP3    H146268   4.092   3.034   5.019  0.0854 -2.7772 -1.0494
 8259TIP3    H246269   4.028   2.929   5.107 -2.7406 -0.6957 -0.5416
 8260TIP3   OH246270   1.867   5.907   2.071 -0.2600  0.0082  0.0887
 8260TIP3    H146271   1.885   5.871   1.984 -0.6902  1.0281 -0.4266
 8260TIP3    H246272   1.949   5.896   2.119  0.4573  0.8459 -0.9288
 8261TIP3   OH246273   5.389   5.654   3.277 -0.3940  0.4436  0.3554
 8261TIP3    H146274   5.431   5.656   3.363  1.3776  0.9773 -0.5023
 8261TIP3    H246275   5.350   5.567   3.271  2.8583 -1.0609  0.1404
 8262TIP3   OH246276   3.844   1.529   2.136  0.4119  0.0110 -0.3359
 8262TIP3    H146277   3.793   1.513   2.056  0.1707  0.7338 -0.3387
 8262TIP3    H246278   3.878   1.444   2.161 -0.7756 -0.4874 -0.3661
 8263TIP3   OH246279   6.662   2.227   5.467 -0.5868  0.2690  0.2220
 8263TIP3    H146280   6.569   2.212   5.450 -0.5512  2.2687 -2.0106
 8263TIP3    H246281   6.678   2.316   5.436  2.3783 -0.5474 -0.7699
 8264TIP3   OH246282   0.020   1.611  11.440 -0.5596 -0.0507  0.2743
 8264TIP3    H146283   0.096   1.643  11.487 -1.4957  0.5172  1.4190
 8264TIP3    H246284   0.038   1.518  11.425  1.5847  0.6695 -1.9263
 8265TIP3   OH246285   3.769   4.886  10.674  0.2540 -0.2370 -0.7903
 8265TIP3    H146286   3.796   4.903  10.584  0.6989  0.2307 -0.5678
 8265TIP3    H246287   3.849   4.889  10.725  0.2898 -2.5911 -0.6609
 8266TIP3   OH246288   2.832   0.839   1.071  0.2964  0.0949 -0.0221
 8266TIP3    H146289   2.858   0.832   1.163 -2.1931 -1.1174  0.6376
 8266TIP3    H246290   2.884   0.773   1.026  1.6685  0.8300  0.4775
 8267TIP3   OH246291   5.588   5.871   5.276 -0.3448 -0.1275  0.3066
 8267TIP3    H146292   5.533   5.799   5.307  0.8169 -1.1278  0.0865
 8267TIP3    H246293   5.552   5.949   5.319 -1.0094 -0.9761  1.3167
 8268TIP3   OH246294   1.854   0.532   0.347  0.2194 -0.3196 -0.2522
 8268TIP3    H146295   1.905   0.498   0.273  2.5792  1.6169  0.3825
 8268TIP3    H246296   1.873   0.472   0.418 -1.0357 -1.4699 -0.8813
 8269TIP3   OH246297   2.184   4.301  16.431  0.2844  0.2028  0.1805
 8269TIP3    H146298   2.111   4.284  16.371  0.9822  1.3546 -1.0255
 8269TIP3    H246299   2.259   4.314  16.374  1.4768 -1.0557  1.4261
 8270TIP3   OH246300   1.439   6.682   5.461  0.2230 -0.2035  0.1714
 8270TIP3    H146301   1.370   6.748   5.468  0.0918 -0.2649 -0.4563
 8270TIP3    H246302   1.453   6.673   5.367  2.0250  0.7599  0.3293
 8271TIP3   OH246303   4.528   2.841   4.885  0.4024  0.6769  0.4847
 8271TIP3    H146304   4.605   2.875   4.839  0.3798  0.1916  0.0741
 8271TIP3    H246305   4.458   2.843   4.819  0.2807  0.3103  0.5985
 8272TIP3   OH246306   0.515   2.794   4.183 -0.5985 -0.6095  0.4708
 8272TIP3    H146307   0.430   2.838   4.191 -0.9927 -0.9776 -1.4088
 8272TIP3    H246308   0.554   2.800   4.270 -1.1532  2.4611  0.5617
 8273TIP3   OH246309   2.471   1.265  14.346  0.3591 -0.1000  0.1557
 8273TIP3    H146310   2.452   1.260  14.252 -0.3901 -0.6537  0.3296
 8273TIP3    H246311   2.486   1.174  14.372  0.8856  0.0863  0.5107
 8274TIP3   OH246312   6.178   6.286  12.889  0.0633 -0.0722  0.7157
 8274TIP3    H146313   6.253   6.234  12.859 -1.2170 -1.5429 -0.0043
 8274TIP3    H246314   6.197   6.375  12.860  0.1688 -0.9480 -2.0610
 8275TIP3   OH246315   2.718   1.237   2.355 -0.2204 -0.0646 -0.1717
 8275TIP3    H146316   2.668   1.161   2.383  0.1564 -0.8448 -1.5964
 8275TIP3    H246317   2.785   1.202   2.297 -0.3568  1.4029 -1.2444
 8276TIP3   OH246318   5.250   1.779  15.985 -0.3044  0.1651  0.1155
 8276TIP3    H146319   5.331   1.729  15.973 -0.1338 -0.0360  1.8907
 8276TIP3    H246320   5.261   1.822  16.070 -0.8018  2.5840 -1.0126
 8277TIP3   OH246321   3.510   4.229   5.727  0.5545  0.1616  0.1664
 8277TIP3    H146322   3.605   4.229   5.730  0.5554  0.5609  0.2091
 8277TIP3    H246323   3.483   4.246   5.817  0.4337 -0.7993  0.3116
 8278TIP3   OH246324   2.720   2.262   6.542 -0.0728 -0.1032  0.0948
 8278TIP3    H146325   2.809   2.274   6.575  0.5167  0.6375 -1.6697
 8278TIP3    H246326   2.705   2.167   6.546  1.1861 -0.3367 -0.5535
 8279TIP3   OH246327   4.478   1.656  11.596 -0.2406  0.2622 -0.0002
 8279TIP3    H146328   4.539   1.597  11.552  1.2785  1.7408  0.1048
 8279TIP3    H246329   4.431   1.699  11.525 -0.8212 -0.5089 -0.0901
 8280TIP3   OH246330   3.610   2.741   0.992  0.1007  0.6776  0.0735
 8280TIP3    H146331   3.680   2.742   1.057  1.7017  1.3149 -1.6263
 8280TIP3    H246332   3.536   2.783   1.036  1.2072  1.2566  1.4265
 8281TIP3   OH246333   6.546   1.319  13.476 -0.3674  0.0491 -0.1271
 8281TIP3    H146334   6.615   1.341  13.538  1.6162 -0.9791 -1.9103
 8281TIP3    H246335   6.475   1.379  13.497  2.1154  3.1014 -0.1072
 8282TIP3   OH246336   3.361   4.544   2.358 -0.0388 -0.2095  0.2470
 8282TIP3    H146337   3.449   4.517   2.386  0.2015 -1.2948 -1.4348
 8282TIP3    H246338   3.307   4.465   2.369 -1.1178  0.8266  2.5158
 8283TIP3   OH246339   2.844   1.650  13.804 -0.1400 -0.0327 -0.2357
 8283TIP3    H146340   2.913   1.711  13.779  0.2553 -0.4818 -0.2248
 8283TIP3    H246341   2.872   1.614  13.888 -1.1536  0.9862  0.5677
 8284TIP3   OH246342   4.746   5.735  14.838 -0.2242 -0.3039  0.0299
 8284TIP3    H146343   4.757   5.648  14.876 -0.7691 -0.4738 -0.2037
 8284TIP3    H246344   4.763   5.723  14.745  0.0249 -0.0966  0.0466
 8285TIP3   OH246345   6.795   4.870   4.392  0.2698 -0.0573 -0.0349
 8285TIP3    H146346   6.875   4.843   4.437 -0.2628  0.1122  1.0408
 8285TIP3    H246347   6.824   4.936   4.329  1.2864 -1.6425 -1.2721
 8286TIP3   OH246348   3.298   5.648   6.402 -0.1759  0.5293 -0.2949
 8286TIP3    H146349   3.355   5.640   6.325  0.3897  0.5761  0.1180
 8286TIP3    H246350   3.335   5.721   6.452  0.1711 -0.2762  0.6360
 8287TIP3   OH246351   6.247   1.987  16.631 -0.2082 -0.3137 -0.1895
 8287TIP3    H146352   6.227   2.056  16.567 -0.2309 -1.2699 -1.2096
 8287TIP3    H246353   6.210   2.021  16.713  1.3764  1.7186 -0.2737
 8288TIP3   OH246354   5.126   6.606   1.399 -0.0973 -0.7630 -0.1599
 8288TIP3    H146355   5.221   6.592   1.400  0.1606  0.9152  0.1872
 8288TIP3    H246356   5.089   6.518   1.394  1.4322 -1.5186  1.4465
 8289TIP3   OH246357   3.044   3.750  17.126 -0.4455  0.3880  0.3711
 8289TIP3    H146358   3.046   3.667  17.173  0.5081  0.5633  0.6553
 8289TIP3    H246359   3.128   3.791  17.147  0.0900  0.3573 -1.6841
 8290TIP3   OH246360   2.738   3.127  16.160  0.0260 -0.1544 -0.1894
 8290TIP3    H146361   2.668   3.180  16.122  0.8143 -0.2811 -1.8326
 8290TIP3    H246362   2.734   3.044  16.112 -0.5448 -1.2428  1.6739
 8291TIP3   OH246363   6.085   1.780   4.055 -0.1712  0.2577  0.1892
 8291TIP3    H146364   6.154   1.846   4.068 -1.9157  1.9730  1.0267
 8291TIP3    H246365   6.037   1.780   4.138 -1.9311 -0.0272 -0.8235
 8292TIP3   OH246366   5.951   1.191   4.116 -0.9176 -0.4517 -0.4679
 8292TIP3    H146367   5.996   1.166   4.197  0.4592 -0.2853 -1.1578
 8292TIP3    H246368   5.934   1.108   4.072  1.3811 -0.3931 -1.5680
 8293TIP3   OH246369   4.883   4.824   2.337 -0.1720  0.1297  0.1935
 8293TIP3    H146370   4.900   4.757   2.272 -2.8238 -0.7710  0.4075
 8293TIP3    H246371   4.883   4.906   2.287  1.5292 -0.1447 -0.3024
 8294TIP3   OH246372   5.515   6.138  14.252 -0.1943 -0.1183  0.1119
 8294TIP3    H146373   5.431   6.092  14.250 -0.8504  1.0784 -0.0644
 8294TIP3    H246374   5.499   6.216  14.305  0.2638  1.1210 -1.5161
 8295TIP3   OH246375   1.992   5.978  15.677 -0.2884 -0.0369  0.2330
 8295TIP3    H146376   1.940   5.926  15.614  0.6555 -0.7980  0.0656
 8295TIP3    H246377   1.987   5.928  15.758  1.2785 -0.8130 -0.1373
 8296TIP3   OH246378   6.142   5.838  13.435  0.3005 -0.7944 -0.2518
 8296TIP3    H146379   6.193   5.838  13.354  0.3132 -2.2509 -0.2635
 8296TIP3    H246380   6.123   5.745  13.451 -0.7290 -0.4189  0.7655
 8297TIP3   OH246381   6.785   4.770   2.501  0.4930 -0.0404  0.2482
 8297TIP3    H146382   6.829   4.844   2.458  0.3794  0.3107  0.7254
 8297TIP3    H246383   6.753   4.716   2.428  2.2752 -0.6521 -0.1034
 8298TIP3   OH246384   0.933   1.330  14.278 -0.2357 -0.7111 -0.3374
 8298TIP3    H146385   1.024   1.358  14.273 -0.2398 -0.8284 -1.0523
 8298TIP3    H246386   0.888   1.405  14.318  0.4601 -1.3298  1.6566
 8299TIP3   OH246387   3.101   4.848  12.568  0.4729  0.1324  0.2079
 8299TIP3    H146388   3.066   4.932  12.539  1.9455 -0.3079 -3.0917
 8299TIP3    H246389   3.027   4.788  12.563  0.2019  0.5317 -0.6519
 8300TIP3   OH246390   3.307   5.890  14.308  0.0152 -0.5415  0.2604
 8300TIP3    H146391   3.260   5.896  14.391 -0.1900  1.2294  0.0471
 8300TIP3    H246392   3.239   5.904  14.241  0.6374  0.9320 -0.0858
 8301TIP3   OH246393   3.015   5.107  13.578 -0.0583  0.2720  0.2055
 8301TIP3    H146394   3.074   5.170  13.619  0.4148  1.2242 -1.8833
 8301TIP3    H246395   3.072   5.048  13.529 -0.7060  0.1273 -0.3984
 8302TIP3   OH246396   6.433   2.846  11.350  0.9767 -0.4347  0.5017
 8302TIP3    H146397   6.409   2.928  11.393  1.4542 -0.5623  1.0049
 8302TIP3    H246398   6.492   2.803  11.411  0.5757 -1.2430  0.3184
 8303TIP3   OH246399   1.146   6.123  11.429  0.4112  0.2597  0.2427
 8303TIP3    H146400   1.083   6.062  11.467 -1.5083  1.2680 -1.2358
 8303TIP3    H246401   1.230   6.100  11.470 -0.5661 -2.3024  0.8635
 8304TIP3   OH246402   3.250   6.110  13.013 -0.2822 -0.0738  0.4935
 8304TIP3    H146403   3.224   6.071  13.096 -0.2211 -0.7216  0.2065
 8304TIP3    H246404   3.340   6.140  13.027 -0.4477  0.2833  0.8178
 8305TIP3   OH246405   2.761   4.280   3.666 -0.3362 -0.6817 -0.5884
 8305TIP3    H146406   2.738   4.204   3.613  1.4429 -1.1344 -0.7622
 8305TIP3    H246407   2.743   4.356   3.610 -1.3978 -0.9952 -0.6844
 8306TIP3   OH246408   5.412   0.762  12.064  0.6350  0.2965  0.1986
 8306TIP3    H146409   5.437   0.750  11.972 -0.0445 -0.0395  0.0536
 8306TIP3    H246410   5.430   0.677  12.104  1.2272  0.5379  0.4501
 8307TIP3   OH246411   4.700   4.215  13.482 -0.8940 -0.3177  0.1549
 8307TIP3    H146412   4.652   4.132  13.480 -0.7831 -0.3846  0.2634
 8307TIP3    H246413   4.759   4.207  13.556 -0.9936 -0.0782  0.2625
 8308TIP3   OH246414   1.401   4.691  15.442  0.2884  1.3619  0.2268
 8308TIP3    H146415   1.455   4.613  15.452 -0.3341  0.8810 -0.0799
 8308TIP3    H246416   1.458   4.754  15.399  0.1317  0.3101 -1.6096
 8309TIP3   OH246417   6.348   4.840  11.519  0.1697 -0.5091  0.0561
 8309TIP3    H146418   6.421   4.863  11.577  0.9062 -0.3463 -0.9295
 8309TIP3    H246419   6.357   4.899  11.444 -1.2346 -0.1903  0.1248
 8310TIP3   OH246420   4.401   5.614   0.803 -0.6943  0.1299  0.0496
 8310TIP3    H146421   4.424   5.639   0.714 -0.7832 -0.5224 -0.1563
 8310TIP3    H246422   4.361   5.528   0.795 -0.0963 -0.2318  0.7866
 8311TIP3   OH246423   1.926   1.497  13.388 -0.4277  0.4540  0.2666
 8311TIP3    H146424   1.837   1.489  13.423 -0.1490 -0.5983  0.7591
 8311TIP3    H246425   1.914   1.535  13.301 -1.5752 -2.0626 -0.7173
 8312TIP3   OH246426   0.882   3.603   6.068  0.1974  0.3750  0.0335
 8312TIP3    H146427   0.887   3.690   6.029  0.3261  0.6034  0.5535
 8312TIP3    H246428   0.789   3.579   6.062  0.3789 -0.0196 -1.3262
 8313TIP3   OH246429   6.062   3.122  13.837 -0.2749  0.2222  0.1491
 8313TIP3    H146430   6.120   3.141  13.911  0.7248  0.3297 -0.6583
 8313TIP3    H246431   6.017   3.205  13.820  0.4369  0.5458 -0.1798
 8314TIP3   OH246432   4.198   5.428  15.602 -0.1940  1.0623  0.1647
 8314TIP3    H146433   4.110   5.437  15.566 -0.5393  0.0507  0.7336
 8314TIP3    H246434   4.185   5.424  15.697  0.4075  0.3640  0.2237
 8315TIP3   OH246435   3.665   1.684   5.965  0.2047 -0.1302  0.7015
 8315TIP3    H146436   3.695   1.687   6.055  0.9954 -3.1808  0.6241
 8315TIP3    H246437   3.743   1.658   5.915  0.3377  3.6687 -1.2087
 8316TIP3   OH246438   6.778   6.123  15.560 -0.0576  0.2183  0.4369
 8316TIP3    H146439   6.861   6.076  15.571 -0.4005 -0.5338 -0.1855
 8316TIP3    H246440   6.795   6.185  15.489 -0.4824 -1.0080 -0.7554
 8317TIP3   OH246441   3.496   6.122   2.810 -0.1721 -0.3039  0.4168
 8317TIP3    H146442   3.453   6.183   2.870 -0.6807 -1.1403  0.9163
 8317TIP3    H246443   3.438   6.046   2.807  1.5644 -1.7262  1.5951
 8318TIP3   OH246444   4.166   2.002   1.402  0.0058  0.1090 -0.1218
 8318TIP3    H146445   4.234   1.959   1.453  0.1253 -0.3720 -0.6783
 8318TIP3    H246446   4.204   2.011   1.314  0.0508  1.5223  0.0319
 8319TIP3   OH246447   3.238   3.150  11.734 -0.1685 -0.1431  0.3159
 8319TIP3    H146448   3.224   3.096  11.656  0.6618  1.3687 -0.9029
 8319TIP3    H246449   3.308   3.210  11.709 -0.7291  1.1546  1.8096
 8320TIP3   OH246450   5.987   2.917   1.070  0.0304 -0.5836 -0.3066
 8320TIP3    H146451   6.076   2.914   1.033 -0.0318 -1.7281 -0.3720
 8320TIP3    H246452   5.947   2.835   1.041 -1.2924  0.2572 -0.8827
 8321TIP3   OH246453   0.170   2.727   1.971  0.7247 -0.2141  0.4462
 8321TIP3    H146454   0.131   2.786   2.036 -0.5208 -0.7621  0.2231
 8321TIP3    H246455   0.155   2.772   1.887 -1.4580 -1.4426  0.1339
 8322TIP3   OH246456   0.755   6.416  12.725 -0.7023  0.4561 -0.7070
 8322TIP3    H146457   0.677   6.422  12.780 -1.6801  0.6356 -2.1137
 8322TIP3    H246458   0.723   6.428  12.636  1.2458  2.8541 -1.1234
 8323TIP3   OH246459   1.155   2.604   2.384  0.1290 -0.0479 -0.5817
 8323TIP3    H146460   1.191   2.672   2.326 -0.6157  0.2386 -0.7225
 8323TIP3    H246461   1.102   2.653   2.447 -0.2003 -0.4759 -0.5247
 8324TIP3   OH246462   3.058   1.195   1.560  0.2628 -0.2408  0.0457
 8324TIP3    H146463   3.127   1.159   1.617 -1.0578 -1.4268  0.9183
 8324TIP3    H246464   3.003   1.246   1.619 -1.2204 -1.6297 -0.1244
 8325TIP3   OH246465   0.650   2.164   5.480  0.6305  0.4988 -0.2088
 8325TIP3    H146466   0.604   2.238   5.519  1.9396  1.0734  0.2753
 8325TIP3    H246467   0.695   2.122   5.553 -1.8990 -2.1601 -0.0755
 8326TIP3   OH246468   0.582   5.108  16.635 -0.2661  0.3032 -0.6651
 8326TIP3    H146469   0.500   5.154  16.655 -0.2624  0.2154 -0.4523
 8326TIP3    H246470   0.589   5.111  16.540  1.0043  2.9952 -0.5381
 8327TIP3   OH246471   2.712   6.437   0.097 -0.4890  0.4711 -0.0723
 8327TIP3    H146472   2.719   6.342   0.085  0.6506  0.4337  0.8099
 8327TIP3    H246473   2.761   6.473   0.023  1.4764  0.3120  1.1011
 8328TIP3   OH246474   5.943   0.676  16.015  0.2551  0.5046  0.0210
 8328TIP3    H146475   6.026   0.682  15.968 -0.2216  0.6038 -0.8103
 8328TIP3    H246476   5.959   0.612  16.084 -0.4750 -3.4812 -3.3430
 8329TIP3   OH246477   2.072   6.126  12.557 -0.4945  0.1687 -0.0018
 8329TIP3    H146478   2.096   6.167  12.473  3.0849  2.2924  1.9485
 8329TIP3    H246479   2.025   6.195  12.604 -0.0921 -0.0992  0.7956
 8330TIP3   OH246480   4.697   1.032  15.271 -0.3523 -0.0433  0.2013
 8330TIP3    H146481   4.779   0.983  15.261  0.6550  1.7121 -0.3551
 8330TIP3    H246482   4.691   1.048  15.365 -1.1323 -1.9477  0.4961
 8331TIP3   OH246483   2.019   0.867  16.086 -0.1518 -0.1278  0.4350
 8331TIP3    H146484   1.963   0.921  16.031  0.5386  0.6330  0.4754
 8331TIP3    H246485   1.969   0.786  16.099  0.0790 -0.7220 -2.1092
 8332TIP3   OH246486   4.771   2.873  14.099 -0.7446 -0.1213  0.1015
 8332TIP3    H146487   4.809   2.914  14.022 -0.2656 -0.5379  0.1159
 8332TIP3    H246488   4.829   2.800  14.119 -1.0640 -0.2301  0.6446
 8333TIP3   OH246489   5.325   6.697   2.775  0.5433  0.3844 -0.0231
 8333TIP3    H146490   5.335   6.649   2.857  0.8392  1.0717  0.3444
 8333TIP3    H246491   5.411   6.694   2.734  0.2935 -0.3169 -0.5158
 8334TIP3   OH246492   4.096   1.284  16.566  0.3106  0.0108 -0.4619
 8334TIP3    H146493   4.134   1.357  16.616 -1.3367  0.9261 -0.5105
 8334TIP3    H246494   4.002   1.293  16.580 -0.0343 -0.8648 -2.1936
 8335TIP3   OH246495   6.572   1.271  12.067 -0.0886 -0.1873  0.5300
 8335TIP3    H146496   6.565   1.361  12.035 -1.1769  0.2386  1.8967
 8335TIP3    H246497   6.661   1.265  12.102 -0.1029  0.4574  0.6897
 8336TIP3   OH246498   4.130   6.376  13.718 -0.0708 -0.1420 -0.0702
 8336TIP3    H146499   4.130   6.296  13.667 -3.1377  0.0678 -0.4754
 8336TIP3    H246500   4.174   6.352  13.800  0.3183 -1.8359 -0.7558
 8337TIP3   OH246501   2.235   1.928  16.534 -0.7830 -0.1543  0.5193
 8337TIP3    H146502   2.199   1.933  16.445  0.6945  1.9044 -0.0074
 8337TIP3    H246503   2.328   1.909  16.521 -0.8957 -1.5754  1.7135
 8338TIP3   OH246504   2.510   2.141   3.905 -0.0813  0.4061 -0.2004
 8338TIP3    H146505   2.546   2.131   3.993 -1.2292 -0.6198  0.1696
 8338TIP3    H246506   2.571   2.200   3.861  0.7087  0.6381  1.1611
 8339TIP3   OH246507   0.742   1.707  16.082 -0.2791 -0.1396  0.4562
 8339TIP3    H146508   0.752   1.704  16.177  0.5957 -0.2879  0.3687
 8339TIP3    H246509   0.802   1.640  16.049 -2.2703 -1.6828 -0.1078
 8340TIP3   OH246510   4.372   1.275  16.193 -1.0434 -0.8765 -0.7532
 8340TIP3    H146511   4.468   1.276  16.193 -1.0184 -1.5932  0.2776
 8340TIP3    H246512   4.347   1.365  16.213 -0.5129 -1.2150  1.7042
 8341TIP3   OH246513   5.753   0.728  14.917  0.5063  0.3384  0.0766
 8341TIP3    H146514   5.812   0.787  14.963  0.9882 -0.2036  0.1620
 8341TIP3    H246515   5.785   0.640  14.939  1.6449  0.0704 -2.4252
 8342TIP3   OH246516   0.170   1.364  14.435 -0.0042  0.6260  0.0401
 8342TIP3    H146517   0.139   1.443  14.390 -0.3952 -0.5781 -1.8855
 8342TIP3    H246518   0.115   1.359  14.514  0.0625  2.2922  0.2183
 8343TIP3   OH246519   3.229   4.476   4.377 -0.6928  0.6261 -0.3466
 8343TIP3    H146520   3.212   4.571   4.382 -1.8655  0.3677  0.9184
 8343TIP3    H246521   3.152   4.436   4.416 -0.8283 -0.9256 -2.1307
 8344TIP3   OH246522   4.170   5.417  16.644 -0.0161 -0.4190 -0.1177
 8344TIP3    H146523   4.091   5.390  16.690 -0.0477 -0.0395  0.0493
 8344TIP3    H246524   4.139   5.481  16.579  0.4033  1.1803  1.2244
 8345TIP3   OH246525   1.041   1.566  16.938  0.8146  0.5845 -0.4779
 8345TIP3    H146526   0.961   1.616  16.957  2.1987  1.7479  2.7579
 8345TIP3    H246527   1.022   1.478  16.969  0.3726  0.5687 -0.7915
 8346TIP3   OH246528   5.721   2.977  15.204 -0.0798  0.3040 -0.2882
 8346TIP3    H146529   5.761   3.039  15.143 -1.7938 -0.1726 -1.9842
 8346TIP3    H246530   5.631   2.966  15.171 -0.6313 -1.0186  1.5517
 8347TIP3   OH246531   6.149   3.959  16.035  0.0432  0.1280 -0.1120
 8347TIP3    H146532   6.090   4.018  15.989  0.6597 -0.0350 -1.1334
 8347TIP3    H246533   6.225   3.951  15.977  0.1057 -1.4142  0.1515
 8348TIP3   OH246534   1.382   4.845  17.172  0.6389 -0.5062  0.5707
 8348TIP3    H146535   1.385   4.825  17.079 -3.2797 -0.5971  0.3831
 8348TIP3    H246536   1.351   4.764  17.214 -0.7091  0.4952  1.5532
 8349TIP3   OH246537   0.004   0.783  11.828  0.3000  0.6421 -0.2893
 8349TIP3    H146538  -0.073   0.832  11.857  0.8270  0.9874  0.5784
 8349TIP3    H246539   0.026   0.821  11.743  0.2713  1.4454  0.0488
 8350TIP3   OH246540   0.454   2.200   6.322  0.7691  0.6473 -0.2961
 8350TIP3    H146541   0.414   2.209   6.408  0.8451  0.1872 -0.2120
 8350TIP3    H246542   0.381   2.182   6.263  0.9938 -1.6551  0.0862
 8351TIP3   OH246543   0.609   6.067   4.046  0.0247  0.2376  0.0481
 8351TIP3    H146544   0.564   6.029   3.970 -0.5846  2.2696 -0.6200
 8351TIP3    H246545   0.559   6.034   4.121 -0.6361 -0.1082 -0.5320
 8352TIP3   OH246546   5.757   1.314  11.152 -0.1921  0.0227 -0.0004
 8352TIP3    H146547   5.833   1.344  11.200  0.5327 -0.3027 -0.9180
 8352TIP3    H246548   5.789   1.301  11.062 -1.3411 -0.0302 -0.4122
 8353TIP3   OH246549   0.028   2.900  12.744  0.3599  0.1259  0.2382
 8353TIP3    H146550   0.034   2.912  12.649 -0.1114  1.1844  0.3310
 8353TIP3    H246551   0.040   2.806  12.757 -3.5756 -0.6966 -1.2132
 8354TIP3   OH246552   1.464   2.453   1.299  0.0742 -0.4945  0.2428
 8354TIP3    H146553   1.431   2.378   1.349  0.4930 -0.4061  0.6517
 8354TIP3    H246554   1.423   2.529   1.340  0.4046 -0.4233  0.4409
 8355TIP3   OH246555   5.502   5.779  11.790  0.0025  0.8547 -0.8394
 8355TIP3    H146556   5.421   5.748  11.750 -0.2865  1.5880 -0.8404
 8355TIP3    H246557   5.492   5.759  11.883  0.0266  0.5178 -0.9076
 8356TIP3   OH246558   3.222   2.837  15.995  0.4071  0.4429 -0.1817
 8356TIP3    H146559   3.170   2.843  15.915  0.1297  0.3471 -0.0125
 8356TIP3    H246560   3.249   2.927  16.012 -1.2204  0.8019  0.7012
 8357TIP3   OH246561   2.259   0.614   3.521 -0.2488  0.0558  0.1716
 8357TIP3    H146562   2.220   0.549   3.580 -1.8215  1.8346  1.1249
 8357TIP3    H246563   2.191   0.631   3.456  0.7274 -0.3531 -0.9830
 8358TIP3   OH246564   3.454   1.852  11.778  1.3412  0.2879 -0.0612
 8358TIP3    H146565   3.370   1.885  11.748  1.6356  1.8213  0.7255
 8358TIP3    H246566   3.451   1.758  11.761 -0.1615  0.4725 -0.8791
 8359TIP3   OH246567   5.936   4.700  13.895  0.1928 -0.4525  0.2473
 8359TIP3    H146568   5.989   4.635  13.942 -0.0622  0.6560  2.1459
 8359TIP3    H246569   5.846   4.672  13.909  0.1487 -0.6944 -0.4917
 8360TIP3   OH246570   5.792   6.724  12.612 -0.0619  0.0358  0.2649
 8360TIP3    H146571   5.813   6.691  12.524  2.2186 -2.3442  1.6521
 8360TIP3    H246572   5.702   6.696  12.627 -0.1426 -0.3845 -0.9164
 8361TIP3   OH246573   3.458   3.981  11.658  0.1473  0.1603 -0.1560
 8361TIP3    H146574   3.539   3.978  11.709 -0.2912  1.0234  0.5992
 8361TIP3    H246575   3.457   4.070  11.621 -0.0011 -0.1523 -0.9063
 8362TIP3   OH246576   4.444   5.212  14.223  0.9537  0.5053  0.2337
 8362TIP3    H146577   4.503   5.145  14.256  2.0186  0.5458 -1.4917
 8362TIP3    H246578   4.377   5.163  14.174  1.7548  0.6930 -1.0604
 8363TIP3   OH246579   2.659   6.097  16.443 -0.2622 -0.2863 -0.2930
 8363TIP3    H146580   2.700   6.154  16.508 -1.2818  0.9197 -0.6855
 8363TIP3    H246581   2.710   6.016  16.446  0.1231 -0.0062  1.5292
 8364TIP3   OH246582   1.153   0.286   2.144 -0.5033 -0.2329  0.1901
 8364TIP3    H146583   1.142   0.357   2.208  0.3831  1.2336 -1.2364
 8364TIP3    H246584   1.109   0.319   2.065  2.6081  0.0881 -1.4765
 8365TIP3   OH246585   1.917   4.591  16.869 -0.2879 -0.6586 -0.3175
 8365TIP3    H146586   1.938   4.684  16.873  1.2854 -1.0597  2.2644
 8365TIP3    H246587   1.822   4.588  16.873 -0.2796  0.8092  2.7933
 8366TIP3   OH246588   5.374   5.663   1.289 -0.6183 -0.0180  0.1411
 8366TIP3    H146589   5.428   5.735   1.254 -0.8415  1.0525  1.9588
 8366TIP3    H246590   5.310   5.706   1.345 -2.0086 -1.4866 -0.2994
 8367TIP3   OH246591   6.594   5.378  10.975  0.0887 -0.4727 -0.6448
 8367TIP3    H146592   6.640   5.324  10.911  0.4944 -0.0778 -0.6846
 8367TIP3    H246593   6.567   5.455  10.925 -0.1373 -0.4518 -0.4891
 8368TIP3   OH246594   4.829   0.188  12.218 -0.3197 -0.1461  0.7311
 8368TIP3    H146595   4.766   0.209  12.150  0.4546 -0.5002 -0.1082
 8368TIP3    H246596   4.908   0.162  12.170 -0.1757 -1.6278  1.7446
 8369TIP3   OH246597   1.676   1.396  12.934 -0.0705 -0.2889 -0.0130
 8369TIP3    H146598   1.693   1.484  12.968 -0.3096 -0.6023  0.9432
 8369TIP3    H246599   1.595   1.405  12.884  0.8290  0.3981 -1.3927
 8370TIP3   OH246600   0.020   6.357  14.831 -0.0064 -0.1104  0.4894
 8370TIP3    H146601   0.078   6.415  14.782 -1.7846  1.0301 -0.3294
 8370TIP3    H246602   0.066   6.342  14.914 -0.2439  3.9238  1.4658
 8371TIP3   OH246603   2.454   4.371   1.059 -0.3684 -0.1410  0.0346
 8371TIP3    H146604   2.377   4.380   1.116 -1.0180 -1.0027 -0.6906
 8371TIP3    H246605   2.521   4.333   1.116 -0.1265  1.6093  0.9551
 8372TIP3   OH246606   4.414   3.635   4.499  0.2230 -0.0812 -0.2513
 8372TIP3    H146607   4.386   3.552   4.460  0.4310 -0.4676  0.4175
 8372TIP3    H246608   4.477   3.610   4.567  2.0447  0.7546 -1.5754
 8373TIP3   OH246609   6.014   3.217  14.801 -0.5889  0.1674 -0.0746
 8373TIP3    H146610   6.007   3.125  14.776  2.2634 -0.0904 -0.1122
 8373TIP3    H246611   6.100   3.224  14.843  0.0203  3.1516 -1.6490
 8374TIP3   OH246612   5.037   3.547  15.624  0.1177  0.1888  0.1702
 8374TIP3    H146613   5.055   3.625  15.676  0.1892  1.1324 -1.2393
 8374TIP3    H246614   5.103   3.548  15.555 -1.5228  0.3626 -1.4478
 8375TIP3   OH246615   3.271   0.384  16.114  0.3849 -0.3312  0.1966
 8375TIP3    H146616   3.303   0.295  16.097  0.5363 -0.6919  2.1903
 8375TIP3    H246617   3.350   0.436  16.126  0.2931  0.0625 -0.9125
 8376TIP3   OH246618   5.321   3.026  15.727  0.4864  0.3278 -0.1867
 8376TIP3    H146619   5.241   2.978  15.751 -0.7652  2.5539  0.2399
 8376TIP3    H246620   5.294   3.084  15.656  2.1297 -0.0110 -1.1193
 8377TIP3   OH246621   2.057   1.775  13.099 -0.2778 -0.2713  0.1027
 8377TIP3    H146622   2.074   1.805  13.009 -1.8788 -0.5930 -0.3240
 8377TIP3    H246623   1.987   1.832  13.130 -0.0049 -0.4269  1.0119
 8378TIP3   OH246624   1.131   0.361   2.690  0.1220 -0.8408  0.0568
 8378TIP3    H146625   1.147   0.438   2.745  0.2897 -0.7786 -0.0814
 8378TIP3    H246626   1.209   0.307   2.700 -0.8711 -1.9964  1.8222
 8379TIP3   OH246627   0.074   4.974  13.915 -0.2063 -0.0100 -0.1476
 8379TIP3    H146628   0.081   5.032  13.839 -2.7422  0.6986  0.0848
 8379TIP3    H246629   0.025   5.026  13.979  2.1939 -0.4828  2.1065
 8380TIP3   OH246630   1.584   0.438  17.119 -0.0045  0.1267  0.0669
 8380TIP3    H146631   1.587   0.348  17.085  1.9080  0.7754 -1.5748
 8380TIP3    H246632   1.656   0.441  17.182  0.5836  0.7770 -0.6281
 8381TIP3   OH246633   4.677   5.533   3.621  0.0985  0.3469 -0.0000
 8381TIP3    H146634   4.632   5.519   3.538  1.3553  1.8904 -0.9792
 8381TIP3    H246635   4.710   5.623   3.615  2.4910 -0.4194  1.0340
 8382TIP3   OH246636   2.134   0.701   5.075 -0.0494  0.3211 -1.2680
 8382TIP3    H146637   2.126   0.781   5.127  2.1805  0.5770 -1.2853
 8382TIP3    H246638   2.068   0.711   5.006 -1.2090  1.1811 -0.0523
 8383TIP3   OH246639   0.028   5.736  11.127 -0.8158  0.4115  0.0285
 8383TIP3    H146640   0.084   5.723  11.050  1.3717  1.7851  1.3291
 8383TIP3    H246641   0.001   5.827  11.122 -3.8845 -0.4988 -1.1363
 8384TIP3   OH246642   5.116   5.738   1.394 -0.1644 -0.5738  0.1582
 8384TIP3    H146643   5.149   5.824   1.420 -0.6922 -0.1965 -0.3821
 8384TIP3    H246644   5.091   5.696   1.475  0.7233 -0.4814  0.4894
 8385TIP3   OH246645   1.316   4.084  11.371  0.4220  0.3292 -0.0586
 8385TIP3    H146646   1.229   4.118  11.350 -0.0742 -0.5864  0.4402
 8385TIP3    H246647   1.328   4.011  11.310  1.3875  1.2704 -0.9890
 8386TIP3   OH246648   4.819   1.572  14.932  0.1840 -0.0222 -0.3956
 8386TIP3    H146649   4.821   1.667  14.946  1.4867 -0.1491  0.3732
 8386TIP3    H246650   4.739   1.544  14.976 -0.6561  0.8164 -1.3481
 8387TIP3   OH246651   0.508   1.424  13.752  0.3036  0.2234 -0.3850
 8387TIP3    H146652   0.588   1.381  13.723 -0.1225  0.7908 -2.5399
 8387TIP3    H246653   0.537   1.492  13.812  1.1417 -1.7776  1.5382
 8388TIP3   OH246654   3.737   2.315  16.464  0.2198 -0.0807 -0.0819
 8388TIP3    H146655   3.674   2.362  16.519  0.6209  2.2257 -1.5084
 8388TIP3    H246656   3.819   2.320  16.514  0.0273 -0.1222  0.2386
 8389TIP3   OH246657   1.840   0.431  11.750  0.3513 -0.4087 -0.5185
 8389TIP3    H146658   1.818   0.338  11.748  0.5415 -0.4604 -0.2358
 8389TIP3    H246659   1.768   0.474  11.703  1.6510 -0.9723 -3.1003
 8390TIP3   OH246660   4.158   6.110  13.639  0.1434 -0.5184  0.0078
 8390TIP3    H146661   4.155   6.041  13.574 -0.1141 -0.7378  0.2498
 8390TIP3    H246662   4.176   6.065  13.722  0.6625 -0.2237  0.0606
 8391TIP3   OH246663   4.066   1.868   4.597  0.2010 -0.1684  0.0016
 8391TIP3    H146664   4.067   1.956   4.636 -1.4299  0.7085 -1.8613
 8391TIP3    H246665   4.151   1.861   4.553 -1.0212  1.8951 -2.8110
 8392TIP3   OH246666   0.393   2.717   5.121  0.1389 -0.2873  0.9929
 8392TIP3    H146667   0.403   2.789   5.184  0.7859  0.5571 -0.0625
 8392TIP3    H246668   0.361   2.759   5.041  0.3471 -1.1970  0.4223
 8393TIP3   OH246669   1.659   4.125  10.677 -0.1743 -0.6695 -0.6883
 8393TIP3    H146670   1.661   4.033  10.651 -0.5175 -1.0394  0.5701
 8393TIP3    H246671   1.652   4.173  10.594 -0.1073 -1.7770 -1.3416
 8394TIP3   OH246672   4.948   2.898   2.892  0.2765  0.5936  0.3098
 8394TIP3    H146673   4.946   2.933   2.981 -2.0724 -0.1379  0.5607
 8394TIP3    H246674   5.000   2.962   2.843 -1.5565  2.9852  1.3828
 8395TIP3   OH246675   2.354   5.974   0.267  0.0070  0.1989 -0.0507
 8395TIP3    H146676   2.259   5.967   0.259  0.3409 -2.3426 -2.3681
 8395TIP3    H246677   2.379   6.044   0.207 -0.3655  0.7476  0.4308
 8396TIP3   OH246678   3.579   1.998  14.316 -0.3180  0.5241  0.5243
 8396TIP3    H146679   3.640   2.069  14.296  1.2908  0.1193  3.7133
 8396TIP3    H246680   3.633   1.931  14.359 -2.1266 -1.9438 -0.8813
 8397TIP3   OH246681   1.417   0.212   3.766  0.8795  0.2732  0.0723
 8397TIP3    H146682   1.377   0.299   3.764 -0.1929 -0.2238 -0.8013
 8397TIP3    H246683   1.442   0.195   3.675 -0.9313 -1.2423 -0.1555
 8398TIP3   OH246684   2.930   3.019   2.133 -0.3119  0.4049 -0.7064
 8398TIP3    H146685   3.008   3.071   2.151  0.2288 -0.9264  0.9677
 8398TIP3    H246686   2.956   2.957   2.065  0.2745 -0.4058  0.2420
 8399TIP3   OH246687   2.622   1.809   2.852 -0.5181  0.4103 -0.1894
 8399TIP3    H146688   2.696   1.864   2.880 -1.0712  0.6490  0.8238
 8399TIP3    H246689   2.562   1.870   2.809 -0.2402  0.2618 -0.7832
 8400TIP3   OH246690   3.744   1.902   4.835  0.3762  0.5670 -0.1244
 8400TIP3    H146691   3.698   1.931   4.756 -1.2218 -1.5975 -0.0323
 8400TIP3    H246692   3.789   1.822   4.809 -1.0337 -0.7569  1.4024
 8401TIP3   OH246693   1.838   2.024   1.897 -0.1702 -0.2260  0.2863
 8401TIP3    H146694   1.769   1.966   1.928  0.0736 -1.2457 -1.0768
 8401TIP3    H246695   1.843   2.092   1.965 -3.3192  0.5509 -0.1643
 8402TIP3   OH246696   4.618   1.584  13.957 -0.2109 -0.1609  0.7232
 8402TIP3    H146697   4.663   1.600  13.874  0.0592 -0.7062  0.7558
 8402TIP3    H246698   4.536   1.543  13.931 -0.0477 -0.4966  0.7300
 8403TIP3   OH246699   6.764   4.646   0.900 -0.2338 -0.2389 -0.1290
 8403TIP3    H146700   6.692   4.595   0.862 -3.1374  1.0267  3.3666
 8403TIP3    H246701   6.756   4.633   0.994  2.6380  1.9169  0.4859
 8404TIP3   OH246702   0.609   3.449  15.702  0.2959  0.0505  0.0464
 8404TIP3    H146703   0.549   3.499  15.647  0.8956  0.6445 -0.0687
 8404TIP3    H246704   0.640   3.379  15.646  0.5902  0.4135 -0.2433
 8405TIP3   OH246705   2.470   3.602  16.872 -0.2682 -0.3282 -0.3474
 8405TIP3    H146706   2.421   3.677  16.839  0.2769 -0.7854 -2.2831
 8405TIP3    H246707   2.554   3.638  16.899 -1.3899  0.3591  2.4191
 8406TIP3   OH246708   4.663   3.752   4.902 -0.3496 -0.2021  0.1995
 8406TIP3    H146709   4.578   3.786   4.932 -1.0149 -1.5137 -0.1525
 8406TIP3    H246710   4.641   3.694   4.829  0.8572 -0.5950  0.1384
 8407TIP3   OH246711   6.543   6.041   2.941  0.2036  0.0549  0.2372
 8407TIP3    H146712   6.588   5.964   2.908  0.8609  0.2957  0.5447
 8407TIP3    H246713   6.450   6.021   2.934  0.3606 -0.3515 -0.6494
 8408TIP3   OH246714   1.783   4.285  13.277 -0.4317 -0.6384 -0.2934
 8408TIP3    H146715   1.754   4.364  13.325 -0.9226 -0.7498 -0.4003
 8408TIP3    H246716   1.877   4.279  13.295 -0.5037 -0.3573  0.1958
 8409TIP3   OH246717   0.584   1.859   4.761 -0.3251  0.6939 -0.2170
 8409TIP3    H146718   0.494   1.889   4.747 -1.2612 -1.6435  0.4151
 8409TIP3    H246719   0.579   1.808   4.842  1.4894  0.2067 -0.3933
 8410TIP3   OH246720   1.267   3.868   0.103  0.0918  0.6951 -0.1278
 8410TIP3    H146721   1.207   3.796   0.123  0.0217  1.2260  1.6985
 8410TIP3    H246722   1.343   3.826   0.064 -1.2885 -0.0239 -2.1102
 8411TIP3   OH246723   6.041   6.482  15.982 -0.6147  0.1133  0.2850
 8411TIP3    H146724   6.137   6.475  15.974 -0.5294  1.0087  0.4070
 8411TIP3    H246725   6.008   6.453  15.898 -0.0659  2.7068 -0.8919
 8412TIP3   OH246726   0.413   4.546  15.858  0.5630 -0.1168  0.3658
 8412TIP3    H146727   0.451   4.610  15.919  0.5074  1.4493 -1.1931
 8412TIP3    H246728   0.323   4.576  15.845  0.3289 -0.9146  0.1577
 8413TIP3   OH246729   2.550   4.597   2.684  0.4574  0.1116 -0.3202
 8413TIP3    H146730   2.464   4.639   2.676 -0.2882 -1.4449 -0.8522
 8413TIP3    H246731   2.588   4.604   2.597  0.4605 -0.0412 -0.3311
 8414TIP3   OH246732   3.501   0.813   1.095  0.0540  0.1952 -0.2710
 8414TIP3    H146733   3.408   0.831   1.081 -0.5206 -2.5057 -0.1666
 8414TIP3    H246734   3.514   0.824   1.189  0.2407  2.1876 -0.5033
 8415TIP3   OH246735   6.392   5.698   5.659  0.5290  0.5551  0.2030
 8415TIP3    H146736   6.480   5.667   5.679  0.4842 -0.5804 -1.2854
 8415TIP3    H246737   6.339   5.618   5.650  0.1430  1.0742 -2.4386
 8416TIP3   OH246738   5.136   2.268   3.887 -0.0603  0.0224  0.1796
 8416TIP3    H146739   5.132   2.229   3.974  0.5654  0.3140  0.3455
 8416TIP3    H246740   5.076   2.216   3.834 -0.2047 -0.3509  0.7107
 8417TIP3   OH246741   1.772   0.588  14.931 -0.0077 -0.1312  0.2367
 8417TIP3    H146742   1.839   0.519  14.934 -1.4795 -1.5020  2.8882
 8417TIP3    H246743   1.711   0.559  14.863  1.6454  0.7930 -1.7223
 8418TIP3   OH246744   5.018   2.025   5.849  0.1709 -0.3561 -0.9076
 8418TIP3    H146745   4.945   2.055   5.794 -0.1971  1.4221  0.4925
 8418TIP3    H246746   4.977   2.006   5.934  1.3912  1.1464  0.0463
 8419TIP3   OH246747   3.221   6.701   1.998 -0.3335  0.2144  0.2077
 8419TIP3    H146748   3.141   6.744   1.969 -0.1401  0.3187 -0.1784
 8419TIP3    H246749   3.237   6.633   1.933 -0.2641  0.0104  0.4391
 8420TIP3   OH246750   4.659   1.577  12.169  0.1752  0.2805  0.2554
 8420TIP3    H146751   4.631   1.583  12.260 -0.9485  0.9698 -0.1157
 8420TIP3    H246752   4.583   1.608  12.119  0.3618 -1.1922 -0.9713
 8421TIP3   OH246753   1.453   4.892  16.169  0.1242 -0.1916  0.0586
 8421TIP3    H146754   1.487   4.949  16.237  1.3129 -1.9965  1.0201
 8421TIP3    H246755   1.380   4.845  16.210 -0.7921  0.5270 -0.6990
 8422TIP3   OH246756   2.590   4.111  16.745  0.0291  0.0935 -0.0571
 8422TIP3    H146757   2.497   4.093  16.753 -0.2835  1.6801 -0.0259
 8422TIP3    H246758   2.619   4.056  16.672 -1.0592  0.0502 -0.4568
 8423TIP3   OH246759   1.020   2.708   3.565 -0.6554 -0.1407  0.6238
 8423TIP3    H146760   0.956   2.778   3.547  0.7004  0.6036 -1.5241
 8423TIP3    H246761   1.103   2.754   3.577 -0.0674 -1.2769  0.9397
 8424TIP3   OH246762   1.116   4.107  10.391  0.0257  0.4901  0.2211
 8424TIP3    H146763   1.132   4.182  10.334  2.2613 -0.1760 -0.0776
 8424TIP3    H246764   1.175   4.039  10.359  0.0390 -0.4830  2.2086
 8425TIP3   OH246765   4.666   2.854  14.521  0.0707  0.3639 -0.1115
 8425TIP3    H146766   4.625   2.772  14.492 -0.2041  0.3800  0.2249
 8425TIP3    H246767   4.663   2.849  14.616  5.0427 -1.7804  0.0912
 8426TIP3   OH246768   5.526   3.650   3.789  0.1746 -0.0160  0.2419
 8426TIP3    H146769   5.489   3.738   3.790 -0.7582 -0.3856 -0.6122
 8426TIP3    H246770   5.495   3.612   3.707  2.0629 -0.5255 -0.2465
 8427TIP3   OH246771   3.580   0.277   3.945  0.1160  0.1875 -0.2980
 8427TIP3    H146772   3.579   0.186   3.975  1.1952  0.2417 -0.1075
 8427TIP3    H246773   3.573   0.329   4.025 -1.3951  0.2824 -0.4594
 8428TIP3   OH246774   1.785   3.710  16.914  0.0940 -0.2593 -0.8380
 8428TIP3    H146775   1.838   3.703  16.994 -2.1905 -0.3974  0.7305
 8428TIP3    H246776   1.813   3.636  16.861  0.6724 -1.0075  0.4750
 8429TIP3   OH246777   3.285   5.001  14.563 -0.3654  0.7296  0.6053
 8429TIP3    H146778   3.377   5.008  14.587 -0.1207 -0.1524 -0.0680
 8429TIP3    H246779   3.255   5.092  14.554  0.6842  0.9954 -0.1657
 8430TIP3   OH246780   5.925   6.476  13.205  0.7420  0.2065 -0.0680
 8430TIP3    H146781   5.884   6.481  13.118  1.0988 -0.5783 -0.2808
 8430TIP3    H246782   5.962   6.388  13.209  2.4570  0.9151  0.1045
 8431TIP3   OH246783   6.124   4.953  15.763  0.0454 -0.9132  0.2733
 8431TIP3    H146784   6.172   4.886  15.714  0.6031 -1.2124  1.1964
 8431TIP3    H246785   6.047   4.907  15.797 -0.5298 -0.6151 -0.6141
 8432TIP3   OH246786   6.301   5.190   3.236 -0.2589 -0.0467 -0.2702
 8432TIP3    H146787   6.389   5.194   3.273 -0.2469 -0.5953 -0.2326
 8432TIP3    H246788   6.305   5.118   3.173 -0.2802  0.8584 -1.3363
 8433TIP3   OH246789   4.047   2.317   3.280  0.9419  0.1705  0.8643
 8433TIP3    H146790   4.127   2.266   3.268  0.7958  0.1352 -0.0064
 8433TIP3    H246791   4.077   2.405   3.301  1.2634  0.9123 -2.4724
 8434TIP3   OH246792   0.099   3.962   5.133  0.0831  0.8807 -0.1154
 8434TIP3    H146793   0.138   4.041   5.171 -0.2861 -0.0421  2.2627
 8434TIP3    H246794   0.166   3.927   5.074  1.1050  1.7407  0.5447
 8435TIP3   OH246795   3.010   1.604   0.284  0.4469  0.5119 -0.5269
 8435TIP3    H146796   3.095   1.577   0.319  0.3360  1.6185  0.6229
 8435TIP3    H246797   3.027   1.621   0.191  1.2254 -0.3569 -0.5454
 8436TIP3   OH246798   0.809   6.790  16.040  0.3631  0.3003 -0.1698
 8436TIP3    H146799   0.734   6.774  16.097  1.5063  0.2798  1.3458
 8436TIP3    H246800   0.831   6.881  16.056 -1.8809  1.5847 -3.7144
 8437TIP3   OH246801   0.226   4.328  13.848  0.1270  0.2213  0.2966
 8437TIP3    H146802   0.177   4.389  13.903  0.7020 -0.8906  2.0920
 8437TIP3    H246803   0.282   4.384  13.795  0.8203  1.2833  2.0757
 8438TIP3   OH246804   0.864   4.326  10.655 -0.1809  0.5511  0.6913
 8438TIP3    H146805   0.919   4.255  10.624 -1.0010 -0.3526  1.2698
 8438TIP3    H246806   0.926   4.391  10.689  0.6397  0.8484 -1.3274
 8439TIP3   OH246807   4.316   2.859  14.242 -0.0980 -0.3991  0.9496
 8439TIP3    H146808   4.393   2.913  14.224 -0.9559  0.3641 -0.4758
 8439TIP3    H246809   4.350   2.785  14.292  1.2269  0.9951  2.1801
 8440TIP3   OH246810   4.119   6.048   1.592  0.0536 -0.3475  0.1098
 8440TIP3    H146811   4.086   6.098   1.667  0.4806 -2.2904  1.6267
 8440TIP3    H246812   4.044   5.996   1.563  0.9925 -2.8062  1.9227
 8441TIP3   OH246813   6.158   4.088  12.647 -0.3726  0.1006  0.3624
 8441TIP3    H146814   6.224   4.155  12.629 -0.7496  0.3487 -0.0808
 8441TIP3    H246815   6.198   4.006  12.617 -0.1559  0.2115  0.3464
 8442TIP3   OH246816   2.885   6.627  15.777  0.2215 -0.7621 -0.2749
 8442TIP3    H146817   2.935   6.579  15.843 -1.2540  1.1008  2.2844
 8442TIP3    H246818   2.816   6.567  15.750  0.7867 -1.5110 -0.0645
 8443TIP3   OH246819   1.887   1.201  15.408  0.4338  0.2251  0.1479
 8443TIP3    H146820   1.971   1.155  15.403  0.4877  0.3853 -0.4767
 8443TIP3    H246821   1.848   1.189  15.321 -0.6685 -0.7552  0.7753
 8444TIP3   OH246822   1.592   3.876   1.859 -0.6694  0.6400  0.3958
 8444TIP3    H146823   1.563   3.959   1.896  0.9886  0.9914  0.9601
 8444TIP3    H246824   1.688   3.877   1.869 -0.6775 -1.6220  0.9974
 8445TIP3   OH246825   0.161   0.212   1.161 -0.5299 -0.5805  0.0975
 8445TIP3    H146826   0.155   0.292   1.109  1.2847 -0.3349  0.2361
 8445TIP3    H246827   0.228   0.160   1.117  0.8615 -0.4657  2.0388
 8446TIP3   OH246828   4.876   0.462  12.580  0.4128  0.1389 -0.1080
 8446TIP3    H146829   4.843   0.489  12.494  0.6061 -0.6336 -0.4338
 8446TIP3    H246830   4.808   0.488  12.642 -0.3139 -0.4546 -0.6483
 8447TIP3   OH246831   3.338   6.056   0.373 -0.0674  0.2771 -0.5463
 8447TIP3    H146832   3.282   6.066   0.450  0.6013  2.0473 -0.2655
 8447TIP3    H246833   3.427   6.063   0.407  0.2412  0.6690 -1.4225
 8448TIP3   OH246834   4.693   2.317  11.453  0.3588  0.6058  0.0680
 8448TIP3    H146835   4.751   2.246  11.426  0.8030  1.3347 -0.9839
 8448TIP3    H246836   4.605   2.285  11.434  0.6544  1.1168 -2.4399
 8449TIP3   OH246837   5.103   2.412  16.852  0.4481  0.0329 -0.2033
 8449TIP3    H146838   5.042   2.398  16.924  0.1018 -0.7056 -0.6330
 8449TIP3    H246839   5.093   2.505  16.829  1.7732  0.7200  1.7777
 8450TIP3   OH246840   2.356   4.057  12.404 -0.2841 -0.2523 -0.1648
 8450TIP3    H146841   2.262   4.041  12.416  0.0522 -1.9009  0.5236
 8450TIP3    H246842   2.362   4.116  12.330 -1.8726 -0.2252 -0.2763
 8451TIP3   OH246843   2.943   3.861  15.878 -0.5300  0.0517  0.8775
 8451TIP3    H146844   2.868   3.863  15.938 -0.3827  0.9421  1.0398
 8451TIP3    H246845   2.985   3.777  15.896 -1.3354 -0.3440  0.9718
 8452TIP3   OH246846   0.354   3.760  10.970 -0.6605 -0.2873 -0.0645
 8452TIP3    H146847   0.435   3.726  11.007 -0.3483 -0.5527 -0.9828
 8452TIP3    H246848   0.350   3.851  11.000 -0.1863 -0.3706  0.2453
 8453TIP3   OH246849   5.111   0.521  15.767 -0.5173 -0.1974  0.2156
 8453TIP3    H146850   5.196   0.478  15.758 -0.8220 -0.8630  0.4657
 8453TIP3    H246851   5.132   0.614  15.774  0.2449 -0.4221  1.0956
 8454TIP3   OH246852   5.180   3.073   3.316 -0.0259 -0.1670  0.2504
 8454TIP3    H146853   5.267   3.102   3.345 -0.6101  1.6824  0.2233
 8454TIP3    H246854   5.162   2.996   3.369  1.7736 -0.7759  0.0252
 8455TIP3   OH246855   1.591   4.670  13.155  0.2269 -0.0232 -0.2695
 8455TIP3    H146856   1.618   4.621  13.077 -0.3006 -0.1159 -0.3926
 8455TIP3    H246857   1.496   4.667  13.154  0.2274 -0.6325  0.7591
 8456TIP3   OH246858   2.393   6.425  16.434  0.6378 -0.1942 -0.0895
 8456TIP3    H146859   2.375   6.507  16.389 -1.3966 -0.9856 -0.8095
 8456TIP3    H246860   2.463   6.385  16.383  0.4585  0.3264 -0.7562
 8457TIP3   OH246861   4.431   2.190   4.621 -0.1525 -0.2914 -0.1931
 8457TIP3    H146862   4.469   2.111   4.582 -1.1945 -0.9858  0.1649
 8457TIP3    H246863   4.493   2.260   4.600  1.0429 -1.3043 -0.0626
 8458TIP3   OH246864   6.715   0.168   0.972 -0.3492 -0.1845 -0.0130
 8458TIP3    H146865   6.783   0.148   1.035  0.8809 -0.1813 -1.3144
 8458TIP3    H246866   6.668   0.243   1.009 -0.8626 -1.3530  1.7757
 8459TIP3   OH246867   0.232   2.967   5.875 -0.1056 -0.2611 -1.0794
 8459TIP3    H146868   0.270   3.018   5.947 -3.9875 -0.9150  1.5660
 8459TIP3    H246869   0.296   2.898   5.859  3.0337  2.6219 -1.5477
 8460TIP3   OH246870   5.927   2.701   5.549  0.5084 -0.4950  0.4417
 8460TIP3    H146871   5.846   2.716   5.500  1.9886  0.5567 -1.7803
 8460TIP3    H246872   5.942   2.607   5.542 -0.5095 -0.6883  0.8459
 8461TIP3   OH246873   5.001   5.350   4.182  0.2581  0.1843  0.5947
 8461TIP3    H146874   4.922   5.366   4.129 -0.6375  1.4617  2.2678
 8461TIP3    H246875   5.036   5.438   4.199  0.2099 -0.1623  2.5968
 8462TIP3   OH246876   0.457   3.404  14.396 -0.2200  0.0779  0.1523
 8462TIP3    H146877   0.471   3.327  14.341 -2.4508 -0.2097 -0.0577
 8462TIP3    H246878   0.545   3.440  14.409  0.4641 -0.1712 -3.1519
 8463TIP3   OH246879   2.622   3.125  16.429  0.3868  0.1915 -0.2232
 8463TIP3    H146880   2.672   3.112  16.349  0.7824 -1.1399  0.2362
 8463TIP3    H246881   2.677   3.181  16.484  0.3624  0.6321 -0.6498
 8464TIP3   OH246882   6.435   4.934   0.055 -0.4357 -0.5014 -0.2084
 8464TIP3    H146883   6.397   4.847   0.043  0.3712 -0.7105 -1.3556
 8464TIP3    H246884   6.432   4.973  -0.032  0.5407  0.0678  0.0122
 8465TIP3   OH246885   5.305   2.722   3.389  0.4344 -0.4322 -0.0326
 8465TIP3    H146886   5.233   2.662   3.407  1.0672 -0.7738  1.4699
 8465TIP3    H246887   5.270   2.809   3.409  0.4997 -0.6198  0.9379
 8466TIP3   OH246888   2.735   5.596   0.265  0.1502  0.0846  0.2929
 8466TIP3    H146889   2.745   5.514   0.314  0.0617 -1.6644 -2.4655
 8466TIP3    H246890   2.820   5.609   0.223 -0.1467  0.8918 -0.0648
 8467TIP3   OH246891   1.804   6.768  13.174 -0.0050 -0.0021  0.0428
 8467TIP3    H146892   1.840   6.680  13.163  0.5380  0.2656 -0.3402
 8467TIP3    H246893   1.847   6.802  13.253 -0.6726 -0.3085  0.5382
 8468TIP3   OH246894   3.329   5.460  16.963 -0.6183  0.3270 -0.0219
 8468TIP3    H146895   3.351   5.393  17.027  0.6942  1.3610  0.6423
 8468TIP3    H246896   3.284   5.528  17.014  2.0036  1.9800  0.2082
 8469TIP3   OH246897   6.343   0.324   5.204 -0.1696  0.1337  0.0442
 8469TIP3    H146898   6.361   0.234   5.229  1.9818  0.4144 -0.4679
 8469TIP3    H246899   6.252   0.323   5.175  0.0913 -2.0282 -0.7392
 8470TIP3   OH246900   1.065   6.711   2.418 -0.5206  0.1250 -0.4942
 8470TIP3    H146901   1.105   6.717   2.331 -1.2772 -0.2967 -0.8710
 8470TIP3    H246902   1.001   6.782   2.420  0.0939  0.6809  0.0448
 8471TIP3   OH246903   6.477   3.997   5.306 -0.1346 -0.2925 -0.7148
 8471TIP3    H146904   6.462   4.084   5.269 -0.1849  0.4941  1.1395
 8471TIP3    H246905   6.523   4.013   5.388 -0.3706 -2.0066 -0.2396
 8472TIP3   OH246906   2.541   0.349   2.776 -0.4644 -0.4208  0.0728
 8472TIP3    H146907   2.454   0.312   2.758 -1.1394  1.8381 -1.4951
 8472TIP3    H246908   2.600   0.302   2.717 -1.0215 -0.2527 -0.6182
 8473TIP3   OH246909   1.327   1.564  16.332 -0.1233 -0.7002  0.1280
 8473TIP3    H146910   1.392   1.616  16.284  1.2667 -1.4992  1.1276
 8473TIP3    H246911   1.305   1.493  16.271  0.2332 -0.6552 -0.0579
 8474TIP3   OH246912   0.732   2.471   0.354 -0.0001 -0.1005  0.3858
 8474TIP3    H146913   0.783   2.510   0.283  0.2639 -1.3082 -0.0927
 8474TIP3    H246914   0.688   2.396   0.314 -4.2082  2.3569  0.1525
 8475TIP3   OH246915   1.334   5.804  11.573 -0.2850 -0.2181  0.4646
 8475TIP3    H146916   1.347   5.801  11.668  0.7380  1.2010  0.4007
 8475TIP3    H246917   1.268   5.738  11.555 -0.4273 -0.5590  2.1624
 8476TIP3   OH246918   6.544   1.235   0.371  0.0671 -0.0890  0.0814
 8476TIP3    H146919   6.551   1.313   0.317  1.0605 -1.5320 -1.9527
 8476TIP3    H246920   6.490   1.175   0.319  0.5717 -1.3079  0.9438
 8477TIP3   OH246921   6.226   5.490  10.561 -0.3442  0.2200  0.4190
 8477TIP3    H146922   6.292   5.484  10.492 -2.8845 -1.1738 -2.0042
 8477TIP3    H246923   6.261   5.554  10.622  2.7131  0.3436 -1.3656
 8478TIP3   OH246924   4.440   6.685  17.076 -0.1198  0.1648  0.0728
 8478TIP3    H146925   4.416   6.603  17.033 -0.3042  0.0746  0.3498
 8478TIP3    H246926   4.375   6.696  17.145  0.7210 -0.1602  0.9167
 8479TIP3   OH246927   0.655   5.976   1.388  0.1434 -0.0110 -0.2206
 8479TIP3    H146928   0.726   5.988   1.325  0.4874 -0.0658  0.1555
 8479TIP3    H246929   0.577   6.005   1.341  0.4833  0.5205 -0.4677
 8480TIP3   OH246930   3.793   3.208  17.192  0.1342 -0.2848 -0.7143
 8480TIP3    H146931   3.836   3.123  17.178 -1.1235 -0.9764 -0.5282
 8480TIP3    H246932   3.710   3.185  17.234  0.6500  1.2149  1.1503
 8481TIP3   OH246933   5.990   1.070   0.790 -0.4429 -0.1737  0.5876
 8481TIP3    H146934   6.046   1.142   0.762 -1.2417 -0.1966 -1.1397
 8481TIP3    H246935   5.916   1.072   0.729 -1.2535 -1.4715  1.5004
 8482TIP3   OH246936   5.850   1.306  14.107 -0.1908 -0.0256 -0.0522
 8482TIP3    H146937   5.902   1.351  14.173  1.2732 -0.2822 -1.0088
 8482TIP3    H246938   5.767   1.353  14.106  0.4931  1.2221  0.5715
 8483TIP3   OH246939   2.226   6.286   2.424  0.8208  0.3019 -0.2425
 8483TIP3    H146940   2.289   6.214   2.427 -0.1469 -0.5152  0.6616
 8483TIP3    H246941   2.181   6.282   2.508 -1.2454  0.1584 -1.3279
 8484TIP3   OH246942   5.195   4.502  12.553 -0.0785 -0.0498 -0.1673
 8484TIP3    H146943   5.137   4.428  12.565  2.2217 -2.1850 -1.7997
 8484TIP3    H246944   5.181   4.530  12.463 -0.3026  0.9750  0.1723
 8485TIP3   OH246945   1.458   5.708   1.811  0.3619 -0.2105  0.4100
 8485TIP3    H146946   1.442   5.797   1.840  0.8118 -0.1016  0.3338
 8485TIP3    H246947   1.472   5.716   1.716  0.6247 -0.3307  0.4387
 8486TIP3   OH246948   3.583   0.114  14.489 -0.6354  0.1815 -0.1550
 8486TIP3    H146949   3.514   0.179  14.475  0.2488  1.0557 -0.4767
 8486TIP3    H246950   3.642   0.124  14.415  1.0221  0.9680  1.2240
 8487TIP3   OH246951   2.813   1.370  14.687  0.7235  0.1395 -0.3245
 8487TIP3    H146952   2.723   1.401  14.690  1.0356  1.4042 -2.4891
 8487TIP3    H246953   2.817   1.314  14.609  1.5206 -0.8739  0.4280
 8488TIP3   OH246954   1.365   5.606   5.304  0.0359  0.6201  0.3320
 8488TIP3    H146955   1.299   5.616   5.372  1.8884 -0.7011  2.3877
 8488TIP3    H246956   1.394   5.695   5.286 -1.3032  1.0830  0.4125
 8489TIP3   OH246957   2.824   5.637   4.511 -0.1434 -0.0527  0.6241
 8489TIP3    H146958   2.906   5.600   4.544  0.1671  1.1089  1.1765
 8489TIP3    H246959   2.756   5.590   4.560  0.1058 -1.9456 -0.7558
 8490TIP3   OH246960   1.169   4.340   6.880  0.0796 -0.3930  0.5703
 8490TIP3    H146961   1.101   4.320   6.816 -1.0088 -0.4105  1.7156
 8490TIP3    H246962   1.195   4.254   6.915 -1.4018 -0.2031  2.2329
 8491TIP3   OH246963   5.043   5.665   0.488 -0.0516  0.6312  0.0845
 8491TIP3    H146964   4.970   5.609   0.460  0.4737 -0.8101  1.4507
 8491TIP3    H246965   5.082   5.696   0.407  0.2130 -1.7896 -0.7773
 8492TIP3   OH246966   0.196   0.550  11.449  0.2657 -0.2072 -0.2712
 8492TIP3    H146967   0.211   0.628  11.501  0.3873 -0.3784 -0.0462
 8492TIP3    H246968   0.281   0.507  11.444 -0.1252 -1.1391  0.9471
 8493TIP3   OH246969   0.649   2.212  12.557 -0.6875  0.1002 -0.0004
 8493TIP3    H146970   0.735   2.233  12.521  0.2352 -3.3324  0.0304
 8493TIP3    H246971   0.590   2.210  12.482 -0.0285 -0.9821 -0.4865
 8494TIP3   OH246972   3.826   2.460   3.686 -0.3195  0.2226  0.1607
 8494TIP3    H146973   3.744   2.414   3.667 -0.7122  0.5503  1.0207
 8494TIP3    H246974   3.890   2.390   3.697 -0.5738 -0.0552 -0.0821
 8495TIP3   OH246975   4.449   1.710  14.622 -0.0273 -0.0300  0.0262
 8495TIP3    H146976   4.447   1.759  14.704  1.6280 -3.4386  2.2252
 8495TIP3    H246977   4.386   1.639  14.635  1.6464 -1.7262 -0.8587
 8496TIP3   OH246978   3.701   1.669  15.380  0.2258 -0.1627 -0.2688
 8496TIP3    H146979   3.651   1.629  15.451 -0.4483  0.8447 -0.1644
 8496TIP3    H246980   3.642   1.662  15.304 -1.2496  3.4729  0.4498
 8497TIP3   OH246981   4.860   3.372  15.475 -0.4681  0.1443 -0.5535
 8497TIP3    H146982   4.930   3.437  15.477 -0.1143 -0.2218 -1.0237
 8497TIP3    H246983   4.891   3.304  15.416  0.4135 -1.8354  2.0719
 8498TIP3   OH246984   2.873   1.737   5.969  0.2608  0.1414  0.0877
 8498TIP3    H146985   2.797   1.715   6.024  1.2835  0.2303  1.5590
 8498TIP3    H246986   2.835   1.770   5.888 -1.3216 -4.1886 -1.0473
 8499TIP3   OH246987   5.447   6.548  16.173  0.2826  0.7593  0.8732
 8499TIP3    H146988   5.499   6.576  16.098  1.0773  0.3757  1.2710
 8499TIP3    H246989   5.358   6.540  16.139  0.7321  0.0578 -0.1588
 8500TIP3   OH246990   2.015   0.410   0.146  0.8964 -0.2371 -0.2577
 8500TIP3    H146991   2.082   0.439   0.085  1.1745  0.1342  0.2173
 8500TIP3    H246992   2.061   0.352   0.207  0.2950 -1.8972 -1.3501
 8501TIP3   OH246993   4.950   0.844   3.485  0.3258 -0.3001  0.4911
 8501TIP3    H146994   4.907   0.888   3.559 -0.8625 -1.2068  0.3502
 8501TIP3    H246995   4.968   0.756   3.516 -0.1409 -0.6739 -0.2772
 8502TIP3   OH246996   3.521   4.260  12.513  0.5493  0.0286 -0.2593
 8502TIP3    H146997   3.616   4.264  12.509  0.5581  0.5770  0.4149
 8502TIP3    H246998   3.495   4.221  12.430  1.4267 -1.2771  0.0634
 8503TIP3   OH246999   3.805   5.895   4.678  0.3520  0.0239 -0.1852
 8503TIP3    H147000   3.855   5.845   4.612  0.8873 -0.4420  0.5643
 8503TIP3    H247001   3.872   5.946   4.724 -0.0484  0.4982 -0.1293
 8504TIP3   OH247002   3.250   5.628   1.381 -0.6621 -0.3073 -0.3323
 8504TIP3    H147003   3.253   5.714   1.422  0.7463 -0.6600  0.3469
 8504TIP3    H247004   3.251   5.646   1.287  1.4321  0.4037 -0.2095
 8505TIP3   OH247005   1.820   5.882   6.237  0.0647  0.7418 -0.2285
 8505TIP3    H147006   1.862   5.828   6.169  0.6485  2.6346 -1.4433
 8505TIP3    H247007   1.806   5.823   6.310 -0.1380 -1.2590 -1.8393
 8506TIP3   OH247008   4.669   6.315   1.976 -0.2894 -0.1340 -0.9441
 8506TIP3    H147009   4.727   6.321   2.051 -3.8952  1.9860  1.8464
 8506TIP3    H247010   4.723   6.339   1.901  2.7260  0.3903  1.3102
 8507TIP3   OH247011   4.918   3.245   5.336  0.1554  0.0393 -0.2027
 8507TIP3    H147012   4.847   3.187   5.366 -0.1608  0.4285 -0.1837
 8507TIP3    H247013   4.888   3.277   5.251  0.1547  0.4623 -0.0450
 8508TIP3   OH247014   5.792   3.702  13.530 -0.1371 -0.2793 -0.1036
 8508TIP3    H147015   5.775   3.646  13.607  0.4207  1.6614  1.4631
 8508TIP3    H247016   5.887   3.707  13.526 -0.1814  0.0438 -0.6229
 8509TIP3   OH247017   6.014   3.002   2.286  0.9829  0.2317 -0.0934
 8509TIP3    H147018   5.983   3.082   2.243 -1.0550 -0.8228 -0.6737
 8509TIP3    H247019   6.015   2.936   2.216 -0.0459 -0.9025  0.9301
 8510TIP3   OH247020   3.250   1.413  15.096  0.6208 -0.2892  0.3393
 8510TIP3    H147021   3.343   1.433  15.110  0.3447  0.4659  1.0931
 8510TIP3    H247022   3.243   1.398  15.001  1.6103 -0.8885  0.3533
 8511TIP3   OH247023   2.963   1.198  16.413 -0.5597 -0.1045 -0.3455
 8511TIP3    H147024   3.039   1.159  16.370 -1.1071 -2.9479  1.1557
 8511TIP3    H247025   2.890   1.140  16.392 -1.7121  0.9113  0.7486
 8512TIP3   OH247026   0.135   1.407   1.215  0.0214 -0.2567  0.0204
 8512TIP3    H147027   0.131   1.489   1.266  0.1034  0.3550 -0.9461
 8512TIP3    H247028   0.226   1.379   1.223  0.9968  1.8540 -2.8699
 8513TIP3   OH247029   4.399   1.748   1.122  0.0723 -0.0008 -0.8344
 8513TIP3    H147030   4.494   1.742   1.112  0.4212  0.2977  1.9218
 8513TIP3    H247031   4.380   1.705   1.205 -2.0409  1.1218 -0.6854
 8514TIP3   OH247032   4.292   2.260  14.517 -0.1561 -0.6902  0.1867
 8514TIP3    H147033   4.343   2.179  14.521 -3.0544 -2.5156  1.6114
 8514TIP3    H247034   4.358   2.329  14.510  2.4451 -3.0465  0.5727
 8515TIP3   OH247035   6.458   2.022  12.343  0.4765  0.1753 -1.0956
 8515TIP3    H147036   6.452   1.926  12.344 -0.9877  0.2460 -1.1450
 8515TIP3    H247037   6.371   2.051  12.372  1.3592  1.4839  0.2814
 8516TIP3   OH247038   5.647   4.177  12.349 -0.0669 -0.3566 -0.0335
 8516TIP3    H147039   5.696   4.201  12.270 -0.7696 -0.2516 -0.4412
 8516TIP3    H247040   5.570   4.130  12.316 -0.2364 -0.5331  0.6032
 8517TIP3   OH247041   6.462   6.608   5.808  0.3599  0.1281 -0.5081
 8517TIP3    H147042   6.442   6.593   5.715 -0.1720  0.0049 -0.3740
 8517TIP3    H247043   6.455   6.703   5.818 -0.4202  0.0624 -0.4048
 8518TIP3   OH247044   1.450   0.753  16.456 -0.1179 -0.2877  0.5813
 8518TIP3    H147045   1.537   0.718  16.478  0.2482  0.6355  0.6325
 8518TIP3    H247046   1.429   0.810  16.530  0.2083  1.2285 -0.4797
 8519TIP3   OH247047   3.338   2.868   6.232 -0.2529 -0.1258  0.3113
 8519TIP3    H147048   3.276   2.849   6.162 -0.1809 -0.6718  0.3971
 8519TIP3    H247049   3.341   2.788   6.284  0.5909 -0.1356  0.2515
 8520TIP3   OH247050   4.713   5.296   1.191  0.0882 -0.3247  0.0920
 8520TIP3    H147051   4.807   5.313   1.182  0.3166 -0.6641  1.6433
 8520TIP3    H247052   4.696   5.221   1.134  0.9115 -0.7143  0.3529
 8521TIP3   OH247053   0.907   1.961   2.936  0.6288 -0.1112  0.0678
 8521TIP3    H147054   0.883   2.045   2.976 -0.0993  0.6147 -1.8555
 8521TIP3    H247055   0.839   1.900   2.966  1.0479  0.0098  1.3023
 8522TIP3   OH247056   4.759   5.730  12.298 -0.5154  0.1835  0.5325
 8522TIP3    H147057   4.811   5.810  12.301  1.3175 -0.8106 -2.1981
 8522TIP3    H247058   4.799   5.672  12.362 -1.3739  1.1595  1.9700
 8523TIP3   OH247059   1.043   1.784   3.972 -0.5230 -0.0037  0.4318
 8523TIP3    H147060   0.950   1.765   3.985 -0.6974  1.1349  0.9172
 8523TIP3    H247061   1.059   1.764   3.879 -1.1118 -0.7225  0.4754
 8524TIP3   OH247062   1.843   2.196   4.109  0.3198 -0.1891  0.0131
 8524TIP3    H147063   1.787   2.171   4.035 -0.4796 -2.1050  1.2371
 8524TIP3    H247064   1.873   2.113   4.146  0.4261  0.7184  2.0362
 8525TIP3   OH247065   4.961   0.221  12.714 -0.0161 -0.0557 -0.0483
 8525TIP3    H147066   4.946   0.312  12.689  0.7631 -0.1513 -0.8649
 8525TIP3    H247067   5.045   0.221  12.758  0.5034 -0.5579 -1.0284
 8526TIP3   OH247068   1.801   0.067  16.736  0.4536 -0.5394  0.4190
 8526TIP3    H147069   1.707   0.079  16.722  0.2744 -1.6124  0.6742
 8526TIP3    H247070   1.810  -0.022  16.770  1.6773 -0.8858 -0.7372
 8527TIP3   OH247071   3.634   5.423  16.878  0.3996 -0.1234 -0.1131
 8527TIP3    H147072   3.619   5.359  16.948 -1.4775  0.7896  0.3732
 8527TIP3    H247073   3.675   5.498  16.923  0.6967 -0.1791 -0.2915
 8528TIP3   OH247074   3.687   6.255   3.890 -0.3122 -0.0509 -0.2985
 8528TIP3    H147075   3.598   6.260   3.926 -0.8709  1.8129 -1.8336
 8528TIP3    H247076   3.736   6.321   3.938  0.0845 -0.6198  0.0855
 8529TIP3   OH247077   6.546   2.557   0.671 -0.4459 -0.0563 -0.5792
 8529TIP3    H147078   6.509   2.471   0.691  1.4024 -0.3075  2.0612
 8529TIP3    H247079   6.614   2.539   0.605  0.6586 -0.8115  0.7340
 8530TIP3   OH247080   3.477   1.628   3.757  0.5747  0.7266 -0.1387
 8530TIP3    H147081   3.394   1.620   3.710  0.5352  0.5555 -0.0402
 8530TIP3    H247082   3.533   1.679   3.698 -0.7652  4.0177  1.3813
 8531TIP3   OH247083   1.525   6.042  15.229 -0.0017 -0.3438  0.2345
 8531TIP3    H147084   1.577   5.968  15.199  0.2913 -0.2445  0.5059
 8531TIP3    H247085   1.587   6.099  15.274  0.0092  0.6342 -0.9816
 8532TIP3   OH247086   5.656   4.266  11.860 -0.2204 -0.0810  0.5057
 8532TIP3    H147087   5.592   4.218  11.807  0.6180  0.9125 -1.4536
 8532TIP3    H247088   5.697   4.327  11.799  1.8379  0.0560  1.9737
 8533TIP3   OH247089   4.406   1.343   6.228 -0.2107 -0.1988 -0.4512
 8533TIP3    H147090   4.370   1.431   6.220 -0.3819 -0.1216  0.9944
 8533TIP3    H247091   4.487   1.354   6.279 -0.1673 -0.8497 -0.3692
 8534TIP3   OH247092   3.213   1.669  15.614 -0.5395 -0.2373  1.1845
 8534TIP3    H147093   3.120   1.674  15.592 -0.1860 -0.1557 -0.3214
 8534TIP3    H247094   3.231   1.750  15.661 -0.5914  1.1001 -1.0317
 8535TIP3   OH247095   1.114   0.691  16.396 -0.1202  0.2040  0.4190
 8535TIP3    H147096   1.165   0.726  16.323  0.5830 -2.0279 -0.2075
 8535TIP3    H247097   1.033   0.658  16.356  0.5423 -1.6030  0.4916
 8536TIP3   OH247098   6.101   5.184   0.847 -0.3489  0.1954  0.1211
 8536TIP3    H147099   6.103   5.265   0.898 -0.8544 -0.0809  0.5854
 8536TIP3    H247100   6.019   5.141   0.873 -1.0670  0.4805 -1.5963
 8537TIP3   OH247101   3.444   4.421   4.010 -0.1245  0.4947  0.4325
 8537TIP3    H147102   3.354   4.453   4.003 -0.1840  0.3725  0.6584
 8537TIP3    H247103   3.493   4.476   3.949 -0.6165 -0.4567 -0.8484
 8538TIP3   OH247104   6.716   5.911  11.767 -0.3111  0.5888 -0.5962
 8538TIP3    H147105   6.736   5.886  11.676  0.3651 -2.4923  0.3542
 8538TIP3    H247106   6.802   5.923  11.807 -0.6165  2.6975 -0.5256
 8539TIP3   OH247107   1.282   5.739  17.160 -0.3950  0.1969  0.1975
 8539TIP3    H147108   1.264   5.832  17.148 -0.0357  0.2094 -0.2667
 8539TIP3    H247109   1.377   5.734  17.172 -0.4248 -0.0991  0.3208
 8540TIP3   OH247110   4.546   0.948  13.126  0.2759 -0.0379  0.0865
 8540TIP3    H147111   4.511   0.899  13.200 -1.0494 -1.2914 -1.3253
 8540TIP3    H247112   4.578   0.880  13.066  1.1494  0.9492 -0.5731
 8541TIP3   OH247113   2.456   2.999   0.415 -0.2155 -0.1237  0.1003
 8541TIP3    H147114   2.495   2.992   0.502 -1.9424 -1.0311  0.8184
 8541TIP3    H247115   2.399   3.076   0.420 -0.2086 -0.0947 -0.2710
 8542TIP3   OH247116   3.061   5.689   6.550  0.1897 -0.0681  0.2034
 8542TIP3    H147117   3.129   5.681   6.483  1.2823 -1.6076  1.4490
 8542TIP3    H247118   3.009   5.609   6.540 -0.8072  0.6209 -0.0731
 8543TIP3   OH247119   1.777   0.050   2.424 -0.4524 -0.6473 -0.0798
 8543TIP3    H147120   1.841   0.102   2.472  0.9091 -2.8817  0.6017
 8543TIP3    H247121   1.701   0.047   2.481 -1.0423  1.5911 -0.6707
 8544TIP3   OH247122   4.127   5.794  13.500  0.0047 -0.4975  0.4002
 8544TIP3    H147123   4.136   5.861  13.433 -0.2016 -1.4800 -0.6243
 8544TIP3    H247124   4.209   5.745  13.496  0.2796 -0.1128  1.3525
 8545TIP3   OH247125   3.187   3.101  11.310  0.0891  0.0862  0.1875
 8545TIP3    H147126   3.155   3.179  11.265 -0.6784  0.7048  1.7826
 8545TIP3    H247127   3.181   3.032  11.244 -2.7223  0.5869 -0.1516
 8546TIP3   OH247128   0.982   3.725   3.335 -0.1773 -0.2339  0.1725
 8546TIP3    H147129   1.044   3.677   3.280 -1.4714 -2.2365  0.4082
 8546TIP3    H247130   0.906   3.668   3.340 -0.1836 -0.0118  3.9035
 8547TIP3   OH247131   3.350   3.117   0.370 -0.2082 -0.0141 -0.5847
 8547TIP3    H147132   3.384   3.113   0.459  0.3973  0.3980 -0.8008
 8547TIP3    H247133   3.255   3.113   0.381 -0.1365  0.0156  0.0750
 8548TIP3   OH247134   1.090   0.992   0.282  0.0747 -0.3688 -0.0258
 8548TIP3    H147135   1.121   0.996   0.192 -0.0158 -0.4697 -0.0609
 8548TIP3    H247136   1.002   1.031   0.279  0.4529  0.5284  0.1868
 8549TIP3   OH247137   3.093   1.982   4.982  0.7185 -0.1056 -0.1659
 8549TIP3    H147138   3.032   2.040   5.027  1.7139  1.2917 -0.5830
 8549TIP3    H247139   3.128   1.925   5.051 -1.9619 -1.7479 -0.1297
 8550TIP3   OH247140   3.654   6.435   2.373  0.2206  0.2460 -0.3611
 8550TIP3    H147141   3.694   6.349   2.358 -0.2316  0.2574 -1.6575
 8550TIP3    H247142   3.640   6.438   2.468  1.7644 -0.4348 -0.0921
 8551TIP3   OH247143   0.748   1.421  11.326 -0.6084 -0.1070  0.2915
 8551TIP3    H147144   0.841   1.413  11.305 -0.4513  1.4122  0.3110
 8551TIP3    H247145   0.704   1.417  11.241 -0.5440 -1.0051  0.2978
 8552TIP3   OH247146   0.216   0.359   4.313 -0.0553 -0.3350  0.3542
 8552TIP3    H147147   0.203   0.265   4.327 -0.8061 -0.2642  0.1275
 8552TIP3    H247148   0.243   0.366   4.221  1.6306 -0.4810  0.8194
 8553TIP3   OH247149   1.369   3.679  12.532 -0.0288  0.0001  0.4057
 8553TIP3    H147150   1.415   3.605  12.493  0.5381  0.9214 -0.6737
 8553TIP3    H247151   1.287   3.684  12.484 -0.6261 -0.6827  1.3128
 8554TIP3   OH247152   3.257   1.709  13.186  0.4589  0.1296 -0.2227
 8554TIP3    H147153   3.173   1.749  13.211  0.2326 -0.1647 -0.5055
 8554TIP3    H247154   3.279   1.750  13.103  1.3158  1.2617  0.5504
 8555TIP3   OH247155   3.538   0.357  14.674 -0.2250 -0.3513 -0.2660
 8555TIP3    H147156   3.518   0.264  14.677  0.2761 -0.4470  0.2247
 8555TIP3    H247157   3.489   0.394  14.748  0.1837 -0.3433  0.0001
 8556TIP3   OH247158   3.203   1.423   6.490 -0.4371 -0.2824  0.5443
 8556TIP3    H147159   3.127   1.421   6.432  0.3144 -0.2574 -0.4451
 8556TIP3    H247160   3.186   1.355   6.554 -2.2028  0.9959  1.4806
 8557TIP3   OH247161   6.608   0.119  14.208 -0.2019 -0.0078 -0.3734
 8557TIP3    H147162   6.550   0.129  14.284 -0.5161 -0.3303 -0.5668
 8557TIP3    H247163   6.570   0.176  14.142  0.5240  0.8836 -0.0330
 8558TIP3   OH247164   4.807   5.598  16.463  0.2452  0.0752 -0.1304
 8558TIP3    H147165   4.773   5.647  16.388 -1.8617 -0.6715  0.2946
 8558TIP3    H247166   4.842   5.517  16.424  0.4264  0.3034 -0.4443
 8559TIP3   OH247167   0.210   4.270  14.270 -0.4708  0.8699 -0.4287
 8559TIP3    H147168   0.179   4.357  14.295  1.1858  1.5025 -0.4798
 8559TIP3    H247169   0.304   4.271  14.291 -0.4768 -0.9831 -0.2152
 8560TIP3   OH247170   3.296   2.746   3.664 -0.0653  0.6049  0.1330
 8560TIP3    H147171   3.352   2.820   3.645  1.9736 -0.8790  0.1538
 8560TIP3    H247172   3.286   2.700   3.581 -2.4779  1.6576 -0.1793
 8561TIP3   OH247173   4.489   3.822  12.158  0.1862 -0.1091 -0.2166
 8561TIP3    H147174   4.412   3.876  12.135  0.0314 -0.8600 -1.5080
 8561TIP3    H247175   4.562   3.884  12.157 -0.0688  0.1824 -1.1742
 8562TIP3   OH247176   2.294   3.230  15.321 -0.0553 -0.1286 -0.6054
 8562TIP3    H147177   2.213   3.180  15.333 -0.3308  0.4073 -0.2207
 8562TIP3    H247178   2.265   3.315  15.289  0.2793  0.3951  0.4614
 8563TIP3   OH247179   1.462   1.019  13.390  0.0005 -0.0093 -0.3085
 8563TIP3    H147180   1.371   1.043  13.403 -0.0488 -0.0960 -0.4945
 8563TIP3    H247181   1.471   1.005  13.295  0.0312 -0.6876 -0.2140
 8564TIP3   OH247182   5.099   1.142   5.320  0.6209 -0.7252  0.4955
 8564TIP3    H147183   5.172   1.134   5.381  1.6761  0.0122 -0.6450
 8564TIP3    H247184   5.072   1.233   5.327  1.5513 -0.3199 -1.0210
 8565TIP3   OH247185   0.284   0.986  14.009  0.8735  0.0313  0.3837
 8565TIP3    H147186   0.337   1.043  13.954  1.8670  1.8639  3.1390
 8565TIP3    H247187   0.197   1.027  14.010  0.5436 -0.6138 -0.6620
 8566TIP3   OH247188   3.606   4.384  16.297 -0.7368 -0.5223 -0.4077
 8566TIP3    H147189   3.549   4.459  16.313  0.6492  0.7732 -1.4714
 8566TIP3    H247190   3.604   4.372  16.202  1.3833  0.0136 -0.5252
 8567TIP3   OH247191   6.505   2.059   2.713 -0.4223 -0.0487 -0.3865
 8567TIP3    H147192   6.599   2.043   2.719 -0.5900 -0.5892  0.9963
 8567TIP3    H247193   6.465   1.974   2.732 -1.2085  0.4862  0.3952
 8568TIP3   OH247194   4.434   2.687  16.951  0.1078 -0.2209  0.8178
 8568TIP3    H147195   4.392   2.666  17.034  0.4848 -0.2090  1.0137
 8568TIP3    H247196   4.516   2.638  16.952  0.6761  0.7153  0.9802
 8569TIP3   OH247197   6.768   1.542   6.156  0.0446 -0.0061  0.3099
 8569TIP3    H147198   6.734   1.482   6.222 -1.0068  2.4430  2.0822
 8569TIP3    H247199   6.862   1.528   6.156  0.0192 -0.2340  2.1406
 8570TIP3   OH247200   6.560   2.251  16.598 -0.0054  0.7675  0.1186
 8570TIP3    H147201   6.587   2.212  16.681  2.1964  0.7060 -0.5964
 8570TIP3    H247202   6.542   2.175  16.541  1.4570  0.7885 -0.3822
 8571TIP3   OH247203   0.225   0.260  14.171  0.2495  0.6473 -0.8046
 8571TIP3    H147204   0.242   0.317  14.095  0.3653  0.6024 -0.8114
 8571TIP3    H247205   0.189   0.180  14.133  1.1837  0.2631 -0.8788
 8572TIP3   OH247206   3.689   6.611   6.253  0.2200  0.2125  0.9176
 8572TIP3    H147207   3.711   6.680   6.190  2.2023 -1.1637  0.0460
 8572TIP3    H247208   3.674   6.657   6.335 -1.0569  1.9143 -0.2327
 8573TIP3   OH247209   2.705   5.177   6.243 -0.0076  0.2057  0.0927
 8573TIP3    H147210   2.705   5.105   6.307  4.9657 -0.1100 -0.0739
 8573TIP3    H247211   2.678   5.254   6.294 -0.1028 -0.7920  1.5851
 8574TIP3   OH247212   6.549   2.406  10.965  0.0900  0.2062  0.0272
 8574TIP3    H147213   6.518   2.491  10.995 -1.2037 -0.1813 -0.1510
 8574TIP3    H247214   6.518   2.344  11.032 -1.3244 -0.4429 -1.1768
 8575TIP3   OH247215   0.954   6.615   0.498 -0.2308 -0.2334 -0.3568
 8575TIP3    H147216   0.951   6.539   0.441 -0.9265  0.0794 -0.7369
 8575TIP3    H247217   0.984   6.687   0.442  2.7183 -0.6994  0.5312
 8576TIP3   OH247218   0.863   5.820   5.675 -0.1289  0.3182  0.0634
 8576TIP3    H147219   0.907   5.765   5.740 -0.4095 -0.2347 -0.2149
 8576TIP3    H247220   0.775   5.783   5.668  0.8165 -1.5911 -2.9050
 8577TIP3   OH247221   5.730   0.758   0.094 -0.8717  0.0054  0.2676
 8577TIP3    H147222   5.751   0.851   0.094  4.0366 -0.9839 -0.0993
 8577TIP3    H247223   5.735   0.733   0.187  1.0555 -0.4598  0.0726
 8578TIP3   OH247224   4.588   6.165  17.055  0.5668  0.5818  0.1251
 8578TIP3    H147225   4.682   6.161  17.038  0.6888  0.5534  0.8196
 8578TIP3    H247226   4.574   6.106  17.128  0.1801  1.5045  0.8006
 8579TIP3   OH247227   3.526   2.670   5.728  0.6988 -0.3181  0.4559
 8579TIP3    H147228   3.564   2.757   5.736  0.0381  0.0455 -0.3384
 8579TIP3    H247229   3.463   2.677   5.656 -2.2435 -0.3964  2.8994
 8580TIP3   OH247230   2.020   2.073  16.634  0.7797  0.3907 -0.4530
 8580TIP3    H147231   1.958   2.025  16.580  0.7345  0.4789 -0.4767
 8580TIP3    H247232   2.104   2.030  16.619  0.5584 -0.3209  0.2975
 8581TIP3   OH247233   3.078   5.305   5.902  0.1680 -0.0064 -0.2100
 8581TIP3    H147234   3.049   5.251   5.976  1.6118 -0.1933  0.2515
 8581TIP3    H247235   3.037   5.390   5.917  1.1840  0.2436  1.3435
 8582TIP3   OH247236   1.923   4.602  14.019 -0.0947  0.4102 -0.3387
 8582TIP3    H147237   1.979   4.532  14.052  0.6361  0.6851 -0.9734
 8582TIP3    H247238   1.837   4.563  14.011 -0.3093  0.3693  1.9899
 8583TIP3   OH247239   0.566   3.287  15.463 -0.3667 -0.1255  0.1787
 8583TIP3    H147240   0.553   3.230  15.387 -0.2366  0.4282 -0.2588
 8583TIP3    H247241   0.628   3.353  15.433  0.5880 -0.5885  1.1277
 8584TIP3   OH247242   4.721   1.160   5.290  0.5548 -0.0238 -0.7107
 8584TIP3    H147243   4.774   1.147   5.211 -1.7940 -2.0594 -1.9994
 8584TIP3    H247244   4.694   1.072   5.316 -1.2853  0.8778  0.5450
 8585TIP3   OH247245   6.769   5.560   2.774 -0.3052  0.1919  0.1931
 8585TIP3    H147246   6.824   5.496   2.820 -1.4707 -0.6001  0.5149
 8585TIP3    H247247   6.822   5.588   2.700  0.7443 -0.1627  0.8080
 8586TIP3   OH247248   1.490   2.268  11.678  0.1765 -0.1577  0.0347
 8586TIP3    H147249   1.576   2.246  11.714  0.7427  1.9342  0.0308
 8586TIP3    H247250   1.428   2.244  11.747  0.9635  0.3847  0.9487
 8587TIP3   OH247251   6.202   5.836   6.657 -0.1529 -0.7599  0.1175
 8587TIP3    H147252   6.231   5.849   6.747  1.0146  0.3887 -0.4015
 8587TIP3    H247253   6.122   5.784   6.665  0.3240 -1.2761  1.7660
 8588TIP3   OH247254   5.964   4.780   0.876 -0.0190 -0.6161 -0.1659
 8588TIP3    H147255   5.889   4.830   0.843  1.0162  0.6458 -0.6647
 8588TIP3    H247256   5.992   4.728   0.800  0.9744  0.5962 -0.6477
 8589TIP3   OH247257   3.219   4.914  16.249  0.1268  0.3082  0.5180
 8589TIP3    H147258   3.269   4.995  16.251  0.9521 -0.0780 -2.2905
 8589TIP3    H247259   3.275   4.850  16.292  0.1084  0.8761  1.4041
 8590TIP3   OH247260   2.411   2.861  11.310  0.2080  0.2998  0.1283
 8590TIP3    H147261   2.352   2.868  11.235  0.3287  2.3018  0.1831
 8590TIP3    H247262   2.493   2.828  11.273 -0.3074 -0.5597 -0.2782
 8591TIP3   OH247263   4.859   2.892  13.477 -0.2058  0.1274  0.4913
 8591TIP3    H147264   4.954   2.897  13.463 -0.1950 -0.0769  0.4900
 8591TIP3    H247265   4.832   2.813  13.431 -0.1628 -0.5733  1.6378
 8592TIP3   OH247266   0.374   3.407  12.397  0.5312  0.8811 -0.1876
 8592TIP3    H147267   0.340   3.451  12.476 -1.2767 -1.5766  0.4586
 8592TIP3    H247268   0.343   3.462  12.325  0.0218  1.7813  0.6943
 8593TIP3   OH247269   2.859   2.691  13.076 -0.0230 -0.1060 -0.0821
 8593TIP3    H147270   2.926   2.747  13.035  1.3275  0.0575  2.2756
 8593TIP3    H247271   2.813   2.749  13.136 -1.9663 -0.3625 -1.2813
 8594TIP3   OH247272   6.368   4.326   1.453  0.2034 -0.1394 -0.2828
 8594TIP3    H147273   6.450   4.281   1.471  0.4078 -0.0708 -1.0246
 8594TIP3    H247274   6.301   4.259   1.466  0.4701 -0.5313 -0.9125
 8595TIP3   OH247275   6.198   6.229   6.808  0.5231  0.1321 -0.0739
 8595TIP3    H147276   6.247   6.311   6.799  1.3912 -0.5123 -1.4703
 8595TIP3    H247277   6.172   6.208   6.718  0.8338 -1.4384  0.1981
 8596TIP3   OH247278   3.376   0.146  11.862 -0.1327  0.1586 -0.1259
 8596TIP3    H147279   3.318   0.152  11.938 -0.4872 -0.4186 -0.3522
 8596TIP3    H247280   3.464   0.160  11.898 -0.0477 -2.3586  0.7807
 8597TIP3   OH247281   1.149   5.237  16.715  0.3543 -0.2198 -1.2448
 8597TIP3    H147282   1.175   5.145  16.725 -0.1725 -0.4936 -2.3215
 8597TIP3    H247283   1.135   5.268  16.805 -1.3152 -1.7344 -0.9386
 8598TIP3   OH247284   5.426   6.640   6.030 -0.0179  0.1793 -0.1860
 8598TIP3    H147285   5.496   6.667   6.090  0.3763  0.7339 -0.8783
 8598TIP3    H247286   5.391   6.559   6.067  0.7634  0.0879  0.3502
 8599TIP3   OH247287   4.520   3.385   0.406  0.1774  0.4900  0.0155
 8599TIP3    H147288   4.494   3.328   0.479  2.8806  1.9686  2.2124
 8599TIP3    H247289   4.443   3.440   0.391 -1.4079 -1.6982 -0.1645
 8600TIP3   OH247290   0.600   2.333   0.176 -0.3639 -0.4466  0.1180
 8600TIP3    H147291   0.576   2.416   0.135  1.2707 -0.2257 -0.4134
 8600TIP3    H247292   0.548   2.268   0.129 -1.0555  0.1742  0.0068
 8601TIP3   OH247293   0.517   4.709  11.226 -0.3809 -0.1899  0.1345
 8601TIP3    H147294   0.558   4.623  11.215  0.2843  0.2839 -1.1858
 8601TIP3    H247295   0.441   4.707  11.168 -0.4720  0.0460  0.2452
 8602TIP3   OH247296   4.465   5.723  11.655  0.1880  0.1446  0.0095
 8602TIP3    H147297   4.546   5.775  11.661 -0.9682  2.1006 -0.7762
 8602TIP3    H247298   4.479   5.665  11.580  0.5440  1.0744 -0.6580
 8603TIP3   OH247299   4.729   6.649   6.492  0.4347  0.0766 -0.2380
 8603TIP3    H147300   4.745   6.656   6.586  0.4798 -2.3535 -0.0426
 8603TIP3    H247301   4.634   6.649   6.484  0.4300 -0.3493 -0.1524
 8604TIP3   OH247302   5.310   0.049  13.368  0.3870 -0.0134 -0.4093
 8604TIP3    H147303   5.338  -0.039  13.392  0.7392  0.4288  0.8352
 8604TIP3    H247304   5.387   0.088  13.326 -0.0017 -0.5401 -1.6364
 8605TIP3   OH247305   1.808   4.668  15.816 -0.1683  0.1721  0.1528
 8605TIP3    H147306   1.875   4.641  15.753 -0.3639  0.0178  0.0075
 8605TIP3    H247307   1.725   4.643  15.774 -0.4136  1.7548 -0.3784
 8606TIP3   OH247308   0.870   1.495  10.843  0.0015  0.4380  0.1555
 8606TIP3    H147309   0.796   1.451  10.801 -0.3147 -0.0368  1.1733
 8606TIP3    H247310   0.846   1.587  10.845 -0.7996  0.2265  0.9109
 8607TIP3   OH247311   1.281   0.159  13.097  0.4251 -0.2101  0.4327
 8607TIP3    H147312   1.190   0.186  13.103  0.7355  1.1126 -0.6303
 8607TIP3    H247313   1.278   0.069  13.065 -0.4817 -0.0433  0.0402
 8608TIP3   OH247314   1.598   0.404  11.592  0.3408 -0.0117 -0.1653
 8608TIP3    H147315   1.532   0.387  11.660 -0.2703  1.8245 -0.2620
 8608TIP3    H247316   1.644   0.320  11.581 -1.7953 -1.2605  0.1014
 8609TIP3   OH247317   4.509   2.233   1.593  0.4111 -0.0851  0.0637
 8609TIP3    H147318   4.479   2.150   1.631  0.2368 -0.3641 -0.6599
 8609TIP3    H247319   4.589   2.254   1.640  1.1003 -1.2804 -0.5584
 8610TIP3   OH247320   2.091   4.135  12.466 -0.0707  0.5238 -0.2469
 8610TIP3    H147321   2.034   4.210  12.449  1.0063  1.1720 -1.0181
 8610TIP3    H247322   2.045   4.085  12.534 -1.8035  0.7647 -1.2127
 8611TIP3   OH247323   0.390   0.309  15.970  0.0941  0.0471 -0.0121
 8611TIP3    H147324   0.436   0.282  16.049 -1.3822  0.1121  0.8883
 8611TIP3    H247325   0.300   0.323  15.998  0.0724  2.5404 -1.1635
 8612TIP3   OH247326   6.656   6.376  12.313 -0.4007 -0.0931 -0.0799
 8612TIP3    H147327   6.669   6.463  12.275  0.5145  0.6871  1.9768
 8612TIP3    H247328   6.708   6.318  12.257 -2.2617  0.3995 -2.3963
 8613TIP3   OH247329   0.769   1.031  16.861  0.6859 -0.4270 -0.2688
 8613TIP3    H147330   0.754   0.937  16.860  2.0631 -0.6642 -1.8027
 8613TIP3    H247331   0.692   1.068  16.905  0.5819 -2.3211  1.1765
 8614TIP3   OH247332   3.526   6.585  13.136 -0.2083 -0.2053 -0.4659
 8614TIP3    H147333   3.441   6.569  13.095 -0.3963  1.2910 -0.7069
 8614TIP3    H247334   3.543   6.506  13.187 -1.9265 -0.3722 -0.0947
 8615TIP3   OH247335   0.660   6.217   4.741  0.0565  0.0434 -0.2822
 8615TIP3    H147336   0.583   6.274   4.742  0.5965  0.7714  0.0456
 8615TIP3    H247337   0.729   6.271   4.703  0.4312 -0.5879 -0.5143
 8616TIP3   OH247338   3.900   5.328  11.246 -0.4880  0.0864 -0.0336
 8616TIP3    H147339   3.967   5.397  11.239  1.1299 -1.6583 -2.5049
 8616TIP3    H247340   3.947   5.247  11.226 -2.8678 -1.4858  0.5593
 8617TIP3   OH247341   5.194   5.074  10.205 -0.2065 -0.1886  0.4490
 8617TIP3    H147342   5.152   5.054  10.122  0.0683  2.6382 -0.4480
 8617TIP3    H247343   5.122   5.101  10.262 -0.1180  0.3074  0.3285
 8618TIP3   OH247344   3.070   1.446  15.443  0.5390  0.1781 -0.0109
 8618TIP3    H147345   3.165   1.441  15.437  0.6281 -0.4200  1.5612
 8618TIP3    H247346   3.052   1.437  15.537 -1.0723  0.0586 -0.3235
 8619TIP3   OH247347   0.119   6.243   3.111  0.6891 -0.1544 -0.3154
 8619TIP3    H147348   0.169   6.301   3.054  0.7776 -0.1515 -0.2350
 8619TIP3    H247349   0.133   6.278   3.199  2.3915 -1.4907 -0.0315
 8620TIP3   OH247350   1.059   0.569  11.216 -0.2643 -0.2178 -0.3519
 8620TIP3    H147351   1.153   0.560  11.203 -0.4562 -1.5774 -0.8281
 8620TIP3    H247352   1.051   0.610  11.302  0.7182 -2.3618  0.8027
 8621TIP3   OH247353   5.832   4.920   4.512 -0.0882  0.1953 -0.1280
 8621TIP3    H147354   5.910   4.885   4.469 -1.1209 -0.1220 -1.8090
 8621TIP3    H247355   5.860   5.004   4.548  1.0292  0.0902 -0.7355
 8622TIP3   OH247356   3.547   5.908   2.144  0.1410 -0.0478 -1.0250
 8622TIP3    H147357   3.455   5.888   2.158 -0.0307  1.7201  0.5268
 8622TIP3    H247358   3.593   5.858   2.211  0.2727 -0.4041 -1.3757
 8623TIP3   OH247359   5.179   1.225  15.615  0.0193  0.2027 -0.4739
 8623TIP3    H147360   5.113   1.276  15.662  0.5347  0.5694 -0.1577
 8623TIP3    H247361   5.134   1.143  15.594  0.3700 -0.8101  2.4239
 8624TIP3   OH247362   2.558   4.873  12.151 -0.2071  0.5312  0.0430
 8624TIP3    H147363   2.466   4.876  12.179 -0.6428 -0.0650 -1.2800
 8624TIP3    H247364   2.570   4.956  12.104  0.5390  1.5572  1.9822
 8625TIP3   OH247365   6.776   4.019   3.627 -0.4032  0.2500  0.1777
 8625TIP3    H147366   6.768   3.932   3.589 -0.4108 -0.1118  0.9874
 8625TIP3    H247367   6.860   4.018   3.673 -0.0225  0.9437 -0.4772
 8626TIP3   OH247368   4.321   2.257   3.349  0.4342  0.1168  0.0624
 8626TIP3    H147369   4.277   2.172   3.344 -0.1201  0.3865  0.2924
 8626TIP3    H247370   4.290   2.295   3.431 -2.1235  2.0398 -1.6972
 8627TIP3   OH247371   2.615   3.718   1.557  0.2641  0.3835 -0.2119
 8627TIP3    H147372   2.531   3.694   1.595 -0.1344  0.4805 -1.0262
 8627TIP3    H247373   2.601   3.714   1.462  0.5518  2.4942 -0.3620
 8628TIP3   OH247374   1.596   1.145  11.985 -0.4291 -0.7035 -0.8573
 8628TIP3    H147375   1.672   1.178  12.032 -0.6704 -0.3709 -0.6983
 8628TIP3    H247376   1.627   1.133  11.895  0.3237 -2.3583 -0.3911
 8629TIP3   OH247377   3.487   0.122   5.744  0.5353  0.3967 -0.0989
 8629TIP3    H147378   3.479   0.054   5.811 -0.0720  1.3936  0.8534
 8629TIP3    H247379   3.576   0.155   5.754  0.5550  0.3182 -0.0150
 8630TIP3   OH247380   0.252   1.055  15.397 -0.1678 -0.1814  0.3247
 8630TIP3    H147381   0.219   1.040  15.485 -1.6875 -2.3302 -0.5770
 8630TIP3    H247382   0.336   1.099  15.410 -1.4658  1.7336  2.7635
 8631TIP3   OH247383   6.221   3.974  13.249  0.0656  0.1434  0.0015
 8631TIP3    H147384   6.211   4.062  13.286  0.0774  0.6435 -1.1756
 8631TIP3    H247385   6.273   3.927  13.314  2.0468  1.6802 -0.4429
 8632TIP3   OH247386   1.762   5.580   1.659  0.0137 -0.7793  0.1340
 8632TIP3    H147387   1.793   5.668   1.679 -0.5820 -0.5895  0.2030
 8632TIP3    H247388   1.793   5.526   1.732 -0.7335 -0.3948  0.7306
 8633TIP3   OH247389   2.599   3.116  13.288  0.2200  0.5695 -0.5309
 8633TIP3    H147390   2.653   3.051  13.244  0.1426  0.7577 -0.9122
 8633TIP3    H247391   2.633   3.121  13.377 -0.6716 -1.0212 -0.0771
 8634TIP3   OH247392   5.212   3.003  12.558 -0.4767  0.6506 -0.2325
 8634TIP3    H147393   5.288   3.044  12.599 -2.0953  1.8612  1.6688
 8634TIP3    H247394   5.233   2.910  12.555  1.0047  0.9479  0.4717
 8635TIP3   OH247395   4.924   5.691   2.558 -0.1643 -0.0544 -0.4212
 8635TIP3    H147396   4.897   5.632   2.487 -1.9195  0.8755 -0.5399
 8635TIP3    H247397   4.862   5.763   2.555  2.2680  2.1179 -0.6242
 8636TIP3   OH247398   0.606   6.072  12.946 -0.0533 -0.0906 -0.8945
 8636TIP3    H147399   0.564   6.107  12.867  1.3576  0.2019 -1.5235
 8636TIP3    H247400   0.667   6.006  12.914  0.7295  0.2230 -0.0712
 8637TIP3   OH247401   3.217   5.063  16.710 -0.2012 -0.0470  0.5564
 8637TIP3    H147402   3.204   5.111  16.628  1.3802 -1.2180 -0.4331
 8637TIP3    H247403   3.175   4.978  16.695  3.1296 -1.6148 -0.4561
 8638TIP3   OH247404   1.913   3.758   2.054  0.4226  0.4531  0.0469
 8638TIP3    H147405   1.824   3.724   2.059  0.3165  0.7321  0.0557
 8638TIP3    H247406   1.914   3.833   2.114  0.5293  0.7475 -0.3213
 8639TIP3   OH247407   6.403   5.193   4.654  0.4283 -0.2360  0.4582
 8639TIP3    H147408   6.442   5.165   4.737 -0.2728  0.6389  1.0863
 8639TIP3    H247409   6.341   5.122   4.633  0.6481 -0.4895  0.6534
 8640TIP3   OH247410   3.530   2.667   4.390  0.0330 -0.6118  0.1137
 8640TIP3    H147411   3.532   2.634   4.480 -0.9667 -0.2215  0.2947
 8640TIP3    H247412   3.568   2.597   4.338  0.2627 -1.0043  0.8007
 8641TIP3   OH247413   0.568   2.443  12.701 -0.7804 -0.0162  0.4588
 8641TIP3    H147414   0.586   2.380  12.630 -0.8712  0.8527 -0.3499
 8641TIP3    H247415   0.635   2.510  12.690 -0.0300 -0.5054  1.9817
 8642TIP3   OH247416   5.029   2.400   0.329  0.1875  0.1839  0.4721
 8642TIP3    H147417   5.104   2.344   0.348 -0.2564 -0.4775  0.3141
 8642TIP3    H247418   4.957   2.338   0.312  0.2358  0.7422 -2.0044
 8643TIP3   OH247419   0.331   2.148   3.748  0.0062 -0.0262 -0.1060
 8643TIP3    H147420   0.332   2.178   3.658  0.5887  1.2334  0.3017
 8643TIP3    H247421   0.345   2.054   3.743  0.6258  0.1235 -1.3050
 8644TIP3   OH247422   3.202   5.162  14.862 -0.1406  0.8328  0.1470
 8644TIP3    H147423   3.136   5.130  14.800 -0.0783 -0.1362  0.5760
 8644TIP3    H247424   3.181   5.118  14.944  1.8371 -0.5024 -0.0326
 8645TIP3   OH247425   0.739   3.837   4.560  0.7816 -0.0548 -0.8489
 8645TIP3    H147426   0.785   3.775   4.504  1.1331 -1.5023  0.9725
 8645TIP3    H247427   0.788   3.919   4.550  2.2340 -0.8962 -0.8928
 8646TIP3   OH247428   6.268   2.096   2.370 -0.7272 -0.1870  0.5415
 8646TIP3    H147429   6.328   2.130   2.437 -1.7620  0.4435  1.1671
 8646TIP3    H247430   6.181   2.118   2.403 -1.2745 -0.3717 -0.7480
 8647TIP3   OH247431   0.371   2.859   3.473  0.2654 -0.6565  0.0632
 8647TIP3    H147432   0.444   2.816   3.517  0.5676  0.2024  0.4088
 8647TIP3    H247433   0.293   2.815   3.507  0.6223 -1.6367 -0.3800
 8648TIP3   OH247434   6.810   2.238   0.847 -0.2132  0.7207 -0.1722
 8648TIP3    H147435   6.750   2.304   0.881 -0.5988 -0.3006  1.1698
 8648TIP3    H247436   6.754   2.162   0.829  0.6255 -0.1510  0.8350
 8649TIP3   OH247437   4.682   2.075  16.216  0.2368 -0.7729  0.3437
 8649TIP3    H147438   4.662   2.017  16.290  1.0088  0.1309  1.2680
 8649TIP3    H247439   4.769   2.048  16.188  0.2611 -0.5912  0.2488
 8650TIP3   OH247440   2.774   1.686  10.822  0.0798  0.0983 -0.3489
 8650TIP3    H147441   2.854   1.654  10.863 -1.3439 -0.3735  2.1228
 8650TIP3    H247442   2.732   1.739  10.889 -0.5420  2.3268 -2.4223
 8651TIP3   OH247443   1.675   2.786  12.029  0.4447  0.1542  0.1794
 8651TIP3    H147444   1.767   2.805  12.014  0.6152  0.0049  0.9796
 8651TIP3    H247445   1.669   2.771  12.124 -0.9809  3.3446  0.6572
 8652TIP3   OH247446   5.175   3.454  11.473  0.0101  0.1797  0.2078
 8652TIP3    H147447   5.087   3.444  11.510  0.0795 -0.6837  0.1585
 8652TIP3    H247448   5.163   3.508  11.395 -0.4866  0.0127  0.1688
 8653TIP3   OH247449   1.893   1.679   0.860  0.6954  0.0067 -0.5369
 8653TIP3    H147450   1.934   1.761   0.887  1.5513 -0.8189  0.6906
 8653TIP3    H247451   1.826   1.662   0.926  0.6075 -0.3581 -0.7171
 8654TIP3   OH247452   3.810   0.641   6.546 -0.1980  0.1775 -0.3053
 8654TIP3    H147453   3.888   0.689   6.519  0.4382 -0.1990  0.8674
 8654TIP3    H247454   3.744   0.709   6.561  1.1169  0.8214  2.7360
 8655TIP3   OH247455   0.585   3.393   3.160  0.5668  0.3847  0.4479
 8655TIP3    H147456   0.580   3.390   3.065  0.3454 -2.3025  0.5260
 8655TIP3    H247457   0.493   3.399   3.188  0.5990  0.5934  0.5090
 8656TIP3   OH247458   5.794   4.952   0.542  0.5580 -0.1123  0.3116
 8656TIP3    H147459   5.878   4.927   0.505  0.9505  1.5834  0.0091
 8656TIP3    H247460   5.732   4.943   0.469  0.3971 -1.6832  0.6231
 8657TIP3   OH247461   0.567   0.489  11.251  0.4327 -0.2005  0.0947
 8657TIP3    H147462   0.549   0.555  11.184 -0.6244 -0.8984 -0.3323
 8657TIP3    H247463   0.652   0.452  11.226 -0.6058 -1.4576 -1.7243
 8658TIP3   OH247464   6.176   2.017  12.848 -0.3941 -0.2449 -0.0967
 8658TIP3    H147465   6.210   2.016  12.938  0.6223 -2.1468 -0.4795
 8658TIP3    H247466   6.228   2.084  12.803 -0.6216  0.4181  0.6080
 8659TIP3   OH247467   0.315   0.536   0.808  0.3329 -0.3617  0.7405
 8659TIP3    H147468   0.400   0.581   0.818 -1.1295  2.8439 -0.5468
 8659TIP3    H247469   0.311   0.512   0.716 -0.7322  0.7588  0.4860
 8660TIP3   OH247470   3.522   2.447   4.573  0.2487  0.1868  0.2840
 8660TIP3    H147471   3.505   2.449   4.667  0.7720 -1.2340  0.4221
 8660TIP3    H247472   3.469   2.374   4.541  0.4978  0.3247 -0.4405
 8661TIP3   OH247473   4.767   3.549   2.551 -0.2448  0.5390  0.8917
 8661TIP3    H147474   4.754   3.514   2.463  3.9428 -1.1073  0.7923
 8661TIP3    H247475   4.791   3.641   2.537 -4.0173  1.5558  0.6804
 8662TIP3   OH247476   6.379   6.804   4.423  0.6813  0.0226 -0.2200
 8662TIP3    H147477   6.388   6.882   4.368 -2.4530  0.5784 -0.0313
 8662TIP3    H247478   6.422   6.827   4.506  0.8439  1.0739 -0.5980
 8663TIP3   OH247479   2.639   5.642  15.945  0.0126  0.0949 -0.0562
 8663TIP3    H147480   2.730   5.642  15.915 -0.5362 -0.3906 -1.7425
 8663TIP3    H247481   2.631   5.723  15.996  1.1374  0.5915 -0.6407
 8664TIP3   OH247482   5.189   3.421  10.725 -0.4670 -1.0892 -0.0722
 8664TIP3    H147483   5.195   3.508  10.764  0.5655 -0.5334 -1.4536
 8664TIP3    H247484   5.096   3.410  10.706 -0.5098  0.0120 -0.5467
 8665TIP3   OH247485   6.699   1.944   0.074 -0.0890 -0.2165 -0.1597
 8665TIP3    H147486   6.723   1.930   0.166  0.1096  0.1491 -0.1573
 8665TIP3    H247487   6.770   1.904   0.025 -1.2982 -2.4400 -0.1716
 8666TIP3   OH247488   0.038   3.823  16.234 -0.4511 -0.2167  0.3244
 8666TIP3    H147489  -0.042   3.774  16.215  0.2319 -1.4808  0.6302
 8666TIP3    H247490   0.084   3.826  16.150  0.1318 -1.2763  0.5970
 8667TIP3   OH247491   5.023   6.729  11.703  0.3518  0.2417 -0.2382
 8667TIP3    H147492   4.972   6.806  11.727  0.2534 -0.1179  0.7360
 8667TIP3    H247493   4.969   6.655  11.730  1.6525 -0.1370  1.4127
 8668TIP3   OH247494   5.216   4.405  14.452  0.0286 -0.3109 -0.4430
 8668TIP3    H147495   5.246   4.348  14.381  1.8674 -0.0577  0.1137
 8668TIP3    H247496   5.291   4.460  14.472 -0.8855  0.4792  0.8574
 8669TIP3   OH247497   6.088   2.132   2.802 -0.2252 -0.5741  0.1828
 8669TIP3    H147498   6.177   2.166   2.792  0.1207 -1.6590 -0.4861
 8669TIP3    H247499   6.043   2.198   2.854  0.5400  0.7196 -0.7829
 8670TIP3   OH247500   1.845   4.967   1.946 -0.4805 -0.5193 -0.0500
 8670TIP3    H147501   1.885   4.880   1.952  0.2831 -0.3577 -2.3810
 8670TIP3    H247502   1.785   4.961   1.872  0.9838  1.4456 -1.4364
 8671TIP3   OH247503   0.376   0.851  16.046 -0.1963  0.3197  0.1396
 8671TIP3    H147504   0.370   0.945  16.063 -0.2614  0.1304  1.1992
 8671TIP3    H247505   0.345   0.810  16.127 -0.6770 -0.6146 -0.5099
 8672TIP3   OH247506   2.458   5.677   3.991  0.1137 -1.2357  0.5008
 8672TIP3    H147507   2.401   5.718   4.056  0.2297 -0.0727 -0.1177
 8672TIP3    H247508   2.482   5.748   3.932 -1.4442 -2.5967 -1.8883
 8673TIP3   OH247509   0.344   1.142   5.420  0.0726 -0.2976  0.5138
 8673TIP3    H147510   0.262   1.190   5.432  0.1785 -0.0644  0.3074
 8673TIP3    H247511   0.334   1.063   5.473 -0.1294 -0.0763  0.8067
 8674TIP3   OH247512   0.482   5.753   3.239 -0.3504 -0.4941 -0.3377
 8674TIP3    H147513   0.520   5.727   3.155 -1.4991  0.5410 -1.1990
 8674TIP3    H247514   0.390   5.728   3.232 -0.5317 -0.0547  0.4752
 8675TIP3   OH247515   3.132   0.609  16.791  0.0571 -0.2063  0.2570
 8675TIP3    H147516   3.052   0.625  16.842 -0.2821  0.8366 -0.5840
 8675TIP3    H247517   3.193   0.676  16.821  1.5456 -2.5318  2.7340
 8676TIP3   OH247518   0.172   4.052  11.349 -0.1549 -0.6402 -0.2083
 8676TIP3    H147519   0.209   4.051  11.261 -0.8294 -0.3094 -0.4942
 8676TIP3    H247520   0.235   4.103  11.401 -1.4897  2.1706 -1.2693
 8677TIP3   OH247521   1.041   3.716  12.235 -0.0966 -0.3852  0.0918
 8677TIP3    H147522   1.043   3.697  12.329  1.2124 -3.2547 -0.4702
 8677TIP3    H247523   1.120   3.769  12.221 -0.6921  0.6981  0.6962
 8678TIP3   OH247524   4.209   0.149   0.913  0.2209 -0.2948  0.0478
 8678TIP3    H147525   4.248   0.099   0.984 -0.0994 -1.4503 -0.5827
 8678TIP3    H247526   4.268   0.137   0.839  1.1314  1.7979  0.3933
 8679TIP3   OH247527   4.046   4.122  11.153 -0.3570  0.3134  0.1464
 8679TIP3    H147528   4.129   4.155  11.186 -0.7559  1.3456  0.1479
 8679TIP3    H247529   4.069   4.069  11.077  0.5998 -2.2872  2.1710
 8680TIP3   OH247530   3.736   2.348  15.351 -0.4534  0.1241 -0.1239
 8680TIP3    H147531   3.787   2.267  15.358  0.2646  0.6114  0.3166
 8680TIP3    H247532   3.727   2.378  15.441  0.1450  1.0739 -0.3805
 8681TIP3   OH247533   4.205   5.407   0.102  0.6800 -0.2986  0.0342
 8681TIP3    H147534   4.249   5.460   0.036 -3.0543  0.6899 -1.8461
 8681TIP3    H247535   4.142   5.468   0.143 -0.2545 -2.0457  1.2625
 8682TIP3   OH247536   1.028   0.979  16.969  0.2252 -0.1203  0.4041
 8682TIP3    H147537   0.944   0.980  16.924  0.0292 -0.3609  0.7660
 8682TIP3    H247538   1.016   0.919  17.042  0.4382  0.5680  1.0040
 8683TIP3   OH247539   6.738   0.267   6.225 -0.6212 -0.2529  0.0114
 8683TIP3    H147540   6.759   0.342   6.280 -1.4112 -1.3259  1.8368
 8683TIP3    H247541   6.816   0.253   6.172  0.5483  0.2166  1.5728
 8684TIP3   OH247542   4.481   6.356   5.115 -0.7550 -0.1219  0.0159
 8684TIP3    H147543   4.508   6.274   5.157 -0.2695  0.3344  0.6090
 8684TIP3    H247544   4.560   6.411   5.116 -1.0404  0.3026 -0.5017
 8685TIP3   OH247545   4.019   5.835   4.545  0.1368 -0.9150  0.2216
 8685TIP3    H147546   4.037   5.758   4.598  2.0957  0.6648  1.9288
 8685TIP3    H247547   4.046   5.810   4.456  2.5095 -1.5942  1.0987
 8686TIP3   OH247548   5.912   5.891  12.262  0.1591 -0.1997 -0.1657
 8686TIP3    H147549   5.878   5.974  12.228  1.2879 -0.5686 -2.2413
 8686TIP3    H247550   6.007   5.897  12.252  0.4618 -0.7608  1.9918
 8687TIP3   OH247551   4.394   3.291  15.525 -0.2950 -0.3113  0.1579
 8687TIP3    H147552   4.482   3.328  15.523 -0.3830 -0.0296  1.2958
 8687TIP3    H247553   4.398   3.224  15.593 -0.2012 -2.2604 -1.7224
 8688TIP3   OH247554   0.272   4.820   5.978 -0.3672 -0.4284 -0.1819
 8688TIP3    H147555   0.246   4.754   5.914  0.9684 -1.5983  0.4641
 8688TIP3    H247556   0.192   4.840   6.026 -0.8333 -1.3556 -0.5710
 8689TIP3   OH247557   1.132   0.568   5.399  0.1684 -0.3794 -0.2677
 8689TIP3    H147558   1.208   0.621   5.374 -0.0119  1.2184  2.3332
 8689TIP3    H247559   1.169   0.483   5.422  1.1170  0.1838  0.3438
 8690TIP3   OH247560   2.410   6.153   0.880 -0.4911 -0.2023 -0.1139
 8690TIP3    H147561   2.405   6.245   0.854 -0.8305 -0.5995 -1.5035
 8690TIP3    H247562   2.500   6.127   0.860 -0.1219  0.0623  1.1424
 8691TIP3   OH247563   3.661   3.135  15.261 -0.4738 -0.2411  0.3612
 8691TIP3    H147564   3.683   3.215  15.308 -0.2734 -0.6525  0.9799
 8691TIP3    H247565   3.695   3.064  15.317 -0.6371 -0.7520 -0.1805
 8692TIP3   OH247566   3.154   6.415  17.245 -0.9140 -0.1819 -0.2777
 8692TIP3    H147567   3.236   6.398  17.291 -1.1185 -1.5054 -0.3766
 8692TIP3    H247568   3.121   6.497  17.283 -0.7448 -0.8911  1.4499
 8693TIP3   OH247569   6.472   4.292  10.804  0.0406 -0.2597  0.3651
 8693TIP3    H147570   6.424   4.211  10.822 -3.8396  2.2066  1.8042
 8693TIP3    H247571   6.483   4.293  10.709 -1.3971 -1.6827  0.1655
 8694TIP3   OH247572   6.441   2.259   2.507  0.5142 -0.3369 -0.3016
 8694TIP3    H147573   6.394   2.338   2.480 -2.0179 -2.5241 -2.6520
 8694TIP3    H247574   6.422   2.251   2.601 -1.4933  0.3907 -0.6161
 8695TIP3   OH247575   3.531   6.037   5.458  0.6127 -0.5931  0.2968
 8695TIP3    H147576   3.512   6.015   5.368  1.4666 -0.6115  0.1126
 8695TIP3    H247577   3.481   5.974   5.510 -0.4621 -0.1157 -0.1430
 8696TIP3   OH247578   3.906   5.916   5.757 -0.3795  0.6011 -0.7913
 8696TIP3    H147579   3.844   5.988   5.753 -0.1471  0.8505  0.0351
 8696TIP3    H247580   3.852   5.837   5.766 -0.6679  0.5844 -2.5329
 8697TIP3   OH247581   2.485   5.715   3.330 -0.6687 -0.4350 -0.2904
 8697TIP3    H147582   2.557   5.731   3.270  0.0614  0.9656  0.9077
 8697TIP3    H247583   2.494   5.623   3.355  0.6929 -0.2847 -0.1752
 8698TIP3   OH247584   1.803   5.334   4.564  0.3362 -0.8131  0.0475
 8698TIP3    H147585   1.808   5.420   4.605 -3.0899  0.6768 -2.4201
 8698TIP3    H247586   1.725   5.293   4.601  1.6670 -2.7154  0.8550
 8699TIP3   OH247587   3.155   5.168   2.533 -0.0695  0.0906 -0.1661
 8699TIP3    H147588   3.201   5.085   2.541  0.4157  0.0594 -3.0453
 8699TIP3    H247589   3.120   5.169   2.444 -3.0180  1.4773  0.9186
 8700TIP3   OH247590   6.792   5.540  17.121  0.3573  0.3787  0.0972
 8700TIP3    H147591   6.834   5.540  17.035  1.5736 -1.5824  0.6596
 8700TIP3    H247592   6.722   5.474  17.114 -0.1291  0.8652  0.3388
 8701TIP3   OH247593   2.628   4.198  12.462  0.0684  0.5372  0.1716
 8701TIP3    H147594   2.674   4.117  12.441 -0.7206  0.1056  0.0565
 8701TIP3    H247595   2.695   4.266  12.459  1.2308 -0.4285  2.6102
 8702TIP3   OH247596   0.745   4.249   1.213  0.0628 -0.1892  0.6413
 8702TIP3    H147597   0.838   4.267   1.230  0.0947  3.0002 -2.3378
 8702TIP3    H247598   0.704   4.251   1.300  2.0888  2.8717  1.6131
 8703TIP3   OH247599   5.695   5.653   1.546  0.0237 -0.0833 -0.2169
 8703TIP3    H147600   5.665   5.668   1.636 -1.3865 -1.9006 -0.3523
 8703TIP3    H247601   5.780   5.610   1.556 -0.2359 -0.4967  0.2835
 8704TIP3   OH247602   3.765   3.722   6.000  0.1873 -0.0762 -0.4946
 8704TIP3    H147603   3.797   3.673   5.924  0.2478 -1.8156  0.6125
 8704TIP3    H247604   3.829   3.704   6.069 -0.1527  1.0459  0.1250
 8705TIP3   OH247605   6.613   3.400  13.607  0.2389  0.4192 -0.0210
 8705TIP3    H147606   6.657   3.459  13.546 -0.6134 -0.1966 -1.2599
 8705TIP3    H247607   6.525   3.438  13.617 -0.4462 -0.8354 -1.1388
 8706TIP3   OH247608   6.136   2.415  12.925  0.0819  0.1459 -0.3323
 8706TIP3    H147609   6.176   2.494  12.962  0.7548 -0.1440 -0.4368
 8706TIP3    H247610   6.210   2.359  12.901 -0.3825 -0.3203 -0.6967
 8707TIP3   OH247611   0.790   5.942  12.811 -0.0956  0.1312  0.5050
 8707TIP3    H147612   0.798   5.955  12.717  0.3164  1.3184  0.6928
 8707TIP3    H247613   0.811   5.850  12.825  1.2791  0.3006 -0.3909
 8708TIP3   OH247614   6.087   2.233   0.030 -0.4007 -0.5026  0.1615
 8708TIP3    H147615   5.998   2.231   0.066 -0.7215 -0.3615 -0.6019
 8708TIP3    H247616   6.140   2.188   0.094 -1.1303 -1.1029  0.3553
 8709TIP3   OH247617   4.253   5.156   4.137  1.1825 -0.0523 -0.1198
 8709TIP3    H147618   4.166   5.150   4.097  1.9949 -1.1010 -1.7565
 8709TIP3    H247619   4.269   5.069   4.174  1.2471  0.3533  0.8341
 8710TIP3   OH247620   0.037   0.973   4.403 -0.1862 -0.5005 -0.5897
 8710TIP3    H147621  -0.017   1.028   4.460 -0.4591  1.4563 -2.6165
 8710TIP3    H247622   0.123   1.014   4.405  0.6506 -2.2943  0.8699
 8711TIP3   OH247623   4.771   1.398  13.698  0.4178  0.3919  0.4551
 8711TIP3    H147624   4.816   1.348  13.766 -1.0911 -0.4810  0.8196
 8711TIP3    H247625   4.683   1.361  13.694 -0.2295  1.9557 -0.3891
 8712TIP3   OH247626   4.945   4.668   1.810  0.1472 -0.1827 -0.2583
 8712TIP3    H147627   4.940   4.754   1.770 -1.9886 -0.4965 -0.7360
 8712TIP3    H247628   4.977   4.611   1.740 -1.1912 -0.2777 -0.8140
 8713TIP3   OH247629   1.870   2.319   6.132 -0.1619 -0.0841  0.1411
 8713TIP3    H147630   1.931   2.324   6.205 -0.4701 -0.6419  0.4386
 8713TIP3    H247631   1.857   2.226   6.117  1.8961 -0.0218 -2.3163
 8714TIP3   OH247632   0.310   0.816  14.574  0.5958 -0.4681  0.6710
 8714TIP3    H147633   0.217   0.823  14.551  0.4102  0.0698  1.5787
 8714TIP3    H247634   0.338   0.906  14.586  0.5327 -0.7609  3.1887
 8715TIP3   OH247635   3.642   1.886  13.848 -0.3601  0.0225 -0.4671
 8715TIP3    H147636   3.713   1.924  13.797 -0.5730  0.9539 -0.0680
 8715TIP3    H247637   3.686   1.828  13.911  0.0979  1.1928  0.2946
 8716TIP3   OH247638   3.065   1.564  12.800 -0.0608 -0.1435 -0.6078
 8716TIP3    H147639   3.055   1.647  12.846 -1.2892  0.2252 -1.5083
 8716TIP3    H247640   3.159   1.550  12.795  0.1203  0.5382  0.7116
 8717TIP3   OH247641   5.507   6.500   5.070 -0.0027  0.3103 -0.0174
 8717TIP3    H147642   5.584   6.458   5.109  0.4886  3.7227  2.8824
 8717TIP3    H247643   5.448   6.427   5.052  2.2741 -1.9919  1.4434
 8718TIP3   OH247644   0.881   2.243   6.576 -0.3497  0.3944  0.4907
 8718TIP3    H147645   0.951   2.201   6.625 -1.2852  0.2165  1.6696
 8718TIP3    H247646   0.900   2.337   6.583 -0.3518  0.3569  0.9786
 8719TIP3   OH247647   3.947   4.383   0.563  0.3482  0.7354 -0.1095
 8719TIP3    H147648   3.936   4.363   0.470 -1.1453 -0.7636  0.3821
 8719TIP3    H247649   3.859   4.380   0.599  0.9927  0.7206  1.4976
 8720TIP3   OH247650   5.877   0.669  16.704 -0.3742 -0.3831 -0.4701
 8720TIP3    H147651   5.948   0.731  16.723  0.3195 -1.5925  0.9102
 8720TIP3    H247652   5.913   0.613  16.635  0.0758 -1.0592  0.2977
 8721TIP3   OH247653   0.113   1.682   1.498  0.3622  0.0356 -0.1772
 8721TIP3    H147654   0.030   1.639   1.517 -1.2295  3.9558  2.4525
 8721TIP3    H247655   0.172   1.652   1.568  0.4931 -0.9926 -0.7230
 8722TIP3   OH247656   6.017   3.076   5.726  0.1788  0.1472  0.1101
 8722TIP3    H147657   6.042   3.160   5.763 -1.1782  0.5043  0.2649
 8722TIP3    H247658   6.093   3.048   5.674  1.3110  0.5911  1.5130
 8723TIP3   OH247659   1.318   0.955   3.496 -0.3117  0.0926 -0.6065
 8723TIP3    H147660   1.371   0.922   3.568 -1.0627  1.5277  0.6283
 8723TIP3    H247661   1.313   0.881   3.435  1.2195 -0.7916  0.2936
 8724TIP3   OH247662   4.415   1.529   4.548  0.7279  0.4160 -0.1125
 8724TIP3    H147663   4.403   1.499   4.458 -0.3178  0.4884  0.0004
 8724TIP3    H247664   4.465   1.459   4.591 -0.1670 -0.3537 -0.3201
 8725TIP3   OH247665   5.038   5.402  16.503  0.5787 -0.1543  0.2975
 8725TIP3    H147666   4.973   5.373  16.567 -0.4741  0.4904 -0.4608
 8725TIP3    H247667   5.118   5.354  16.526  0.1673 -0.0676  1.9777
 8726TIP3   OH247668   1.813   5.512   4.878  0.0877  0.8125 -0.0599
 8726TIP3    H147669   1.862   5.540   4.801 -1.1238 -0.1921 -1.2257
 8726TIP3    H247670   1.723   5.536   4.859 -0.5675 -1.5061  0.0428
 8727TIP3   OH247671   3.205   1.923   1.145  0.4000 -0.5318 -0.2962
 8727TIP3    H147672   3.176   1.981   1.216  1.6012  0.7694 -0.8682
 8727TIP3    H247673   3.261   1.977   1.090  0.9445 -2.0339 -1.2548
 8728TIP3   OH247674   1.340   5.057   4.288  0.1902  0.1399  0.0148
 8728TIP3    H147675   1.254   5.071   4.247 -0.3829 -1.2210  0.7139
 8728TIP3    H247676   1.331   4.973   4.333  2.1354 -0.3814 -0.5186
 8729TIP3   OH247677   2.911   1.672  12.001 -0.1468  0.5802 -0.0188
 8729TIP3    H147678   2.898   1.589  12.047 -0.6853 -0.0711 -1.3180
 8729TIP3    H247679   3.005   1.687  12.004 -0.0822  0.0969  0.5088
 8730TIP3   OH247680   6.679   0.875  13.087 -0.0153  0.3352  0.7453
 8730TIP3    H147681   6.584   0.887  13.081 -0.1093 -0.3730  0.8671
 8730TIP3    H247682   6.707   0.944  13.148 -0.3602  0.9646  0.2015
 8731TIP3   OH247683   1.062   5.723  14.193 -0.0882 -0.1967 -0.4728
 8731TIP3    H147684   0.973   5.693  14.176 -0.1762 -1.2305  1.6598
 8731TIP3    H247685   1.112   5.642  14.206  0.3847  0.4817  2.0500
 8732TIP3   OH247686   0.884   3.174   5.825  0.9502 -0.0028 -0.2642
 8732TIP3    H147687   0.887   3.269   5.814  0.4117  0.2256  1.5279
 8732TIP3    H247688   0.791   3.152   5.821  1.1901 -0.7837 -3.1241
 8733TIP3   OH247689   0.465   1.541  11.608 -0.4983 -0.2509 -0.4826
 8733TIP3    H147690   0.436   1.588  11.530 -0.1029 -0.8953 -1.0176
 8733TIP3    H247691   0.490   1.454  11.576 -0.6970 -0.6413  0.4152
 8734TIP3   OH247692   3.153   4.131   3.053 -0.2071 -0.0770 -0.3938
 8734TIP3    H147693   3.180   4.199   2.991 -2.8089 -0.8459 -2.4660
 8734TIP3    H247694   3.098   4.178   3.116 -1.7062 -0.1503 -1.6133
 8735TIP3   OH247695   0.797   0.065   1.457 -0.4817 -0.3014  0.4357
 8735TIP3    H147696   0.815   0.153   1.424  0.6439 -0.3365  0.9419
 8735TIP3    H247697   0.740   0.079   1.533  0.1543  0.0193  0.8513
 8736TIP3   OH247698   2.812   2.860  13.992 -0.0879 -0.3231 -0.1507
 8736TIP3    H147699   2.888   2.810  13.962 -1.2956 -0.2932 -3.4540
 8736TIP3    H247700   2.771   2.804  14.059  0.3282 -2.3631 -1.5687
 8737TIP3   OH247701   0.566   5.306  15.621 -0.0347  0.2237 -0.1152
 8737TIP3    H147702   0.509   5.342  15.553  1.6011 -0.1060 -1.7182
 8737TIP3    H247703   0.628   5.250  15.573  2.3798  1.5148  1.3899
 8738TIP3   OH247704   6.766   5.481   0.593  0.2305  0.4555 -0.0657
 8738TIP3    H147705   6.848   5.436   0.575  0.5899  1.4502 -0.9632
 8738TIP3    H247706   6.735   5.513   0.508 -1.3056 -0.2560  0.1979
 8739TIP3   OH247707   5.676   4.670   0.202 -0.4195  0.1497  0.1224
 8739TIP3    H147708   5.598   4.711   0.241 -1.1369 -0.3887 -0.7282
 8739TIP3    H247709   5.672   4.579   0.232 -0.9816 -0.2722 -1.2047
 8740TIP3   OH247710   4.638   0.347   5.660 -0.4378  0.6064  0.6188
 8740TIP3    H147711   4.697   0.388   5.722  0.9325 -0.6934  0.2080
 8740TIP3    H247712   4.694   0.287   5.610 -2.1811 -0.9905  0.5357
 8741TIP3   OH247713   4.661   1.236  15.067 -0.3472  0.0531  0.0457
 8741TIP3    H147714   4.654   1.178  15.143 -0.1443  0.5532  0.4447
 8741TIP3    H247715   4.749   1.220  15.033 -0.5043 -0.3065 -0.1968
 8742TIP3   OH247716   3.412   1.025   2.247  0.1126  0.4596  0.2963
 8742TIP3    H147717   3.480   1.073   2.293  0.5640 -0.2753  0.4063
 8742TIP3    H247718   3.454   0.943   2.219 -0.5698  0.2345 -0.1028
 8743TIP3   OH247719   2.482   3.838  12.040 -0.3075  0.1489 -0.2488
 8743TIP3    H147720   2.460   3.787  12.118  1.1213 -1.8094 -1.0929
 8743TIP3    H247721   2.398   3.870  12.008 -1.0620 -0.2836  1.2245
 8744TIP3   OH247722   4.188   5.336   1.454  0.0880 -0.1318 -0.2562
 8744TIP3    H147723   4.170   5.369   1.543 -1.3623 -0.1171 -0.5437
 8744TIP3    H247724   4.283   5.344   1.444  0.1534  0.7049  0.9698
 8745TIP3   OH247725   4.555   5.144  13.973  0.2087 -0.8246  0.1543
 8745TIP3    H147726   4.618   5.082  13.937 -0.1402 -0.4804 -1.0802
 8745TIP3    H247727   4.474   5.093  13.982  0.3423 -0.9567  0.6195
 8746TIP3   OH247728   2.638   0.526  11.158 -0.1214  0.0887 -0.3950
 8746TIP3    H147729   2.594   0.484  11.084  0.7599  0.4577 -1.1416
 8746TIP3    H247730   2.731   0.513  11.142  0.0938  0.4796  0.4698
 8747TIP3   OH247731   6.793   0.597  12.318 -0.3985 -0.5452 -0.2305
 8747TIP3    H147732   6.824   0.664  12.257  0.5111 -1.1217 -0.4162
 8747TIP3    H247733   6.751   0.646  12.388  0.9489  0.2644  0.0291
 8748TIP3   OH247734   0.643   2.591   2.354 -0.2335  0.8912  0.0590
 8748TIP3    H147735   0.673   2.585   2.444  0.0215 -0.4561 -0.1032
 8748TIP3    H247736   0.704   2.653   2.313  2.6515 -2.0601 -0.3470
 8749TIP3   OH247737   3.166   3.803   3.711 -0.2682  0.9809 -0.3859
 8749TIP3    H147738   3.096   3.803   3.776 -0.4743  1.1656 -0.6124
 8749TIP3    H247739   3.236   3.752   3.752  0.4933  3.0560  0.9288
 8750TIP3   OH247740   2.887   1.818   5.182  0.4222 -0.3587 -0.0519
 8750TIP3    H147741   2.969   1.806   5.230  1.0724 -0.5687 -1.2016
 8750TIP3    H247742   2.829   1.750   5.216  0.1376  0.8799  2.0079
 8751TIP3   OH247743   0.266   0.423  12.116 -0.1151 -0.4948  0.5461
 8751TIP3    H147744   0.218   0.469  12.047  1.8548  1.5220  0.4726
 8751TIP3    H247745   0.251   0.474  12.195 -2.2544 -2.7254  1.6731
 8752TIP3   OH247746   4.626   0.136   2.482 -0.2861  0.4251 -0.4728
 8752TIP3    H147747   4.639   0.088   2.400 -0.4946  0.2327 -0.3949
 8752TIP3    H247748   4.613   0.068   2.548 -1.5515  0.5976 -0.5267
 8753TIP3   OH247749   4.836   4.034   3.988  0.0394  0.0001 -0.4279
 8753TIP3    H147750   4.881   4.107   3.947  1.6292  0.2669  1.7187
 8753TIP3    H247751   4.895   4.005   4.058 -2.7307 -0.1311  1.9711
 8754TIP3   OH247752   4.570   1.898   5.871 -0.2395 -0.4374 -0.5762
 8754TIP3    H147753   4.659   1.931   5.876  0.0168 -0.9445 -1.5495
 8754TIP3    H247754   4.580   1.804   5.852 -0.9598 -0.7928  0.7545
 8755TIP3   OH247755   3.297   4.003  13.483 -0.5449 -0.0057  0.3841
 8755TIP3    H147756   3.269   3.969  13.568 -4.0028 -0.8610 -0.9707
 8755TIP3    H247757   3.262   4.092  13.481 -1.9459 -0.5457 -0.7162
 8756TIP3   OH247758   6.483   1.527  13.135  0.1221  0.4261  0.3525
 8756TIP3    H147759   6.500   1.454  13.195 -0.8474 -0.2574 -0.1849
 8756TIP3    H247760   6.497   1.490  13.048  1.5419  1.4171  0.1507
 8757TIP3   OH247761   1.024   2.043  12.970 -0.3672  0.1382 -0.5447
 8757TIP3    H147762   1.022   1.948  12.955 -1.2063  0.4507 -2.5664
 8757TIP3    H247763   1.100   2.073  12.922 -0.8867  0.6632 -1.0495
 8758TIP3   OH247764   1.665   2.941   2.539  0.4026  0.4305  0.1054
 8758TIP3    H147765   1.601   2.876   2.569 -0.8237  1.7963  0.5562
 8758TIP3    H247766   1.750   2.906   2.565 -0.2243 -1.0584  0.1972
 8759TIP3   OH247767   4.183   2.278  11.910  0.2485  0.5640 -0.1899
 8759TIP3    H147768   4.093   2.281  11.942  0.0265  1.5241 -0.8946
 8759TIP3    H247769   4.178   2.234  11.825  0.4891  0.3375 -0.0893
 8760TIP3   OH247770   1.077   3.462   4.201 -0.6057  0.4165 -0.9926
 8760TIP3    H147771   1.167   3.467   4.234 -0.3278  0.3765 -1.7532
 8760TIP3    H247772   1.086   3.438   4.109 -1.5045 -3.4075 -0.1761
 8761TIP3   OH247773   0.008   6.372   4.105  0.3259 -0.5077 -0.4780
 8761TIP3    H147774   0.030   6.280   4.089  0.4015 -0.3522 -1.3169
 8761TIP3    H247775   0.091   6.418   4.094  0.3444 -0.3691  0.2240
 8762TIP3   OH247776   1.354   1.495   2.598  0.7762  0.4558 -0.2301
 8762TIP3    H147777   1.310   1.413   2.572 -0.8760  1.3317 -0.2649
 8762TIP3    H247778   1.330   1.557   2.530  0.2380  1.5416  0.9308
 8763TIP3   OH247779   0.264   3.586   1.901 -0.6320  0.0237 -0.5231
 8763TIP3    H147780   0.226   3.501   1.880  1.0226 -0.6375 -0.9435
 8763TIP3    H247781   0.346   3.588   1.852  0.1830  1.1428  0.8549
 8764TIP3   OH247782   1.217   5.171   2.172  0.8787  0.4969 -0.3684
 8764TIP3    H147783   1.209   5.153   2.266  0.5450  1.4419 -0.2068
 8764TIP3    H247784   1.278   5.105   2.140  1.0875  0.2402  0.5435
 8765TIP3   OH247785   1.098   3.868   5.653 -0.1631 -0.8111 -0.0673
 8765TIP3    H147786   1.115   3.806   5.724  0.5378 -1.0604 -0.4536
 8765TIP3    H247787   1.041   3.820   5.593 -1.1465 -0.4382  0.5534
 8766TIP3   OH247788   2.875   3.198   2.784 -0.3232 -0.4996  0.2358
 8766TIP3    H147789   2.808   3.188   2.717  0.3966  1.2148 -0.7639
 8766TIP3    H247790   2.828   3.234   2.859 -1.0858 -2.2078  0.6087
 8767TIP3   OH247791   6.370   4.565  11.495  0.5294 -0.1489  0.2444
 8767TIP3    H147792   6.356   4.655  11.522  0.4558  0.1943 -0.9127
 8767TIP3    H247793   6.436   4.571  11.425 -0.8111 -0.8094 -1.0985
 8768TIP3   OH247794   0.826   6.515  13.657 -0.1809 -0.2628  0.4058
 8768TIP3    H147795   0.794   6.589  13.709  1.4345  1.2999 -0.7673
 8768TIP3    H247796   0.920   6.530  13.650  0.0751 -2.1215 -0.3694
 8769TIP3   OH247797   1.838   6.336   2.412  0.2271 -0.3592  0.1913
 8769TIP3    H147798   1.763   6.385   2.446  0.8354 -0.0867  1.1435
 8769TIP3    H247799   1.858   6.379   2.328 -1.4317 -1.2028 -0.6780
 8770TIP3   OH247800   4.537   2.761   4.199  0.5405  0.5306 -0.3587
 8770TIP3    H147801   4.549   2.847   4.241 -0.1330  1.1715 -1.4428
 8770TIP3    H247802   4.496   2.782   4.115  1.1842 -0.7942 -1.0110
 8771TIP3   OH247803   3.468   5.003   0.330  0.5904 -0.5657 -0.1982
 8771TIP3    H147804   3.529   5.038   0.395 -1.2992 -0.4469  1.5728
 8771TIP3    H247805   3.383   5.039   0.356 -0.8773 -3.8426 -0.2509
 8772TIP3   OH247806   1.029   5.057  11.576  0.1631  0.0394  0.1025
 8772TIP3    H147807   1.073   5.024  11.498 -0.0539 -0.3981  0.1605
 8772TIP3    H247808   1.101   5.079  11.636  0.3523  1.1378 -0.5174
 8773TIP3   OH247809   2.779   3.355   3.024  0.1440  0.1577  0.4311
 8773TIP3    H147810   2.803   3.309   3.105  0.6271 -0.4617 -0.0542
 8773TIP3    H247811   2.849   3.419   3.010  0.6734 -0.5306 -0.1113
 8774TIP3   OH247812   2.492   4.158   0.010 -0.2476 -0.8264 -0.2338
 8774TIP3    H147813   2.518   4.187   0.097 -1.0593 -1.5725  0.2693
 8774TIP3    H247814   2.573   4.157  -0.040  0.1808 -0.1295  0.4342
 8775TIP3   OH247815   3.029   4.503   2.069  0.4942  0.8776  0.1244
 8775TIP3    H147816   3.012   4.586   2.113 -3.2237  0.5187 -0.4737
 8775TIP3    H247817   3.110   4.517   2.021  1.5208  3.1556  2.3992
 8776TIP3   OH247818   3.824   3.534  16.059  0.5590  0.1592 -0.3369
 8776TIP3    H147819   3.788   3.559  15.974  1.1199  3.0493  0.2029
 8776TIP3    H247820   3.918   3.550  16.051  0.8598 -1.2984  0.2438
 8777TIP3   OH247821   6.023   3.678  15.996 -0.3779  0.9315  0.1808
 8777TIP3    H147822   6.079   3.756  16.001 -0.2106  0.6974  1.9622
 8777TIP3    H247823   5.977   3.675  16.079 -0.2462 -0.9966  0.2138
 8778TIP3   OH247824   3.240   3.868   2.015  0.1045  0.1640  0.4943
 8778TIP3    H147825   3.273   3.781   1.991  1.4089  0.7960 -0.0663
 8778TIP3    H247826   3.292   3.894   2.091  1.3475  1.4304 -0.7662
 8779TIP3   OH247827   0.980   5.935  16.718  0.0348  0.3062 -0.4099
 8779TIP3    H147828   0.969   5.840  16.716  0.3931  0.2848 -2.3416
 8779TIP3    H247829   0.944   5.962  16.803 -1.3144 -1.3797 -0.4297
 8780TIP3   OH247830   3.696   3.684   0.622 -0.0846  0.0321  0.5633
 8780TIP3    H147831   3.663   3.751   0.682 -0.2937 -0.4853  1.0268
 8780TIP3    H247832   3.673   3.717   0.535  1.2274  1.3361  0.6914
 8781TIP3   OH247833   2.990   4.271  16.322 -0.0589  0.0550 -0.0905
 8781TIP3    H147834   3.052   4.244  16.254 -2.7688 -4.0676 -1.1465
 8781TIP3    H247835   3.009   4.214  16.396 -0.5290  0.9574  0.7355
 8782TIP3   OH247836   0.035   0.977   2.698  0.1481 -0.6273 -0.8661
 8782TIP3    H147837   0.076   0.905   2.746 -0.0847  0.0053  0.2966
 8782TIP3    H247838  -0.050   0.942   2.672  0.3573 -1.0434 -0.9940
 8783TIP3   OH247839   2.116   4.340  15.920 -0.1248 -0.0211  0.0319
 8783TIP3    H147840   2.103   4.282  15.996  3.3061  1.1947  1.6879
 8783TIP3    H247841   2.055   4.412  15.934 -0.4252 -0.4469  0.9969
 8784TIP3   OH247842   0.145   2.146  16.856 -0.1782  0.2524 -0.6845
 8784TIP3    H147843   0.176   2.234  16.874  1.6639 -0.7459  1.2640
 8784TIP3    H247844   0.125   2.109  16.942 -3.8607 -0.2445 -1.6654
 8785TIP3   OH247845   3.479   5.018   4.580  0.3219  0.0697 -0.1369
 8785TIP3    H147846   3.526   5.076   4.639  1.3888  0.0730 -0.9732
 8785TIP3    H247847   3.531   5.017   4.500  0.0072 -1.5718 -0.3409
 8786TIP3   OH247848   5.716   5.606  13.764  0.0102  0.2449 -0.0106
 8786TIP3    H147849   5.736   5.536  13.826  0.3071  1.5948  1.4734
 8786TIP3    H247850   5.623   5.595  13.744 -0.0594 -0.2790  0.5968
 8787TIP3   OH247851   2.351   0.979   1.823  0.3044  0.5320 -0.0782
 8787TIP3    H147852   2.401   0.902   1.796  0.1501  0.9595 -1.6461
 8787TIP3    H247853   2.396   1.053   1.782  0.8682  1.3576  1.9971
 8788TIP3   OH247854   1.788   6.330   0.291 -0.4092  0.1961  0.1977
 8788TIP3    H147855   1.801   6.362   0.380  0.0624  0.7388 -0.0590
 8788TIP3    H247856   1.696   6.302   0.289 -0.0880 -0.9728  1.2013
 8789TIP3   OH247857   6.038   0.387   6.524 -1.0057 -0.4581  0.0207
 8789TIP3    H147858   6.002   0.377   6.612 -1.8574 -0.0927 -0.2761
 8789TIP3    H247859   6.040   0.298   6.489  1.8239 -0.9581  1.3434
 8790TIP3   OH247860   2.531   0.115   1.608  0.9107  0.2976  0.1784
 8790TIP3    H147861   2.454   0.130   1.663  1.1344  0.6339  0.4010
 8790TIP3    H247862   2.495   0.079   1.527  0.6590 -1.1816  0.9277
 8791TIP3   OH247863   5.654   3.254   4.948 -0.2260 -0.1384 -0.2455
 8791TIP3    H147864   5.562   3.281   4.946 -0.1262  0.2091 -0.1915
 8791TIP3    H247865   5.676   3.238   4.856 -0.6137 -1.1530 -0.1622
 8792TIP3   OH247866   0.292   6.450  14.275  0.2661 -0.3501 -0.0121
 8792TIP3    H147867   0.288   6.542  14.250  1.7895 -0.2109  0.2405
 8792TIP3    H247868   0.353   6.447  14.349  1.9543 -1.8386 -1.4062
 8793TIP3   OH247869   5.089   2.662   0.227 -0.2035 -0.3439  0.3938
 8793TIP3    H147870   5.074   2.575   0.264  0.8136 -0.2773  0.9806
 8793TIP3    H247871   5.139   2.709   0.294 -1.7876  1.1124  0.6073
 8794TIP3   OH247872   1.163   5.399   5.433 -0.1461 -0.6527  0.1639
 8794TIP3    H147873   1.251   5.416   5.466 -0.0967 -0.6368  0.0282
 8794TIP3    H247874   1.105   5.453   5.487  0.1341  0.8708 -1.0156
 8795TIP3   OH247875   4.487   3.802  12.718 -0.2879 -1.0403  0.8222
 8795TIP3    H147876   4.447   3.805  12.631  0.2717  0.8299  0.6176
 8795TIP3    H247877   4.417   3.830  12.777  0.3955  1.2822  0.5661
 8796TIP3   OH247878   4.866   1.458   0.122 -0.8693 -0.0026 -0.6521
 8796TIP3    H147879   4.924   1.404   0.176  0.4537 -1.5604 -3.5465
 8796TIP3    H247880   4.780   1.417   0.132 -0.3271 -1.2352 -0.9599
 8797TIP3   OH247881   4.634   2.812   0.184  0.3178  0.0931  0.1002
 8797TIP3    H147882   4.559   2.799   0.242 -0.1015 -0.8962 -0.6444
 8797TIP3    H247883   4.673   2.725   0.175  1.9219  0.6976  0.9513
 8798TIP3   OH247884   1.710   4.978  14.281 -0.2998  0.1654  0.6829
 8798TIP3    H147885   1.727   5.071  14.296 -1.0553  0.4373 -0.1073
 8798TIP3    H247886   1.759   4.958  14.202  0.0452 -0.1726  0.9799
 8799TIP3   OH247887   5.582   6.597  11.059 -0.1808 -1.1448 -0.1855
 8799TIP3    H147888   5.635   6.668  11.024 -2.5015  0.1419 -1.1442
 8799TIP3    H247889   5.543   6.555  10.983 -0.6918 -1.9789  0.5150
 8800TIP3   OH247890   6.261   0.538   2.349  0.3869 -0.2619  0.2573
 8800TIP3    H147891   6.294   0.454   2.318  1.0725 -0.4462  1.4700
 8800TIP3    H247892   6.166   0.527   2.354  0.5223 -1.1424  0.9375
 8801TIP3   OH247893   6.775   3.189  12.631  0.1821  0.2742  0.1795
 8801TIP3    H147894   6.715   3.205  12.558  2.4128  1.4251 -1.4660
 8801TIP3    H247895   6.829   3.115  12.601  1.1666  0.8079  0.5996
 8802TIP3   OH247896   4.253   6.308   4.663  0.1703 -0.5968 -0.0269
 8802TIP3    H147897   4.224   6.386   4.616 -1.7004 -0.4618  1.3099
 8802TIP3    H247898   4.212   6.235   4.615 -1.3767 -0.4856  1.0890
 8803TIP3   OH247899   3.528   0.212   6.081 -0.3352  0.4279  0.3118
 8803TIP3    H147900   3.456   0.226   6.020  0.7502  0.9789 -0.8644
 8803TIP3    H247901   3.493   0.240   6.166 -2.8320 -3.1473  0.5680
 8804TIP3   OH247902   4.376   0.628   3.922  0.2857  0.1203  0.2461
 8804TIP3    H147903   4.436   0.701   3.934 -3.7509  3.2258  2.7764
 8804TIP3    H247904   4.330   0.648   3.841 -1.2169  0.7177  1.2308
 8805TIP3   OH247905   4.763   3.737  12.737 -0.4517 -0.0391  0.1138
 8805TIP3    H147906   4.675   3.772  12.749 -0.5365 -0.5402  0.9823
 8805TIP3    H247907   4.812   3.770  12.812 -0.6287 -2.0784  1.1688
 8806TIP3   OH247908   4.274   1.091   4.189 -0.3824  0.5313  0.0611
 8806TIP3    H147909   4.362   1.075   4.223 -0.8320 -0.2798  0.8998
 8806TIP3    H247910   4.226   1.126   4.264 -0.5855  1.6627 -0.5891
 8807TIP3   OH247911   6.584   0.824   2.589 -0.1752  0.3261 -0.2271
 8807TIP3    H147912   6.537   0.747   2.559  0.5954  0.1774 -1.1083
 8807TIP3    H247913   6.597   0.810   2.683 -0.0266 -0.6190 -0.3822
 8808TIP3   OH247914   2.216   5.135  11.540 -0.4182 -0.4502  0.4681
 8808TIP3    H147915   2.227   5.061  11.480 -0.0962 -0.4323  0.5010
 8808TIP3    H247916   2.124   5.159  11.532 -0.7708 -1.5223  1.2524
 8809TIP3   OH247917   6.002   2.592  14.658 -0.3006 -0.1704 -0.7058
 8809TIP3    H147918   5.983   2.574  14.566 -1.4164 -0.2703 -0.4608
 8809TIP3    H247919   6.015   2.686  14.662  1.9771 -0.4178 -1.3511
 8810TIP3   OH247920   3.788   3.371  11.459  0.2189  0.5628 -0.3392
 8810TIP3    H147921   3.874   3.342  11.490  0.3540  0.8481 -0.4358
 8810TIP3    H247922   3.758   3.300  11.401 -1.0494 -0.9976  2.1657
 8811TIP3   OH247923   0.190   2.675   6.120 -0.5262  0.1014  0.1217
 8811TIP3    H147924   0.188   2.582   6.140 -0.1126 -0.3044 -1.6467
 8811TIP3    H247925   0.253   2.712   6.182 -0.9700 -0.7264  1.0724
 8812TIP3   OH247926   5.837   4.180   4.786 -0.1122  0.1834  0.5215
 8812TIP3    H147927   5.754   4.227   4.795 -0.1784 -0.1320  1.5715
 8812TIP3    H247928   5.813   4.095   4.748 -0.4003 -0.2929  1.7402
 8813TIP3   OH247929   4.042   1.493   1.769 -0.2177  0.2098 -0.2079
 8813TIP3    H147930   3.991   1.425   1.813  0.7621 -1.1996 -1.1712
 8813TIP3    H247931   3.977   1.549   1.727 -1.0766  0.4372  1.4130
 8814TIP3   OH247932   4.253   1.374  15.077  0.1213  0.0742  0.6459
 8814TIP3    H147933   4.294   1.287  15.079  1.3791  0.6428 -0.1677
 8814TIP3    H247934   4.159   1.355  15.069  0.4896 -1.2305 -0.9677
 8815TIP3   OH247935   5.458   1.677   4.931 -0.2204  0.4690 -0.0406
 8815TIP3    H147936   5.469   1.670   5.026 -1.1512 -0.9141 -0.0133
 8815TIP3    H247937   5.443   1.587   4.902  0.6457  0.8003 -1.5796
 8816TIP3   OH247938   6.088   3.487  13.362  0.1492 -0.0598  0.3979
 8816TIP3    H147939   6.003   3.444  13.367  0.1284 -0.0777 -0.0685
 8816TIP3    H247940   6.088   3.530  13.276 -0.0611  1.3847  1.1246
 8817TIP3   OH247941   1.413   1.251   2.887  0.1021  0.3964 -0.1561
 8817TIP3    H147942   1.464   1.188   2.837  1.5391  0.9228  0.6093
 8817TIP3    H247943   1.323   1.238   2.858  0.8756  0.5921 -2.7823
 8818TIP3   OH247944   6.248   1.585   5.280 -0.6243 -0.1278 -0.4671
 8818TIP3    H147945   6.205   1.649   5.337  0.7518 -1.4249  2.1169
 8818TIP3    H247946   6.215   1.605   5.192 -0.8812  3.5641  0.3937
 8819TIP3   OH247947   3.745   1.493   5.106 -0.2204 -0.3652  0.1811
 8819TIP3    H147948   3.787   1.421   5.153  0.8121  0.7581  0.9909
 8819TIP3    H247949   3.741   1.462   5.015  2.3074 -0.5342  0.0863
 8820TIP3   OH247950   3.675   5.761   2.307  0.1075 -0.0656  0.2219
 8820TIP3    H147951   3.743   5.746   2.373 -0.4739  0.8528  1.0379
 8820TIP3    H247952   3.669   5.678   2.259  3.7845  0.6531 -1.7160
 8821TIP3   OH247953   0.733   4.069  11.693  0.2951  0.0805 -0.9369
 8821TIP3    H147954   0.741   4.153  11.738  1.5880 -1.5326  1.9895
 8821TIP3    H247955   0.640   4.060  11.673 -0.1653  1.2723  0.6139
 8822TIP3   OH247956   0.814   3.332   4.556 -0.3496 -0.1073 -0.6228
 8822TIP3    H147957   0.908   3.318   4.569  0.1756  0.0651 -3.8736
 8822TIP3    H247958   0.776   3.243   4.555 -0.0443 -0.2389 -0.5435
 8823TIP3   OH247959   2.802   4.126   4.599 -0.3346  0.3399  0.3609
 8823TIP3    H147960   2.829   4.093   4.685 -0.0102  1.5542  0.7323
 8823TIP3    H247961   2.858   4.202   4.584  0.2544 -0.4027 -1.3506
 8824TIP3   OH247962   0.705   2.982   5.528 -0.0808 -0.1157 -0.7245
 8824TIP3    H147963   0.799   2.998   5.529  0.3989 -2.5875  2.1847
 8824TIP3    H247964   0.672   3.032   5.603 -1.2977  1.7942 -2.5151
 8825TIP3   OH247965   4.268   0.111  16.278  0.0814 -0.2758  0.6028
 8825TIP3    H147966   4.224   0.184  16.321  1.6635  0.2804  1.3587
 8825TIP3    H247967   4.343   0.092  16.336  0.9444 -1.0199 -0.7351
 8826TIP3   OH247968   5.935   2.244  14.324  0.5156  0.1087  0.4216
 8826TIP3    H147969   5.949   2.219  14.416 -1.2286  2.9894  1.5367
 8826TIP3    H247970   6.011   2.299  14.303  0.2825  0.4786  0.5443
 8827TIP3   OH247971   3.677   4.536   4.263  0.4518  0.1842  0.5892
 8827TIP3    H147972   3.764   4.575   4.271  1.3506 -0.9026 -2.9092
 8827TIP3    H247973   3.693   4.441   4.261 -0.9726 -0.0872  1.5592
 8828TIP3   OH247974   5.447   3.793   5.667  0.4926  0.1478  0.4303
 8828TIP3    H147975   5.425   3.802   5.760 -1.2892  0.7554 -0.0311
 8828TIP3    H247976   5.362   3.783   5.624  1.2461  0.8211 -1.2282
 8829TIP3   OH247977   5.108   2.602   4.946 -0.1014 -0.5038  0.0132
 8829TIP3    H147978   5.136   2.693   4.958  0.5367 -0.5618 -1.0129
 8829TIP3    H247979   5.015   2.603   4.968 -0.3600  0.6308 -1.0413
 8830TIP3   OH247980   3.323   6.291   3.735 -0.4542 -0.6157  0.2593
 8830TIP3    H147981   3.377   6.311   3.811  0.0368  1.6977 -0.6560
 8830TIP3    H247982   3.233   6.304   3.767 -0.2087  1.5185  0.1570
 8831TIP3   OH247983   1.173   3.356  16.785 -0.2525  0.1900  0.0858
 8831TIP3    H147984   1.148   3.339  16.875  2.3866  2.7584  1.4001
 8831TIP3    H247985   1.141   3.445  16.767  0.2611  0.1507 -1.0999
 8832TIP3   OH247986   2.653   6.656  15.176 -0.1994 -0.1124 -0.1768
 8832TIP3    H147987   2.560   6.660  15.154 -0.4796 -1.2684  0.7704
 8832TIP3    H247988   2.656   6.669  15.270  0.9156  3.6881 -0.6793
 8833TIP3   OH247989   6.174   5.056   4.618  0.1497 -0.1593 -0.3424
 8833TIP3    H147990   6.221   4.988   4.668  1.7186  2.7268  2.2644
 8833TIP3    H247991   6.084   5.052   4.651  0.6238  0.1138  1.0230
 8834TIP3   OH247992   0.035   2.130   2.055  0.2548  0.1610 -0.6253
 8834TIP3    H147993   0.002   2.041   2.045  0.1882  0.2219 -0.9569
 8834TIP3    H247994  -0.043   2.182   2.072  0.1645  0.3142 -1.4730
 8835TIP3   OH247995   2.978   3.707  14.448  0.2115  0.5269 -0.1104
 8835TIP3    H147996   2.951   3.732  14.536 -1.2827  0.1306 -0.4542
 8835TIP3    H247997   2.951   3.616  14.439  1.0017  0.3451 -0.7357
 8836TIP3   OH247998   2.591   1.354   0.403 -0.1079 -0.0583 -0.7023
 8836TIP3    H147999   2.545   1.321   0.326 -0.3815  0.1480 -0.6276
 8836TIP3    H248000   2.667   1.401   0.368  1.3372 -2.3411 -0.7581
 8837TIP3   OH248001   2.891   4.390   2.363  0.2225 -0.1700  0.2181
 8837TIP3    H148002   2.851   4.331   2.299  0.6442  0.0992 -0.2992
 8837TIP3    H248003   2.825   4.459   2.375  0.1996 -0.1465 -0.0361
 8838TIP3   OH248004   2.477   3.689  15.643  0.5205  0.1076 -1.0409
 8838TIP3    H148005   2.532   3.756  15.684 -1.0577  2.5354 -2.7442
 8838TIP3    H248006   2.388   3.722  15.651 -0.4665 -2.5036 -0.6702
 8839TIP3   OH248007   2.466   2.103   1.188 -0.3422  0.6854  0.2171
 8839TIP3    H148008   2.449   2.195   1.206 -1.7896  0.2101  1.3641
 8839TIP3    H248009   2.515   2.072   1.264 -1.0500  0.1830  0.4731
 8840TIP3   OH248010   1.914   6.178  14.647  0.0360  0.2472 -0.1507
 8840TIP3    H148011   1.841   6.119  14.631 -1.1291  1.7621 -0.5510
 8840TIP3    H248012   1.977   6.158  14.579 -0.3874 -0.4787 -0.3319
 8841TIP3   OH248013   1.621   0.396   4.192 -0.0902 -0.3295  0.5924
 8841TIP3    H148014   1.592   0.482   4.224 -1.1478 -0.9740  1.3968
 8841TIP3    H248015   1.681   0.364   4.259 -0.8768 -0.8841  1.0263
 8842TIP3   OH248016   5.380   0.775  12.624  0.4070 -0.4235  0.1217
 8842TIP3    H148017   5.309   0.739  12.678  0.3824 -0.2856  0.1809
 8842TIP3    H248018   5.351   0.864  12.603  0.2010 -0.6353 -0.5047
 8843TIP3   OH248019   0.158   6.469  13.590 -0.7362 -0.1209 -0.0034
 8843TIP3    H148020   0.107   6.437  13.516 -0.9765 -0.8367  0.4629
 8843TIP3    H248021   0.119   6.426  13.667 -0.0820  0.1104  0.4669
 8844TIP3   OH248022   1.718   6.430   3.322  0.1378  0.0411 -0.3373
 8844TIP3    H148023   1.799   6.475   3.346 -0.1184  0.0100  0.5966
 8844TIP3    H248024   1.649   6.494   3.337 -0.4828 -1.3176  3.1845
 8845TIP3   OH248025   2.629   0.874   5.253  0.4724 -0.5856  0.2354
 8845TIP3    H148026   2.632   0.911   5.164 -0.8399 -1.4548 -0.1827
 8845TIP3    H248027   2.720   0.848   5.271  0.8497  0.0883 -0.6291
 8846TIP3   OH248028   6.466   2.229   4.352  0.3540  0.1247 -0.2664
 8846TIP3    H148029   6.419   2.313   4.352  2.2792  1.2763  2.3746
 8846TIP3    H248030   6.446   2.190   4.436  1.0081 -1.1882 -0.7078
 8847TIP3   OH248031   1.228   3.495  12.902 -0.6197  0.3483  0.2369
 8847TIP3    H148032   1.252   3.512  12.993 -0.0197  0.7532  0.0063
 8847TIP3    H248033   1.284   3.422  12.876 -1.7863 -0.7007  0.6185
 8848TIP3   OH248034   3.046   5.801   5.215 -0.4191  0.3099  0.3207
 8848TIP3    H148035   3.089   5.796   5.300 -0.2411  1.8511  0.3348
 8848TIP3    H248036   3.078   5.724   5.167  1.9208  1.1277  0.5356
 8849TIP3   OH248037   1.592   2.515   6.108  0.0157  0.2225 -0.1087
 8849TIP3    H148038   1.587   2.582   6.175 -0.8167  0.0435  0.0073
 8849TIP3    H248039   1.588   2.563   6.025 -0.8920  0.2996 -0.0271
 8850TIP3   OH248040   6.694   0.421  12.139  0.8439 -0.1603  0.4296
 8850TIP3    H148041   6.637   0.450  12.068 -0.8490 -2.8841  0.5606
 8850TIP3    H248042   6.689   0.491  12.204 -2.3770 -0.2814  0.4072
 8851TIP3   OH248043   6.359   3.410  13.827 -0.3693 -0.0469  0.2540
 8851TIP3    H148044   6.301   3.391  13.754 -0.0286 -2.1473  0.4810
 8851TIP3    H248045   6.313   3.478  13.877 -2.6739 -1.6607  0.4394
 8852TIP3   OH248046   5.795   2.471   3.418  0.0593 -0.2146 -0.2747
 8852TIP3    H148047   5.874   2.513   3.451  0.4687 -0.6421 -0.6941
 8852TIP3    H248048   5.725   2.534   3.434  0.6480  0.5805 -0.8100
 8853TIP3   OH248049   3.422   5.489  13.187  0.0269 -0.4973  0.5614
 8853TIP3    H148050   3.439   5.533  13.270 -0.7144  2.4400 -0.7432
 8853TIP3    H248051   3.367   5.415  13.209  0.1280  0.0378  2.7242
 8854TIP3   OH248052   0.449   3.148  13.198 -0.0466  0.1612 -0.0393
 8854TIP3    H148053   0.446   3.098  13.117  0.0966 -0.9550  0.6385
 8854TIP3    H248054   0.402   3.229  13.179 -2.6371 -1.3871 -0.3362
 8855TIP3   OH248055   5.943   6.241  16.890  0.1011  0.2618 -0.0626
 8855TIP3    H148056   5.964   6.322  16.937  1.6088 -0.2765  0.2272
 8855TIP3    H248057   5.960   6.262  16.798  1.8139 -0.1183  0.1499
 8856TIP3   OH248058   3.432   6.305   1.807  0.2122  0.5220  0.2085
 8856TIP3    H148059   3.445   6.362   1.883  1.2454  0.7104 -0.0966
 8856TIP3    H248060   3.346   6.329   1.773 -0.3301  0.3165  1.4168
 8857TIP3   OH248061   0.373   0.747   5.410  0.0934 -0.0050 -0.1175
 8857TIP3    H148062   0.317   0.816   5.446 -0.6390 -0.1813 -0.9253
 8857TIP3    H248063   0.462   0.776   5.432 -0.2194  1.0580 -0.2052
 8858TIP3   OH248064   5.558   2.519  11.205 -0.1579  0.4695  0.1019
 8858TIP3    H148065   5.602   2.604  11.207 -0.2413  0.5121  0.0986
 8858TIP3    H248066   5.497   2.526  11.132  1.2104 -0.2606 -1.1415
 8859TIP3   OH248067   6.628   4.063  16.352  0.3434 -0.0348 -0.4537
 8859TIP3    H148068   6.562   4.079  16.285 -0.6589 -0.9143  0.3071
 8859TIP3    H248069   6.605   3.977  16.388  1.6485 -0.1564  0.1199
 8860TIP3   OH248070   2.281   0.900  11.060 -0.6511  0.3712 -0.0864
 8860TIP3    H148071   2.291   0.808  11.037  0.2441  0.5126 -0.2780
 8860TIP3    H248072   2.197   0.926  11.021 -0.4281 -0.0953 -0.8771
 8861TIP3   OH248073   2.257   0.171  14.467 -0.1917  0.6383 -0.2067
 8861TIP3    H148074   2.211   0.187  14.385 -0.3369  0.4961 -0.1524
 8861TIP3    H248075   2.202   0.212  14.534 -1.4672 -1.5614  0.1421
 8862TIP3   OH248076   4.289   0.048   5.464 -0.1637 -0.2653 -0.2122
 8862TIP3    H148077   4.307   0.056   5.558  0.1368 -0.6625 -0.2348
 8862TIP3    H248078   4.193   0.049   5.458 -0.1918 -0.6597  0.1409
 8863TIP3   OH248079   3.293   1.879  15.737 -0.0057  0.3770 -0.6689
 8863TIP3    H148080   3.240   1.952  15.769 -0.3469 -0.6133  1.0795
 8863TIP3    H248081   3.372   1.920  15.703 -0.4419  1.6082 -0.2313
 8864TIP3   OH248082   5.054   4.569  17.247  0.5326 -0.2125 -0.3206
 8864TIP3    H148083   4.973   4.595  17.203  1.0655  2.0504 -0.0296
 8864TIP3    H248084   5.121   4.576  17.179  0.9187  0.5579  0.1438
 8865TIP3   OH248085   3.281   3.684   3.926  0.0793 -0.2480 -0.2121
 8865TIP3    H148086   3.323   3.770   3.929  0.6575 -0.4154 -2.2870
 8865TIP3    H248087   3.354   3.622   3.931 -0.2878 -0.6075  0.6654
 8866TIP3   OH248088   4.055   2.028   2.942 -0.6400 -0.4813 -0.1337
 8866TIP3    H148089   3.994   2.079   2.995  1.7025 -0.1589  2.3518
 8866TIP3    H248090   4.010   1.945   2.927 -4.0296  1.7923 -3.2837
 8867TIP3   OH248091   3.514   5.191  14.323  0.0041  0.0250 -0.3253
 8867TIP3    H148092   3.605   5.212  14.346  0.3243 -1.8932  0.2714
 8867TIP3    H248093   3.521   5.118  14.262 -1.1362  0.0875 -0.5429
 8868TIP3   OH248094   3.164   4.610  11.223  0.4662 -0.8053 -0.1867
 8868TIP3    H148095   3.122   4.656  11.152 -0.9232 -1.5087  0.1598
 8868TIP3    H248096   3.236   4.667  11.250  0.9251 -0.4800 -2.0498
 8869TIP3   OH248097   6.579   4.078  10.345 -0.2694 -0.0958 -0.0928
 8869TIP3    H148098   6.510   4.013  10.341  0.4231 -0.7763 -2.0139
 8869TIP3    H248099   6.659   4.029  10.325  0.7562  0.6864  2.0150
 8870TIP3   OH248100   4.771   5.792  16.238  0.5590  0.0250 -0.3222
 8870TIP3    H148101   4.729   5.781  16.153  0.6457 -0.9175 -0.2455
 8870TIP3    H248102   4.829   5.868  16.226 -1.0089  1.2210 -0.4784
 8871TIP3   OH248103   2.027   1.094  12.972 -0.5267 -0.3171 -0.0042
 8871TIP3    H148104   1.988   1.164  12.920 -0.5278 -0.6067 -0.3871
 8871TIP3    H248105   2.087   1.049  12.912  0.6393  0.3253  0.6664
 8872TIP3   OH248106   0.968   1.197   2.354 -0.2714  0.1645 -0.9455
 8872TIP3    H148107   0.904   1.170   2.288  0.7546  0.0857 -1.9061
 8872TIP3    H248108   1.032   1.250   2.306  1.1295 -0.8634 -0.2533
 8873TIP3   OH248109   2.459   1.784   0.898  0.1304 -0.2567  0.0151
 8873TIP3    H148110   2.549   1.777   0.928  0.3059  2.6597  0.2711
 8873TIP3    H248111   2.465   1.785   0.803  0.2132 -1.7404 -0.0020
 8874TIP3   OH248112   0.388   4.858  10.999 -0.4423  0.0067  0.5224
 8874TIP3    H148113   0.372   4.815  10.914 -1.6925  0.8437  0.3175
 8874TIP3    H248114   0.464   4.914  10.983 -2.3068  2.2294 -0.8296
 8875TIP3   OH248115   0.630   2.318  11.989 -0.0997  0.1118 -0.0559
 8875TIP3    H148116   0.579   2.297  12.067  0.9996 -0.3073  0.5657
 8875TIP3    H248117   0.671   2.402  12.008  2.6245 -1.3992  1.1200
 8876TIP3   OH248118   5.667   5.743  11.211 -0.6789  0.3609  0.1250
 8876TIP3    H148119   5.628   5.739  11.124 -0.8477 -0.6180  0.2455
 8876TIP3    H248120   5.650   5.833  11.241  1.8013  1.5992 -1.9571
 8877TIP3   OH248121   3.947   1.416  16.951 -0.0732  0.1702  0.3861
 8877TIP3    H148122   4.018   1.449  16.896 -1.7780  1.8209 -0.8489
 8877TIP3    H248123   3.923   1.333  16.910 -0.1534  0.5434 -0.3391
 8878TIP3   OH248124   0.557   2.004   4.420  0.1744 -0.2282 -0.0116
 8878TIP3    H148125   0.564   2.034   4.511  0.2476 -1.2232  0.3111
 8878TIP3    H248126   0.645   2.014   4.385  0.1859 -0.0126  0.0764
 8879TIP3   OH248127   3.640   4.894   3.783  0.3222 -0.8727 -0.1369
 8879TIP3    H148128   3.617   4.928   3.697  0.9096 -0.6269 -0.1955
 8879TIP3    H248129   3.711   4.832   3.767  0.1475 -1.1403  0.1206
 8880TIP3   OH248130   6.613   2.544   1.215  0.3514  0.2796  0.2545
 8880TIP3    H148131   6.615   2.617   1.153  0.3481 -0.5845 -0.7957
 8880TIP3    H248132   6.705   2.526   1.234  0.3220  1.3076  1.4438
 8881TIP3   OH248133   5.032   2.347   3.556 -0.5058 -0.4819 -0.6741
 8881TIP3    H148134   5.059   2.303   3.636  0.1325  1.0845  0.0018
 8881TIP3    H248135   4.995   2.278   3.501 -1.0818 -1.5485  1.0230
 8882TIP3   OH248136   4.238   4.941  16.292  0.1696  0.5466 -0.3911
 8882TIP3    H148137   4.267   4.933  16.383 -2.7316 -1.9070  0.3806
 8882TIP3    H248138   4.200   4.856  16.271 -0.8177  1.6518 -3.3450
 8883TIP3   OH248139   5.613   0.125   3.262 -0.0490  0.0405 -0.1421
 8883TIP3    H148140   5.538   0.184   3.276  0.2627  0.0707  1.4925
 8883TIP3    H248141   5.601   0.055   3.327 -0.2746 -1.5859 -1.8785
 8884TIP3   OH248142   4.577   2.997   4.048  0.0322  0.0797  0.3961
 8884TIP3    H148143   4.497   3.026   4.005  0.6387  0.0115 -0.8115
 8884TIP3    H248144   4.634   3.074   4.047 -0.0121  0.1279  1.2449
 8885TIP3   OH248145   0.502   3.977   1.014  0.5157 -0.4951 -0.1426
 8885TIP3    H148146   0.410   3.958   1.032  0.5505 -1.3722 -0.7967
 8885TIP3    H248147   0.529   4.037   1.083 -0.6080 -0.0645 -0.0759
 8886TIP3   OH248148   0.262   6.235  16.072  0.4891 -0.7533  0.6674
 8886TIP3    H148149   0.344   6.186  16.071  1.6171  1.0871  1.0293
 8886TIP3    H248150   0.220   6.215  15.988  0.9437 -2.2907  0.8036
 8887TIP3   OH248151   0.454   1.908  16.754  0.4553 -0.0314  0.0235
 8887TIP3    H148152   0.372   1.915  16.706  0.1547 -0.0905  0.5258
 8887TIP3    H248153   0.519   1.885  16.688  0.1879  0.6682 -0.4883
 8888TIP3   OH248154   2.982   0.263  12.191  0.6143  0.0608 -0.7411
 8888TIP3    H148155   3.077   0.276  12.190  0.5207  0.7636 -1.9000
 8888TIP3    H248156   2.964   0.215  12.111 -0.0465  0.2559 -0.7112
 8889TIP3   OH248157   5.129   4.081  17.144 -0.4136 -0.0012  0.4005
 8889TIP3    H148158   5.134   4.093  17.050 -0.6406 -3.2876 -0.0861
 8889TIP3    H248159   5.218   4.097  17.176  0.0835 -0.7400 -0.6145
 8890TIP3   OH248160   0.266   3.458  14.145 -0.1900 -0.2754 -0.6054
 8890TIP3    H148161   0.300   3.379  14.189 -1.5244  0.5685  2.0803
 8890TIP3    H248162   0.338   3.521  14.150 -0.8659  0.3631  1.9675
 8891TIP3   OH248163   6.246   6.528   2.232  0.3108  0.4397 -0.4365
 8891TIP3    H148164   6.269   6.620   2.224  2.4734 -0.0836 -0.4628
 8891TIP3    H248165   6.312   6.482   2.181 -0.3208 -1.1849  0.1672
 8892TIP3   OH248166   4.229   4.224  14.361 -0.1757 -0.0044 -0.3213
 8892TIP3    H148167   4.274   4.141  14.346  0.1897  0.3387 -1.1502
 8892TIP3    H248168   4.241   4.242  14.454  0.4446 -0.4672 -0.3137
 8893TIP3   OH248169   6.316   3.777   5.529  0.8202  0.2082 -0.1187
 8893TIP3    H148170   6.267   3.694   5.535 -0.0391  0.6873 -0.3687
 8893TIP3    H248171   6.260   3.833   5.476  0.6561  1.4743  1.3515
 8894TIP3   OH248172   2.886   2.287  13.505 -0.1058  0.1541  0.5252
 8894TIP3    H148173   2.914   2.255  13.591 -2.0385 -1.1277  0.7123
 8894TIP3    H248174   2.847   2.211  13.463  0.1320  0.9698 -1.2038
 8895TIP3   OH248175   2.204   6.819  12.733 -0.1737 -0.5230 -0.2324
 8895TIP3    H148176   2.238   6.730  12.734 -0.9170 -0.7986  0.9681
 8895TIP3    H248177   2.172   6.834  12.822 -3.9712 -0.5666 -1.5260
 8896TIP3   OH248178   0.931   4.281   0.971 -0.1120  0.7312 -0.2666
 8896TIP3    H148179   0.981   4.303   1.050 -1.0520  2.2268 -0.0456
 8896TIP3    H248180   0.921   4.186   0.974  1.0418  0.6329  0.7034
 8897TIP3   OH248181   5.199   2.176   1.766 -0.2691  0.1048 -0.2728
 8897TIP3    H148182   5.228   2.085   1.760 -0.6222  0.1193 -2.6924
 8897TIP3    H248183   5.247   2.221   1.697 -0.6190  1.6180  0.4484
 8898TIP3   OH248184   1.658   5.869   5.899  0.3373  0.3915  0.0514
 8898TIP3    H148185   1.576   5.919   5.896  0.5603  0.8180  0.8788
 8898TIP3    H248186   1.711   5.907   5.829  0.5495  1.4193  0.7450
 8899TIP3   OH248187   4.602   2.111  14.950  0.3718 -0.3809 -0.2186
 8899TIP3    H148188   4.677   2.129  14.892  0.2166 -1.9021 -0.9124
 8899TIP3    H248189   4.610   2.176  15.020  1.1772  0.8045 -1.3704
 8900TIP3   OH248190   2.384   4.986   4.876  0.0005 -0.3267 -0.0514
 8900TIP3    H148191   2.378   5.049   4.805  0.9735 -1.8824 -1.5385
 8900TIP3    H248192   2.294   4.979   4.909 -0.6686 -0.3943 -1.8328
 8901TIP3   OH248193   3.497   3.574   1.131  0.9208  0.2119  0.1619
 8901TIP3    H148194   3.554   3.606   1.201  2.2004 -0.4101 -0.5675
 8901TIP3    H248195   3.409   3.582   1.166  1.4617  1.1218  1.3529
 8902TIP3   OH248196   2.391   6.154  12.871 -0.1289  0.0056  0.3448
 8902TIP3    H148197   2.467   6.183  12.923 -0.1567 -0.9347  0.9358
 8902TIP3    H248198   2.325   6.222  12.885  0.5173  0.7038  0.0379
 8903TIP3   OH248199   0.193   4.875   5.303 -0.0016  0.0584 -0.0477
 8903TIP3    H148200   0.267   4.874   5.243 -1.0196  1.3367 -1.3338
 8903TIP3    H248201   0.212   4.946   5.364 -0.2361  0.4940 -0.4785
 8904TIP3   OH248202   1.892   1.469  12.629 -0.5009 -0.0611  0.3519
 8904TIP3    H148203   1.976   1.503  12.597  0.1434 -0.1891  1.8778
 8904TIP3    H248204   1.826   1.522  12.584  0.3385 -0.7830 -1.8101
 8905TIP3   OH248205   3.404   0.154   0.181 -0.3928  0.5307 -0.2122
 8905TIP3    H148206   3.446   0.135   0.097 -3.0712 -0.6422 -1.3611
 8905TIP3    H248207   3.439   0.088   0.241 -0.0920  0.0028 -0.9600
 8906TIP3   OH248208   5.593   2.414  15.015 -0.0299  0.0847  0.2797
 8906TIP3    H148209   5.661   2.463  14.968  0.5200 -1.6761 -0.8008
 8906TIP3    H248210   5.544   2.369  14.947 -1.3008  0.1051  1.1775
 8907TIP3   OH248211   0.429   0.716   1.419 -0.5274 -0.3008  0.2638
 8907TIP3    H148212   0.479   0.656   1.363 -3.5338 -1.0684 -1.7467
 8907TIP3    H248213   0.440   0.802   1.378  1.9560  0.1982  1.8682
 8908TIP3   OH248214   0.257   2.472   5.406  0.3712 -0.5040  0.0823
 8908TIP3    H148215   0.297   2.559   5.419 -0.5379 -0.3068  1.6863
 8908TIP3    H248216   0.248   2.464   5.311  2.1863  0.3655 -0.1890
 8909TIP3   OH248217   0.865   3.404  16.956  0.1137  0.2346 -0.0318
 8909TIP3    H148218   0.855   3.315  16.989  2.8011 -0.5460 -1.2443
 8909TIP3    H248219   0.954   3.430  16.981 -0.1369  2.0674 -0.9321
 8910TIP3   OH248220   1.952   2.846  13.044  0.2702  0.0984  0.2389
 8910TIP3    H148221   2.042   2.876  13.052  0.5408 -0.4140 -0.7962
 8910TIP3    H248222   1.903   2.924  13.017  0.7563 -0.0706 -1.1939
 8911TIP3   OH248223   1.822   1.878   3.789  0.0678 -0.0647  0.2117
 8911TIP3    H148224   1.837   1.823   3.712  1.1383  1.7966 -0.9830
 8911TIP3    H248225   1.857   1.828   3.862  1.3308 -0.8466 -0.8862
 8912TIP3   OH248226   4.520   0.859  16.320 -0.0725  0.3158  0.4515
 8912TIP3    H148227   4.578   0.918  16.368 -0.5524  0.5523  0.7461
 8912TIP3    H248228   4.493   0.910  16.243  1.1141 -0.2519 -0.3581
 8913TIP3   OH248229   0.695   3.739  11.781 -0.4102 -0.3103  0.1917
 8913TIP3    H148230   0.605   3.732  11.750 -0.8193  1.1296  1.0309
 8913TIP3    H248231   0.722   3.828  11.758 -0.1827  0.2582  2.4829
 8914TIP3   OH248232   3.036   0.449   4.069 -0.0811  0.3107 -0.2026
 8914TIP3    H148233   3.004   0.528   4.024 -0.6431 -0.4860 -1.2106
 8914TIP3    H248234   3.076   0.397   4.001 -0.2999 -0.5868  0.3454
 8915TIP3   OH248235   3.599   2.675  15.213  0.2978  0.7829  0.0449
 8915TIP3    H148236   3.623   2.757  15.255 -0.3063  1.2104 -0.4369
 8915TIP3    H248237   3.542   2.631  15.277 -0.8944  1.5844 -0.4478
 8916TIP3   OH248238   1.316   1.126   4.999 -0.0402  0.0626 -0.0435
 8916TIP3    H148239   1.298   1.214   5.031  0.0950 -0.0393  0.3075
 8916TIP3    H248240   1.408   1.110   5.018  0.2591  0.3173 -1.2302
 8917TIP3   OH248241   0.287   6.781   4.136  0.0655 -0.7132 -0.5797
 8917TIP3    H148242   0.265   6.737   4.218 -1.9222  1.1643 -0.0724
 8917TIP3    H248243   0.379   6.805   4.145  0.8132 -3.4761 -0.3150
 8918TIP3   OH248244   1.997   6.393   5.477  0.5051 -0.1821 -0.2996
 8918TIP3    H148245   2.038   6.412   5.393 -1.6709  0.3021 -1.2582
 8918TIP3    H248246   2.003   6.474   5.526 -0.7383  0.3781 -1.0518
 8919TIP3   OH248247   1.161   0.948   1.937 -0.0061 -0.3297  0.1453
 8919TIP3    H148248   1.247   0.921   1.968 -1.2149 -2.3686  1.9041
 8919TIP3    H248249   1.131   0.875   1.882 -1.1136 -0.2123  0.5806
 8920TIP3   OH248250   4.861   6.006  15.514 -0.1126 -0.9570  0.4848
 8920TIP3    H148251   4.867   5.964  15.428  0.1554 -1.3788  0.7052
 8920TIP3    H248252   4.779   6.055  15.512 -0.6597 -1.8718  0.3849
 8921TIP3   OH248253   0.911   5.476   4.156 -0.6282  0.1852  0.2364
 8921TIP3    H148254   0.945   5.439   4.238 -0.6343  0.3090  0.2948
 8921TIP3    H248255   0.946   5.565   4.153  1.6548 -0.7254 -1.2667
 8922TIP3   OH248256   1.439   3.367   4.793  0.0952 -0.0810  0.2976
 8922TIP3    H148257   1.437   3.314   4.873 -0.0856 -0.1952  0.2179
 8922TIP3    H248258   1.347   3.372   4.766  0.2556 -0.7433 -0.3690
 8923TIP3   OH248259   4.169   2.901   0.842  0.1173  0.3008  0.0459
 8923TIP3    H148260   4.210   2.987   0.848  1.0182 -0.1209 -0.0275
 8923TIP3    H248261   4.092   2.908   0.899  0.6458  0.8881  0.7111
 8924TIP3   OH248262   4.678   0.875   2.409 -0.6585 -0.3417  0.3340
 8924TIP3    H148263   4.750   0.834   2.457  2.2117  2.1494 -1.7338
 8924TIP3    H248264   4.630   0.802   2.371  0.9842 -2.0383  1.4405
 8925TIP3   OH248265   5.647   5.083   6.351  0.1422 -0.3239  0.2070
 8925TIP3    H148266   5.572   5.104   6.407  0.4153 -1.0556  0.8613
 8925TIP3    H248267   5.690   5.011   6.396  0.7844 -0.4346 -0.5828
 8926TIP3   OH248268   2.316   4.339   0.827  0.0540 -0.2732  0.1543
 8926TIP3    H148269   2.344   4.409   0.767 -1.0476  0.8438  0.9053
 8926TIP3    H248270   2.371   4.351   0.904 -0.2111 -0.1540  0.3271
 8927TIP3   OH248271   3.147   0.677  16.212  0.0271 -0.4041 -0.5337
 8927TIP3    H148272   3.139   0.662  16.118  2.2852  1.3459 -1.0561
 8927TIP3    H248273   3.057   0.690  16.243 -0.7139 -0.7999 -2.4690
 8928TIP3   OH248274   6.722   1.069   3.946 -0.0929  0.4931 -0.0339
 8928TIP3    H148275   6.718   1.094   4.038 -0.6228 -0.2533  0.1503
 8928TIP3    H248276   6.635   1.091   3.911 -0.2602 -0.2340 -0.0873
 8929TIP3   OH248277   0.837   0.672  12.870 -0.5224 -0.2538 -0.1778
 8929TIP3    H148278   0.821   0.677  12.965 -1.7822 -1.3554 -0.3070
 8929TIP3    H248279   0.753   0.643  12.834  0.2992 -1.0055 -1.5042
 8930TIP3   OH248280   1.986   2.320   2.776 -0.7489 -0.6497 -0.5347
 8930TIP3    H148281   1.970   2.306   2.683 -1.0414  1.3648 -0.8167
 8930TIP3    H248282   2.081   2.312   2.786 -0.4811  1.1561 -1.4040
 8931TIP3   OH248283   2.214   2.227   5.069 -0.8820  0.2833 -0.5903
 8931TIP3    H148284   2.200   2.150   5.124 -0.3356  0.1083 -0.6878
 8931TIP3    H248285   2.126   2.252   5.040 -1.0385 -0.5360 -0.8668
 8932TIP3   OH248286   2.178   4.032  14.866 -0.1011 -0.4855  0.4357
 8932TIP3    H148287   2.122   3.982  14.925 -1.1490  0.1779  0.0183
 8932TIP3    H248288   2.141   4.017  14.779  1.0990 -1.0070  0.0007
 8933TIP3   OH248289   1.397   2.922   3.122 -0.0809  0.3022 -0.0835
 8933TIP3    H148290   1.427   2.852   3.180 -0.2576 -0.2724 -0.6736
 8933TIP3    H248291   1.473   2.943   3.068 -0.1114  0.3591 -0.1040
 8934TIP3   OH248292   4.381   4.739   2.179 -0.8254 -0.5669  0.4486
 8934TIP3    H148293   4.287   4.733   2.162 -0.8755  1.9116 -0.4665
 8934TIP3    H248294   4.420   4.744   2.092 -0.0064 -0.0171  0.8420
 8935TIP3   OH248295   5.670   4.862  11.668 -0.6105  0.2434 -0.1384
 8935TIP3    H148296   5.655   4.793  11.603 -2.5483  2.3196 -2.0166
 8935TIP3    H248297   5.582   4.886  11.698  0.0937  1.1642  1.2638
 8936TIP3   OH248298   3.863   3.521  13.966 -0.2236  0.3589  0.2076
 8936TIP3    H148299   3.820   3.529  14.051  0.9208  2.2443  0.6431
 8936TIP3    H248300   3.942   3.470  13.984  1.1120  2.5332  0.7351
 8937TIP3   OH248301   5.668   6.058  12.465  0.1479  0.1611 -0.0618
 8937TIP3    H148302   5.654   6.040  12.372 -0.4733 -2.3667  0.4992
 8937TIP3    H248303   5.762   6.068  12.473  0.3198 -0.8169 -0.7570
 8938TIP3   OH248304   0.127   1.778   5.903 -0.2031 -0.5537  0.6354
 8938TIP3    H148305   0.173   1.749   5.824  0.3200 -1.4786  1.2693
 8938TIP3    H248306   0.189   1.763   5.974 -1.7957 -2.6569  1.6245
 8939TIP3   OH248307   5.728   5.939  11.724 -0.1544 -0.2475 -0.3839
 8939TIP3    H148308   5.762   5.936  11.635  0.7845 -1.4905  0.0112
 8939TIP3    H248309   5.648   5.887  11.721 -0.3328  0.0313 -0.5740
 8940TIP3   OH248310   1.056   1.702   3.160  0.3003  0.0697  0.5569
 8940TIP3    H148311   1.025   1.634   3.100 -0.1070 -0.9167  1.8540
 8940TIP3    H248312   1.055   1.783   3.108 -0.8454 -0.6161 -0.5099
 8941TIP3   OH248313   6.381   3.615   1.621  0.2109  0.0417  0.1346
 8941TIP3    H148314   6.299   3.651   1.586  0.7238  1.7178  0.6435
 8941TIP3    H248315   6.382   3.524   1.590 -1.7511  0.0543 -0.0315
 8942TIP3   OH248316   5.842   6.517  14.661 -0.2525 -0.0003 -0.0369
 8942TIP3    H148317   5.833   6.530  14.566 -0.4162 -2.2600 -0.3611
 8942TIP3    H248318   5.762   6.469  14.685 -0.1960  0.5440  1.2487
 8943TIP3   OH248319   3.128   1.577  11.306 -0.3288 -0.1488 -0.4669
 8943TIP3    H148320   3.082   1.497  11.283 -0.1747 -0.4022  0.1003
 8943TIP3    H248321   3.131   1.576  11.402 -1.5021  1.1791 -0.3945
 8944TIP3   OH248322   0.978   0.415   3.007 -0.5484  0.8450  0.1367
 8944TIP3    H148323   0.984   0.334   3.058 -0.0154 -0.9377 -2.6943
 8944TIP3    H248324   1.029   0.479   3.057  1.7845 -1.4259  0.7236
 8945TIP3   OH248325   3.070   2.074  12.805  0.4056 -0.5098 -0.3466
 8945TIP3    H148326   3.126   2.135  12.852  0.3062 -1.4931  1.1052
 8945TIP3    H248327   3.030   2.126  12.735  0.3733  1.0434  0.8067
 8946TIP3   OH248328   4.625   0.746  12.956  0.3260 -0.3803  0.3580
 8946TIP3    H148329   4.701   0.790  12.916 -0.4431  0.3519 -0.3048
 8946TIP3    H248330   4.595   0.685  12.888  0.1991 -0.5280  0.5480
 8947TIP3   OH248331   0.932   3.955  14.807  0.0515  0.2741 -0.1816
 8947TIP3    H148332   0.871   4.023  14.836  0.0378  1.3179 -2.5790
 8947TIP3    H248333   1.018   3.999  14.808  0.6594 -0.8513  2.0540
 8948TIP3   OH248334   0.292   1.240   0.558  0.6057  0.4997  0.3899
 8948TIP3    H148335   0.381   1.245   0.591  0.4911  0.9996  0.6359
 8948TIP3    H248336   0.269   1.147   0.563  1.4698  0.2135 -0.6513
 8949TIP3   OH248337   5.022   0.923   6.067 -0.7025  0.3426  0.5375
 8949TIP3    H148338   5.064   0.977   6.134 -0.7714  1.2488 -0.1487
 8949TIP3    H248339   4.954   0.979   6.030 -1.1596 -0.4149  0.2270
 8950TIP3   OH248340   0.921   5.737   4.152  0.4325 -0.0077 -0.2681
 8950TIP3    H148341   0.962   5.742   4.239  0.9951  0.0971 -0.5407
 8950TIP3    H248342   0.830   5.765   4.168  1.0022  1.8095 -0.0270
 8951TIP3   OH248343   5.997   3.570   1.097 -0.0127 -0.1594  0.5201
 8951TIP3    H148344   6.014   3.623   1.019  1.2637  0.5091  1.2431
 8951TIP3    H248345   5.974   3.633   1.165  1.5888 -0.5094  1.4059
 8952TIP3   OH248346   3.147   6.651  16.292 -0.4992 -0.7173 -0.0995
 8952TIP3    H148347   3.143   6.740  16.328 -0.2347 -1.0794  0.8385
 8952TIP3    H248348   3.074   6.648  16.229  0.0633  0.4515 -0.8251
 8953TIP3   OH248349   2.038   0.510  15.786  0.0830  0.3420 -0.1793
 8953TIP3    H148350   2.002   0.542  15.703 -0.5095  0.0524 -0.0392
 8953TIP3    H248351   1.961   0.493  15.840  0.3781 -1.1134 -0.1839
 8954TIP3   OH248352   5.858   1.879  14.531 -0.7358  0.4941  0.1690
 8954TIP3    H148353   5.912   1.956  14.547  0.3654 -0.4615  1.1096
 8954TIP3    H248354   5.850   1.837  14.617 -2.1227  0.0698 -0.1508
 8955TIP3   OH248355   6.287   2.854   2.293 -0.6790 -0.5165 -0.0306
 8955TIP3    H148356   6.269   2.941   2.328 -2.8123 -0.6453 -0.7062
 8955TIP3    H248357   6.327   2.870   2.208  0.6939 -0.2113  0.6608
 8956TIP3   OH248358   0.070   5.303  15.843  0.2209 -0.7323  0.2378
 8956TIP3    H148359   0.039   5.393  15.838  1.8269 -0.0860  1.4137
 8956TIP3    H248360   0.091   5.280  15.753  1.3777  0.6673  0.1282
 8957TIP3   OH248361   5.916   4.009  12.736 -0.1495  0.0960  0.3149
 8957TIP3    H148362   5.866   4.088  12.715 -0.1917 -0.6896 -2.8239
 8957TIP3    H248363   6.004   4.026  12.701  0.1339 -0.8066  0.5812
 8958TIP3   OH248364   1.529   5.456   2.242 -0.4019 -0.4215 -0.5266
 8958TIP3    H148365   1.537   5.372   2.287  2.9172  0.0838 -0.0578
 8958TIP3    H248366   1.515   5.520   2.312  3.2717  0.1685 -0.2414
 8959TIP3   OH248367   5.519   1.929  13.285  0.1438  0.0698  0.4414
 8959TIP3    H148368   5.595   1.872  13.272  0.1417  0.3885 -1.0278
 8959TIP3    H248369   5.506   1.972  13.201  0.4931  2.7085  1.6801
 8960TIP3   OH248370   2.503   1.529   4.352 -0.1168  0.1108  0.3966
 8960TIP3    H148371   2.532   1.440   4.370 -0.4232 -0.1720 -0.5132
 8960TIP3    H248372   2.581   1.575   4.321 -0.0123  0.1033  0.6446
 8961TIP3   OH248373   2.485   5.070   4.178 -0.7028 -0.0155  0.0454
 8961TIP3    H148374   2.416   5.126   4.142  0.4897  0.5161 -1.4555
 8961TIP3    H248375   2.501   5.004   4.110  0.5692  0.1335  0.1901
 8962TIP3   OH248376   0.104   0.300   3.097 -0.2619  0.4630  0.0327
 8962TIP3    H148377   0.160   0.371   3.067  0.0907 -0.2268 -0.9930
 8962TIP3    H248378   0.055   0.273   3.019 -1.9841  1.0050  0.8952
 8963TIP3   OH248379   3.805   2.145   4.022 -0.2506 -0.1726  0.2491
 8963TIP3    H148380   3.883   2.119   4.071  0.3839  1.3842  0.1111
 8963TIP3    H248381   3.826   2.123   3.931 -0.2110 -0.3193  0.2938
 8964TIP3   OH248382   0.657   6.720   1.905 -0.1371  0.5739  0.4710
 8964TIP3    H148383   0.582   6.670   1.939 -0.4517  1.5331  1.1792
 8964TIP3    H248384   0.697   6.760   1.982  0.8861  0.3913  0.0492
 8965TIP3   OH248385   5.332   0.905  16.004 -0.3178  0.6985  0.2007
 8965TIP3    H148386   5.311   0.951  16.086 -1.7664  0.3322  0.0456
 8965TIP3    H248387   5.381   0.828  16.032 -0.5595  0.7249  0.7023
 8966TIP3   OH248388   3.142   3.685   0.639  0.0077 -0.0880 -0.8129
 8966TIP3    H148389   3.099   3.770   0.638  0.4669  0.1329 -2.1144
 8966TIP3    H248390   3.070   3.622   0.652 -0.3520  0.4674 -0.0558
 8967TIP3   OH248391   2.706   2.643  12.278  0.0272 -0.6080 -0.8013
 8967TIP3    H148392   2.644   2.570  12.282 -0.6073 -0.0346  0.2952
 8967TIP3    H248393   2.772   2.615  12.215 -2.0412 -0.6748 -2.9905
 8968TIP3   OH248394   0.599   4.821   1.919  0.3928  0.1858 -0.5588
 8968TIP3    H148395   0.519   4.860   1.883  0.3770  1.0809  0.4206
 8968TIP3    H248396   0.650   4.795   1.842  0.8587  3.0870 -1.2783
 8969TIP3   OH248397   6.282   1.260   5.360 -0.4076  0.2675 -0.5017
 8969TIP3    H148398   6.331   1.244   5.440 -1.2361 -2.2585 -0.4736
 8969TIP3    H248399   6.238   1.344   5.375 -0.8506 -0.3645  1.8525
 8970TIP3   OH248400   1.273   2.432  14.176  0.4150 -0.1587 -0.0687
 8970TIP3    H148401   1.326   2.356  14.203  1.8786  0.5909 -0.7855
 8970TIP3    H248402   1.266   2.424  14.081 -1.3482 -0.6112  0.0831
 8971TIP3   OH248403   0.637   1.141   0.690  0.1524 -0.0767  0.1483
 8971TIP3    H148404   0.671   1.077   0.752 -0.9584 -0.1414  0.6902
 8971TIP3    H248405   0.615   1.090   0.612 -1.0363 -0.4016  0.6968
 8972TIP3   OH248406   5.512   3.946   3.446 -0.4699  0.6218  0.3261
 8972TIP3    H148407   5.488   3.891   3.371  0.5227  0.3401  0.2085
 8972TIP3    H248408   5.508   4.036   3.412  0.7777  0.4525 -0.3057
 8973TIP3   OH248409   4.342   2.388   1.983 -0.6314  0.0252  0.1966
 8973TIP3    H148410   4.359   2.464   1.927  0.6737  0.0662  0.6367
 8973TIP3    H248411   4.306   2.425   2.063 -0.9636  0.0953  0.0155
 8974TIP3   OH248412   3.743   6.070   4.109 -0.1496 -0.5734  0.1518
 8974TIP3    H148413   3.768   5.980   4.085  2.6045  0.0859  0.3620
 8974TIP3    H248414   3.737   6.115   4.025  0.4328 -0.5016  0.1405
 8975TIP3   OH248415   6.093   1.756  14.018 -0.5647  0.7450  0.0405
 8975TIP3    H148416   6.168   1.738  14.074 -0.7278 -1.2953 -0.3467
 8975TIP3    H248417   6.131   1.780  13.933 -0.3501  1.8247  0.4293
 8976TIP3   OH248418   2.632   2.709  11.213 -0.0583 -1.0497  0.5151
 8976TIP3    H148419   2.690   2.687  11.140 -0.1018  1.2967 -0.2436
 8976TIP3    H248420   2.691   2.743  11.281 -0.3796 -0.2205  0.3719
 8977TIP3   OH248421   5.238   2.197  12.615 -0.5995  0.3176  0.1029
 8977TIP3    H148422   5.191   2.210  12.533 -2.3892 -2.7894  0.5408
 8977TIP3    H248423   5.327   2.227  12.597 -1.3896  1.2432 -2.4460
 8978TIP3   OH248424   3.940   5.118   0.485 -0.0793 -0.3703 -0.0630
 8978TIP3    H148425   3.945   5.111   0.580 -1.2446  2.0565  0.2152
 8978TIP3    H248426   3.889   5.197   0.469  0.4118 -0.5291 -2.7197
 8979TIP3   OH248427   1.413   3.413   0.704 -0.3300  0.0454 -0.5858
 8979TIP3    H148428   1.470   3.369   0.640 -1.3209 -0.9729 -0.7984
 8979TIP3    H248429   1.394   3.498   0.665  2.0516  0.9241  0.0694
 8980TIP3   OH248430   3.448   3.653  16.321 -0.1245 -0.2386  0.3398
 8980TIP3    H148431   3.466   3.623  16.410  1.2489 -0.4683  0.0062
 8980TIP3    H248432   3.360   3.689  16.324 -0.1778 -0.4762  1.7332
 8981TIP3   OH248433   1.166   0.407   6.013  0.3494 -0.1924  0.1473
 8981TIP3    H148434   1.225   0.465   5.964  1.9595 -2.7917 -1.1030
 8981TIP3    H248435   1.205   0.320   6.004 -2.9715 -1.7920  0.4058
 8982TIP3   OH248436   3.392   4.459  14.205 -0.0902  0.0792  0.5289
 8982TIP3    H148437   3.355   4.506  14.279 -0.4896  1.3543 -0.4524
 8982TIP3    H248438   3.319   4.449  14.144 -0.0147 -1.8996  0.7620
 8983TIP3   OH248439   5.439   2.039  15.409  0.1996  0.4128 -0.2046
 8983TIP3    H148440   5.507   1.979  15.442  0.8786  1.5442  0.4694
 8983TIP3    H248441   5.469   2.064  15.322 -0.1144 -0.2480 -0.5137
 8984TIP3   OH248442   6.267   1.718  12.622 -0.3996 -0.5343  0.4139
 8984TIP3    H148443   6.181   1.734  12.661  0.1112  0.4936  1.1240
 8984TIP3    H248444   6.275   1.622  12.622 -1.9338 -0.6809 -0.5282
 8985TIP3   OH248445   4.759   1.028   0.605 -0.5044 -0.0959  0.2067
 8985TIP3    H148446   4.738   1.021   0.698 -1.6193 -0.4952 -0.0674
 8985TIP3    H248447   4.849   0.995   0.598 -0.2511  0.3670  1.2053
 8986TIP3   OH248448   4.421   4.675   0.770 -0.1784  0.0355 -0.5281
 8986TIP3    H148449   4.495   4.673   0.710  0.2857 -1.6058  0.0709
 8986TIP3    H248450   4.398   4.583   0.784 -1.1498  0.4451  0.7198
 8987TIP3   OH248451   0.522   5.185   1.156 -0.3018  0.3892 -0.3505
 8987TIP3    H148452   0.466   5.146   1.224  1.0568  0.3590  0.7786
 8987TIP3    H248453   0.521   5.278   1.175  1.6678  0.1735  0.9596
 8988TIP3   OH248454   3.375   4.200  17.099 -0.6528  0.0499  0.0422
 8988TIP3    H148455   3.464   4.233  17.090 -0.6009 -0.1833 -0.2740
 8988TIP3    H248456   3.321   4.261  17.049 -0.5619 -0.3181 -0.5070
 8989TIP3   OH248457   1.188   5.664   1.746  0.2825  0.2321  0.3116
 8989TIP3    H148458   1.150   5.664   1.658  0.1400 -1.6016  0.3509
 8989TIP3    H248459   1.283   5.662   1.731  0.2346 -3.3365  0.1392
 8990TIP3   OH248460   5.873   1.279  14.418  0.2037  0.6971  0.2537
 8990TIP3    H148461   5.952   1.333  14.421  0.1272  0.7419  2.0047
 8990TIP3    H248462   5.888   1.210  14.483  0.4094 -1.5697 -2.1012
 8991TIP3   OH248463   0.092   2.770  11.984  0.2252  0.0776  0.3459
 8991TIP3    H148464   0.032   2.808  11.920 -0.2074 -0.0452  0.6762
 8991TIP3    H248465   0.178   2.802  11.958  0.2176 -1.0226 -1.0776
 8992TIP3   OH248466   4.507   5.404  16.850 -0.3434 -0.2148  0.0505
 8992TIP3    H148467   4.553   5.396  16.934 -1.0503  1.3731  0.6077
 8992TIP3    H248468   4.557   5.469  16.801 -0.6421 -0.2245 -0.2712
 8993TIP3   OH248469   1.865   4.651   1.964 -0.5007  0.0546 -0.4618
 8993TIP3    H148470   1.777   4.663   1.930 -1.1357 -0.5069  0.9157
 8993TIP3    H248471   1.893   4.567   1.930 -0.7101 -0.0075 -0.4811
 8994TIP3   OH248472   2.718   5.818   3.229  0.0363 -0.1399  0.1745
 8994TIP3    H148473   2.787   5.752   3.233 -1.0802 -1.1694  3.1001
 8994TIP3    H248474   2.765   5.901   3.240  0.7537 -0.9177  3.7792
 8995TIP3   OH248475   3.054   2.392  17.228 -0.3702 -0.3452  0.1006
 8995TIP3    H148476   3.022   2.378  17.317  1.5011 -1.5179  0.5993
 8995TIP3    H248477   3.141   2.352  17.226  0.8571  2.2490 -1.3994
 8996TIP3   OH248478   4.869   2.979  15.877  0.0823  0.8769 -0.4224
 8996TIP3    H148479   4.960   3.004  15.858  0.1153  0.2982 -1.0695
 8996TIP3    H248480   4.866   2.885  15.857 -0.7325  0.9548 -0.6870
 8997TIP3   OH248481   2.206   3.917   5.669  0.3998 -0.1203 -0.2448
 8997TIP3    H148482   2.129   3.869   5.638 -0.0254  0.3839  0.0147
 8997TIP3    H248483   2.173   4.006   5.685  0.8604 -0.1057  0.6167
 8998TIP3   OH248484   1.621   6.516   5.882  0.4300  0.3565  0.2280
 8998TIP3    H148485   1.525   6.520   5.883  0.2971 -1.6794 -1.7099
 8998TIP3    H248486   1.645   6.479   5.967 -0.5577 -0.2492  0.2423
 8999TIP3   OH248487   4.063   4.220  14.701  0.4785  0.0210  0.0905
 8999TIP3    H148488   4.081   4.282  14.772  0.6870  1.5358 -1.2424
 8999TIP3    H248489   4.148   4.184  14.677  0.8005  1.5226 -1.1484
 9000TIP3   OH248490   3.797   6.064  14.734  0.2637 -0.4150  0.3099
 9000TIP3    H148491   3.819   6.047  14.643  0.5349  2.0687 -0.1308
 9000TIP3    H248492   3.725   6.004  14.753 -1.3751  0.6495 -2.2675
 9001TIP3   OH248493   5.926   1.225   2.463  0.2460 -0.2454  0.5004
 9001TIP3    H148494   5.852   1.280   2.489  1.5191  1.7876 -0.0522
 9001TIP3    H248495   6.003   1.276   2.489  1.4555 -1.3657 -0.8629
 9002TIP3   OH248496   0.416   2.608   5.908  0.2062  0.0647 -0.1860
 9002TIP3    H148497   0.458   2.664   5.973  1.1479 -0.3561 -0.4244
 9002TIP3    H248498   0.391   2.529   5.956 -0.6713  0.4778  0.0414
 9003TIP3   OH248499   6.060   3.042   0.089 -0.3327  0.2817 -0.0955
 9003TIP3    H148500   6.082   2.954   0.119 -0.0154 -0.1458 -1.5449
 9003TIP3    H248501   6.121   3.100   0.137 -0.5823 -0.2697  0.8963
 9004TIP3   OH248502   4.444   2.739   1.960  0.6935  0.3012  0.2077
 9004TIP3    H148503   4.476   2.812   2.012  3.7632 -2.1692  1.8981
 9004TIP3    H248504   4.502   2.736   1.884  1.4738 -1.1781  0.8360
 9005TIP3   OH248505   2.141   4.757   3.487 -0.2632 -0.4643  0.1474
 9005TIP3    H148506   2.189   4.737   3.567 -1.9801  0.4636  1.4396
 9005TIP3    H248507   2.098   4.675   3.464  0.5820 -0.8474 -0.0667
 9006TIP3   OH248508   2.473   5.856  11.899  0.0950  0.7422 -0.3988
 9006TIP3    H148509   2.471   5.944  11.862  0.5187  1.4228  1.1455
 9006TIP3    H248510   2.382   5.826  11.895 -0.3268  1.8439  0.3950
 9007TIP3   OH248511   4.060   6.620   1.721  0.4424  0.0995 -0.9453
 9007TIP3    H148512   4.064   6.555   1.650  0.9610  0.1945 -1.0080
 9007TIP3    H248513   4.148   6.618   1.759 -0.3462 -1.2166  0.8501
 9008TIP3   OH248514   0.197   3.671   3.484 -0.2028  0.8173  0.6371
 9008TIP3    H148515   0.206   3.599   3.547  0.6959  0.2516 -0.1289
 9008TIP3    H248516   0.272   3.728   3.502  1.7397 -0.8625 -1.8463
 9009TIP3   OH248517   6.514   3.650  11.081  0.4987 -0.7745 -0.2595
 9009TIP3    H148518   6.550   3.732  11.048 -0.4802 -0.5192 -0.6829
 9009TIP3    H248519   6.516   3.590  11.006 -0.2718 -0.6583 -0.3764
 9010TIP3   OH248520   0.944   5.726  14.464 -0.7220  0.2309  0.0334
 9010TIP3    H148521   1.008   5.691  14.401  0.2781  1.0891  0.5662
 9010TIP3    H248522   0.869   5.749  14.410 -0.6118 -0.8246 -0.5995
 9011TIP3   OH248523   0.202   6.295  15.018 -0.1481 -0.7845 -0.1833
 9011TIP3    H148524   0.248   6.363  15.066 -0.3294  0.6549 -2.0043
 9011TIP3    H248525   0.212   6.216  15.072 -0.0812  0.6928  2.0206
 9012TIP3   OH248526   1.759   6.204  12.762 -0.3079  0.2880 -0.4740
 9012TIP3    H148527   1.745   6.255  12.682 -1.3764  0.5545 -0.1353
 9012TIP3    H248528   1.764   6.114  12.732 -0.4634  0.4090 -0.8738
 9013TIP3   OH248529   2.674   6.714   5.475 -0.2149 -0.1652 -0.6197
 9013TIP3    H148530   2.708   6.640   5.525  1.2890  0.3990 -0.7775
 9013TIP3    H248531   2.739   6.783   5.487  0.2264 -0.0427 -3.3894
 9014TIP3   OH248532   0.214   0.757   4.514 -0.2498 -0.1357  0.4754
 9014TIP3    H148533   0.180   0.832   4.464 -1.6633  0.1407  1.8201
 9014TIP3    H248534   0.162   0.683   4.485 -2.0360  0.2775  2.4912
 9015TIP3   OH248535   0.108   5.916   4.562 -0.2514  0.5913  0.2090
 9015TIP3    H148536   0.111   5.822   4.546 -0.5036  0.3238  1.6577
 9015TIP3    H248537   0.098   5.955   4.475  2.5729 -0.5577 -0.7110
 9016TIP3   OH248538   3.922   4.466   5.586  0.2563 -0.3505 -0.2397
 9016TIP3    H148539   3.848   4.503   5.539  0.3293 -2.2640 -1.9375
 9016TIP3    H248540   3.886   4.435   5.669 -0.9341 -1.6413 -1.2307
 9017TIP3   OH248541   4.256   3.291   1.446  0.2161  0.4628  0.7627
 9017TIP3    H148542   4.212   3.371   1.416  0.3848  0.3416  0.1810
 9017TIP3    H248543   4.349   3.312   1.440  0.4190 -1.0444 -3.1368
 9018TIP3   OH248544   5.421   3.430   4.478  0.7710 -0.1788  0.0567
 9018TIP3    H148545   5.336   3.467   4.454  0.3752 -2.4691 -2.2866
 9018TIP3    H248546   5.417   3.421   4.574 -2.5271 -2.2323 -0.1751
 9019TIP3   OH248547   6.242   4.548   6.437 -0.2912  0.6940 -0.1285
 9019TIP3    H148548   6.291   4.467   6.454 -1.2571  0.1627  0.1945
 9019TIP3    H248549   6.180   4.554   6.510 -1.6480  0.6126 -1.2590
 9020TIP3   OH248550   2.104   1.799  11.316 -0.4871  0.4875  0.2802
 9020TIP3    H148551   2.091   1.891  11.292 -1.7696 -0.1063 -1.3911
 9020TIP3    H248552   2.145   1.760  11.239  2.5461  0.1979  1.9634
 9021TIP3   OH248553   4.604   2.003   2.736 -0.5295  0.2262  0.1831
 9021TIP3    H148554   4.696   2.018   2.756 -0.3148 -0.2404 -0.4384
 9021TIP3    H248555   4.604   1.967   2.648 -1.4596  2.0015 -0.5611
 9022TIP3   OH248556   4.082   5.956  14.260 -0.4186 -0.3303 -0.6707
 9022TIP3    H148557   4.017   5.944  14.329 -0.9450 -0.1858 -1.1373
 9022TIP3    H248558   4.104   5.868  14.231  0.7596 -0.4560  0.5609
 9023TIP3   OH248559   4.490   2.138   6.390  0.1251  0.1215 -0.1195
 9023TIP3    H148560   4.434   2.096   6.455 -0.8915  0.5166 -0.7104
 9023TIP3    H248561   4.573   2.092   6.396 -1.0583 -2.2310 -0.9763
 9024TIP3   OH248562   2.367   0.946   5.084 -0.6755 -0.4847 -0.5895
 9024TIP3    H148563   2.313   1.018   5.050 -1.5369 -0.5406  0.6277
 9024TIP3    H248564   2.358   0.953   5.179  0.9932 -0.8712 -0.3905
 9025TIP3   OH248565   4.124   1.432  13.209 -0.0543 -0.3194  0.5275
 9025TIP3    H148566   4.107   1.465  13.297 -2.2167  0.7794 -0.2697
 9025TIP3    H248567   4.118   1.337  13.216 -0.0841 -0.2392  1.5761
 9026TIP3   OH248568   1.558   3.357  16.898 -0.1089 -0.1624 -0.0750
 9026TIP3    H148569   1.492   3.427  16.891  1.3063  1.1607 -0.5202
 9026TIP3    H248570   1.520   3.295  16.961 -0.5418  2.0338  1.9213
 9027TIP3   OH248571   1.452   6.350   5.379  0.6708  0.0258 -0.1262
 9027TIP3    H148572   1.540   6.317   5.394  0.2691 -1.4115 -0.8914
 9027TIP3    H248573   1.446   6.429   5.434  1.8691 -0.7789  1.1818
 9028TIP3   OH248574   2.806   4.382   2.630  0.3681 -0.0952 -0.5045
 9028TIP3    H148575   2.863   4.441   2.581 -0.1797  1.0604  0.2315
 9028TIP3    H248576   2.736   4.360   2.569  0.6207 -0.0563 -0.8094
 9029TIP3   OH248577   3.776   4.637  16.491  0.1849  0.1202 -0.3279
 9029TIP3    H148578   3.725   4.560  16.515  0.5775  0.4213  1.5219
 9029TIP3    H248579   3.785   4.686  16.572  1.5444  1.1841 -1.1000
 9030TIP3   OH248580   4.144   0.683   1.443  0.3853  0.0623 -0.7330
 9030TIP3    H148581   4.121   0.773   1.465 -1.4484 -0.4396 -0.5325
 9030TIP3    H248582   4.166   0.642   1.527 -0.2601 -0.0919 -0.6410
 9031TIP3   OH248583   3.489   5.293  11.750 -0.3527  0.1291 -0.3477
 9031TIP3    H148584   3.479   5.372  11.698  0.7648  1.4259  1.3576
 9031TIP3    H248585   3.564   5.310  11.807 -1.4585 -1.2638  1.6228
 9032TIP3   OH248586   2.576   5.602  15.514 -0.5764 -0.0128 -0.0011
 9032TIP3    H148587   2.513   5.657  15.560 -0.6505  1.0546 -1.3716
 9032TIP3    H248588   2.637   5.573  15.583 -0.5442  1.7703  0.7337
 9033TIP3   OH248589   1.575   4.557   3.483  0.2596 -0.6916  0.2243
 9033TIP3    H148590   1.522   4.552   3.403 -1.2223  1.9103  0.9546
 9033TIP3    H248591   1.518   4.523   3.552  0.2041  0.3212  0.6990
 9034TIP3   OH248592   5.775   5.488  15.756 -0.1404 -0.0694  0.0340
 9034TIP3    H148593   5.802   5.415  15.811 -0.8503 -2.2299 -2.3776
 9034TIP3    H248594   5.856   5.529  15.727  0.3518 -1.3764 -0.4761
 9035TIP3   OH248595   1.143   4.180   2.244 -0.1981  0.2377  0.2994
 9035TIP3    H148596   1.219   4.190   2.301  0.2994  0.5085 -0.3982
 9035TIP3    H248597   1.068   4.203   2.300 -0.1992 -3.8693  2.1439
 9036TIP3   OH248598   5.684   3.707  12.772  0.0838  0.1486  0.1288
 9036TIP3    H148599   5.667   3.646  12.844 -0.9000 -0.3845 -0.5411
 9036TIP3    H248600   5.672   3.654  12.693  1.7994  0.5693 -0.4257
 9037TIP3   OH248601   1.235   2.983  13.905 -0.0225  0.4844  0.4423
 9037TIP3    H148602   1.169   2.967  13.972  2.2600 -1.8731  2.2059
 9037TIP3    H248603   1.184   3.008  13.827 -2.8723  0.2835  2.1779
 9038TIP3   OH248604   1.123   5.802   3.679 -0.1628  0.2380 -0.2984
 9038TIP3    H148605   1.203   5.806   3.626 -1.0021 -0.0777 -1.6112
 9038TIP3    H248606   1.090   5.892   3.679 -0.9397 -0.0251 -1.5646
 9039TIP3   OH248607   3.425   3.939   1.779  0.2611 -0.8301  0.2722
 9039TIP3    H148608   3.331   3.956   1.788  0.4470  0.2375  0.2604
 9039TIP3    H248609   3.466   3.997   1.843  0.9263 -1.1705  0.1593
 9040TIP3   OH248610   0.203   2.385   0.919 -0.8156 -0.1496 -0.0043
 9040TIP3    H148611   0.175   2.455   0.978  0.2413 -0.6541  1.1105
 9040TIP3    H248612   0.122   2.341   0.895 -1.3314  0.4931  0.5192
 9041TIP3   OH248613   2.873   2.423   3.574 -0.7261  0.4098 -0.2751
 9041TIP3    H148614   2.813   2.376   3.632 -1.9932  1.1294 -0.9946
 9041TIP3    H248615   2.960   2.408   3.612 -1.1197 -2.2802 -0.3055
 9042TIP3   OH248616   1.073   2.763   0.954  0.1423  0.0573 -0.4404
 9042TIP3    H148617   1.046   2.724   1.037  0.3758  0.0604 -0.3605
 9042TIP3    H248618   1.166   2.741   0.947  0.1704  0.2274 -0.6053
 9043TIP3   OH248619   2.306   3.147   2.325 -0.5984 -0.2574  0.0068
 9043TIP3    H148620   2.235   3.210   2.310  0.5529  1.3342  1.0940
 9043TIP3    H248621   2.366   3.160   2.252  1.2652  2.2389  1.9117
 9044TIP3   OH248622   6.672   6.064  17.068 -0.2164 -0.6138 -0.0368
 9044TIP3    H148623   6.709   5.988  17.023 -0.6839 -0.9750  0.1908
 9044TIP3    H248624   6.738   6.133  17.057  0.2274 -1.0652 -0.1988
 9045TIP3   OH248625   5.598   5.211   3.483 -0.1729  0.3292 -0.6947
 9045TIP3    H148626   5.580   5.297   3.521  0.4517  0.4872 -0.7433
 9045TIP3    H248627   5.599   5.152   3.558 -1.2982  0.2503 -0.7442
 9046TIP3   OH248628   1.467   4.617   0.753 -0.0996  0.2604 -0.9036
 9046TIP3    H148629   1.454   4.674   0.829 -1.2693 -0.6457 -0.4110
 9046TIP3    H248630   1.467   4.528   0.789  1.2009 -0.0864 -1.7284
 9047TIP3   OH248631   0.395   3.259   6.944  0.1257  0.3113  0.2561
 9047TIP3    H148632   0.434   3.183   6.899 -2.0758  0.3127 -1.7449
 9047TIP3    H248633   0.410   3.242   7.037  0.4179 -2.1618 -0.2038
 9048TIP3   OH248634   3.853   3.120   5.317  0.1682  0.2494 -0.3272
 9048TIP3    H148635   3.939   3.140   5.355  0.3672 -0.4885 -0.3955
 9048TIP3    H248636   3.871   3.100   5.225 -0.2383  1.3782 -0.6559
 9049TIP3   OH248637   2.457   1.644   2.702 -0.1875  0.4311 -0.1144
 9049TIP3    H148638   2.468   1.691   2.784  2.2309  0.1948 -0.2599
 9049TIP3    H248639   2.491   1.556   2.721 -0.2597  0.1731 -1.1668
 9050TIP3   OH248640   1.150   0.639  12.866  0.3269  0.8955  0.9476
 9050TIP3    H148641   1.194   0.563  12.826  0.7127  1.7389 -0.2851
 9050TIP3    H248642   1.057   0.618  12.861  0.2529  1.6741 -1.9686
 9051TIP3   OH248643   5.918   4.170  13.112 -0.2804  0.7846  0.0161
 9051TIP3    H148644   5.831   4.156  13.075  0.7332 -0.4313 -2.0310
 9051TIP3    H248645   5.971   4.197  13.037  1.7016 -1.0678  0.7198
 9052TIP3   OH248646   4.495   1.930  11.307  0.0045 -0.0101 -0.0818
 9052TIP3    H148647   4.581   1.920  11.347 -0.3195 -0.6016  0.4707
 9052TIP3    H248648   4.433   1.916  11.379 -0.5816 -1.1035 -0.7889
 9053TIP3   OH248649   5.822   0.067  15.285  0.6276 -0.6029 -0.4070
 9053TIP3    H148650   5.758   0.101  15.223  0.7121  1.2023  0.4865
 9053TIP3    H248651   5.902   0.115  15.265  1.3943 -1.9475 -0.6749
 9054TIP3   OH248652   6.519   4.080   4.180  0.6471  0.4581 -0.0419
 9054TIP3    H148653   6.530   4.170   4.211  0.1091  0.6953 -0.5221
 9054TIP3    H248654   6.580   4.028   4.233  0.9217  1.0962  0.2708
 9055TIP3   OH248655   1.577   6.134  13.376 -0.4872  0.2942 -0.1968
 9055TIP3    H148656   1.597   6.132  13.470 -1.9389  0.0010  0.1233
 9055TIP3    H248657   1.481   6.136  13.372 -0.4819 -1.2433 -1.6993
 9056TIP3   OH248658   0.561   6.118   0.708  0.1930 -0.5377 -0.5232
 9056TIP3    H148659   0.551   6.117   0.803  0.9494 -0.5357 -0.4392
 9056TIP3    H248660   0.649   6.082   0.693  0.7075  0.9206 -1.1236
 9057TIP3   OH248661   2.565   5.046   1.053  0.4980 -0.1795 -0.2900
 9057TIP3    H148662   2.647   5.093   1.068  0.3327  0.0236 -0.0027
 9057TIP3    H248663   2.573   4.966   1.106 -0.5842  1.1210  1.8913
 9058TIP3   OH248664   0.542   3.136  15.072 -0.5841 -0.2279  0.9217
 9058TIP3    H148665   0.497   3.107  14.993  0.5332 -0.7335  0.4468
 9058TIP3    H248666   0.608   3.068  15.088  0.1798  0.6143  1.4392
 9059TIP3   OH248667   5.929   5.112  11.570  0.5325 -0.0983  0.1645
 9059TIP3    H148668   6.018   5.082  11.588  0.9304  1.0515  0.1497
 9059TIP3    H248669   5.912   5.178  11.637  0.0420  0.3531 -0.3977
 9060TIP3   OH248670   4.014   5.991  16.660 -0.6769  0.1163  0.0378
 9060TIP3    H148671   4.032   6.033  16.575 -1.4210  1.0114  0.3127
 9060TIP3    H248672   4.082   6.026  16.718  0.4031 -1.2135 -0.4080
 9061TIP3   OH248673   3.594   5.331  16.331 -0.5119 -0.2614 -0.6696
 9061TIP3    H148674   3.661   5.322  16.263 -1.2535  1.9114 -1.7417
 9061TIP3    H248675   3.639   5.309  16.412  1.2969  0.3455 -1.4884
 9062TIP3   OH248676   6.641   1.581   2.045  0.0981  0.0974  0.4342
 9062TIP3    H148677   6.549   1.581   2.018  0.1261  0.9265  0.3236
 9062TIP3    H248678   6.682   1.515   1.990 -0.2786  0.2564 -0.0395
 9063TIP3   OH248679   0.459   0.147   4.391 -0.7176  0.0927  0.2687
 9063TIP3    H148680   0.442   0.077   4.453 -0.6237  0.2422  0.4611
 9063TIP3    H248681   0.458   0.227   4.443 -0.2149  0.1791  0.1497
 9064TIP3   OH248682   5.468   0.695   4.961  0.0522 -0.6027  0.1535
 9064TIP3    H148683   5.497   0.605   4.970 -0.2756 -0.7391 -0.1268
 9064TIP3    H248684   5.397   0.705   5.025 -1.3868 -1.1895 -1.3004
 9065TIP3   OH248685   1.310   4.873   4.484  0.0146  0.0339 -0.4647
 9065TIP3    H148686   1.246   4.810   4.450  1.1478 -1.0419 -0.6278
 9065TIP3    H248687   1.336   4.837   4.569 -2.2513  2.3283  1.3059
 9066TIP3   OH248688   6.561   4.188   0.112 -0.3953 -0.0470  0.6360
 9066TIP3    H148689   6.489   4.127   0.128 -0.2138 -0.9059 -1.6007
 9066TIP3    H248690   6.517   4.270   0.087 -0.6225  0.0010  1.1998
 9067TIP3   OH248691   2.043   3.477  15.854 -0.2463 -0.2792  0.3545
 9067TIP3    H148692   2.027   3.567  15.828 -3.2621 -0.7935  0.2033
 9067TIP3    H248693   2.047   3.428  15.772 -0.3047 -0.5124  0.4886
 9068TIP3   OH248694   0.954   0.736   2.882  0.0945 -0.1844 -0.6148
 9068TIP3    H148695   0.921   0.726   2.793 -1.3803 -0.8924 -0.0128
 9068TIP3    H248696   0.881   0.709   2.938  0.7413  0.9260  0.8230
 9069TIP3   OH248697   1.958   3.038   5.950 -0.0965  0.2731  0.0757
 9069TIP3    H148698   2.042   3.074   5.978  0.1107 -0.1197 -0.0392
 9069TIP3    H248699   1.893   3.086   6.001  0.0734  1.9852 -1.2693
 9070TIP3   OH248700   1.696   3.273  11.695  0.0325 -0.1196 -0.7283
 9070TIP3    H148701   1.684   3.239  11.607  0.4693  0.7519 -1.1286
 9070TIP3    H248702   1.744   3.204  11.741  0.2178 -0.3777 -1.3056
 9071TIP3   OH248703   5.515   5.032   3.978  0.2234  0.0721  0.2466
 9071TIP3    H148704   5.521   5.123   4.008 -2.3134  0.5990 -0.6973
 9071TIP3    H248705   5.453   4.991   4.037  1.3206 -1.0521  0.6361
 9072TIP3   OH248706   1.210   5.025   0.627 -0.6060 -0.1885  0.3014
 9072TIP3    H148707   1.287   4.970   0.636  0.2237  1.1369  1.7388
 9072TIP3    H248708   1.163   4.991   0.551  1.9206 -0.3836 -1.2107
 9073TIP3   OH248709   5.213   1.214   3.472  0.2230  0.1305 -0.1252
 9073TIP3    H148710   5.119   1.204   3.459  0.5328  0.6979 -3.2977
 9073TIP3    H248711   5.222   1.286   3.534 -1.3938  0.8244 -0.6783
 9074TIP3   OH248712   4.511   5.636  12.215 -1.0305  0.0387  0.1953
 9074TIP3    H148713   4.589   5.671  12.257 -1.7724  1.6380  0.3067
 9074TIP3    H248714   4.501   5.688  12.136 -2.1659  0.0843  0.3539
 9075TIP3   OH248715   5.629   2.857   2.849 -0.2297 -0.1422 -0.5704
 9075TIP3    H148716   5.533   2.864   2.852 -0.1914  1.5506 -2.1370
 9075TIP3    H248717   5.645   2.774   2.804 -0.9375 -1.2791  1.2377
 9076TIP3   OH248718   3.093   3.366  13.213  0.0162  0.3298 -0.8598
 9076TIP3    H148719   3.017   3.308  13.213  0.5689 -0.4089 -0.0815
 9076TIP3    H248720   3.163   3.314  13.252  0.5418  1.4973 -0.2069
 9077TIP3   OH248721   5.229   6.189   4.633  0.8364 -0.2208  0.4998
 9077TIP3    H148722   5.160   6.245   4.599 -0.9648 -2.0172  1.0592
 9077TIP3    H248723   5.310   6.233   4.609 -0.5015  2.4591  0.6964
 9078TIP3   OH248724   5.799   0.807  15.314  0.4371  0.1765 -0.0980
 9078TIP3    H148725   5.719   0.801  15.365  0.6056  0.9879  0.2714
 9078TIP3    H248726   5.813   0.901  15.301  0.2189 -0.0064 -1.9089
 9079TIP3   OH248727   3.682   4.141   4.892 -0.0667 -0.2998  0.0180
 9079TIP3    H148728   3.669   4.089   4.813  2.2896 -0.0850 -0.5658
 9079TIP3    H248729   3.647   4.227   4.871  0.0253 -0.4138 -0.6042
 9080TIP3   OH248730   0.068   6.784   6.734  0.4828  0.6738 -0.0619
 9080TIP3    H148731   0.144   6.808   6.786  0.0776 -0.1238  0.9082
 9080TIP3    H248732   0.021   6.721   6.788  1.0860 -1.6875 -2.2151
 9081TIP3   OH248733   6.256   1.290  13.302 -0.3156 -0.7629  0.1282
 9081TIP3    H148734   6.168   1.314  13.273  0.2086  1.4133  0.2228
 9081TIP3    H248735   6.274   1.351  13.374  1.3421 -1.0580 -0.0218
 9082TIP3   OH248736   6.609   5.346  17.126 -0.2565  0.5408  0.5317
 9082TIP3    H148737   6.681   5.286  17.144 -1.9245 -1.9713 -0.8607
 9082TIP3    H248738   6.601   5.400  17.204  1.2579 -1.0990  1.8328
 9083TIP3   OH248739   3.975   3.326  15.780 -0.4755  0.1676 -0.6845
 9083TIP3    H148740   3.902   3.383  15.805 -0.8043 -0.8591  0.7758
 9083TIP3    H248741   4.028   3.379  15.722 -1.6645  1.4006 -0.6729
 9084TIP3   OH248742   2.298   3.967   0.031  0.3290  0.3007 -0.4899
 9084TIP3    H148743   2.275   3.999   0.118  0.3461 -1.0686  0.0380
 9084TIP3    H248744   2.368   4.025   0.002  0.0301  1.0369  0.2264
 9085TIP3   OH248745   6.662   1.308  16.645  0.0418  0.4453  0.6454
 9085TIP3    H148746   6.677   1.372  16.714  1.0611  0.5271  0.3648
 9085TIP3    H248747   6.747   1.302  16.600 -0.3252 -0.3543  0.0476
 9086TIP3   OH248748   0.849   4.652   2.417 -0.0665 -0.4967 -0.2141
 9086TIP3    H148749   0.840   4.671   2.324 -1.8797  2.2324  0.4743
 9086TIP3    H248750   0.848   4.738   2.460  0.0769 -1.7297  2.3871
 9087TIP3   OH248751   4.150   6.624  11.617  0.2350 -0.3312 -0.0665
 9087TIP3    H148752   4.165   6.671  11.535  0.2924 -1.6073 -0.7994
 9087TIP3    H248753   4.221   6.560  11.621  0.1820 -0.3332  0.9478
 9088TIP3   OH248754   0.998   0.735   5.598  0.0482  0.8261  0.1299
 9088TIP3    H148755   0.965   0.699   5.516 -1.8267 -1.2229  1.7140
 9088TIP3    H248756   1.033   0.659   5.645 -1.1423  1.5407  2.2391
 9089TIP3   OH248757   2.444   6.593   5.913 -0.2375  0.0859  0.3831
 9089TIP3    H148758   2.433   6.622   6.004 -0.6178 -1.4987  0.8510
 9089TIP3    H248759   2.531   6.625   5.889  0.1975 -0.1599  1.5715
 9090TIP3   OH248760   1.686   5.225   3.560  0.0531 -0.5500 -0.4542
 9090TIP3    H148761   1.706   5.132   3.549  0.0166 -0.6660  0.4505
 9090TIP3    H248762   1.602   5.236   3.515 -0.4186 -1.1575  0.2743
 9091TIP3   OH248763   6.057   4.596   1.380 -0.1397 -0.6847 -0.1181
 9091TIP3    H148764   5.994   4.656   1.420 -1.0681 -1.4665 -0.3887
 9091TIP3    H248765   6.040   4.512   1.423 -0.0926 -1.1677 -1.0440
 9092TIP3   OH248766   6.253   4.779   0.273 -0.0589  0.4392  0.3817
 9092TIP3    H148767   6.320   4.723   0.233 -0.8220 -0.3090  0.1584
 9092TIP3    H248768   6.200   4.720   0.326 -2.7545  0.3966 -2.2685
 9093TIP3   OH248769   4.201   4.526  11.132 -0.5130  0.3968  0.1507
 9093TIP3    H148770   4.147   4.591  11.175 -0.6321  0.5920 -0.2864
 9093TIP3    H248771   4.198   4.450  11.190 -1.0382  0.4970  0.2607
 9094TIP3   OH248772   2.282   0.921  13.256 -0.1882  0.1315  0.5820
 9094TIP3    H148773   2.351   0.876  13.208 -0.2393  2.2705 -1.6106
 9094TIP3    H248774   2.328   0.984  13.312 -0.2985  1.7755 -1.1079
 9095TIP3   OH248775   0.093   0.670  16.077  0.2136 -0.5730 -0.2393
 9095TIP3    H148776   0.069   0.605  16.012 -1.3920 -0.2460  0.0024
 9095TIP3    H248777   0.172   0.711  16.042  0.7777 -2.0787 -0.7804
 9096TIP3   OH248778   2.503   6.468   6.622  0.1817 -0.1321 -0.2920
 9096TIP3    H148779   2.548   6.549   6.598  2.1027 -1.7673 -2.3796
 9096TIP3    H248780   2.423   6.498   6.667  1.8366  2.8511  0.8202
 9097TIP3   OH248781   5.871   2.344   3.684  0.1985  0.7686  0.2533
 9097TIP3    H148782   5.963   2.339   3.710  0.4989 -0.1004 -0.9480
 9097TIP3    H248783   5.869   2.310   3.595 -1.1675  1.5625 -0.0369
 9098TIP3   OH248784   2.372   4.627   3.316  0.3809 -0.4513  0.1841
 9098TIP3    H148785   2.434   4.570   3.360 -0.0597 -1.3434 -0.3476
 9098TIP3    H248786   2.286   4.600   3.348  0.1574 -0.1961 -0.1837
 9099TIP3   OH248787   3.401   5.376   5.728  0.4050  0.0004  0.4606
 9099TIP3    H148788   3.371   5.304   5.672 -0.9323 -2.5961  4.3561
 9099TIP3    H248789   3.492   5.355   5.747  0.6470  0.5049 -0.1200
 9100TIP3   OH248790   5.072   4.100   3.340  0.0134  0.3327 -0.2970
 9100TIP3    H148791   5.035   4.146   3.416 -0.1026  0.1001 -0.2117
 9100TIP3    H248792   5.162   4.133   3.333  0.3360 -0.3482  0.5253
 9101TIP3   OH248793   5.815   3.646  17.290 -0.4238  0.1119 -0.1161
 9101TIP3    H148794   5.828   3.578  17.356 -3.1750  0.1868  0.5564
 9101TIP3    H248795   5.880   3.713  17.311  0.5530 -1.0994  0.8139
 9102TIP3   OH248796   5.764   4.193  14.716 -0.1921 -0.1773  0.2668
 9102TIP3    H148797   5.686   4.170  14.766 -0.8560  0.4852 -0.4436
 9102TIP3    H248798   5.769   4.126  14.647 -0.2609 -0.0992  0.1841
 9103TIP3   OH248799   4.345   4.690   4.907  0.2952  0.7261 -0.3643
 9103TIP3    H148800   4.409   4.721   4.970 -0.4666 -2.0690  1.8930
 9103TIP3    H248801   4.276   4.650   4.960 -0.3784 -1.7048 -2.9177
 9104TIP3   OH248802   0.102   2.402  16.336  0.1106  0.1651 -0.0721
 9104TIP3    H148803   0.143   2.391  16.422  0.5524 -0.6161 -0.3805
 9104TIP3    H248804   0.031   2.465  16.351  0.7736  0.7469  0.6752
 9105TIP3   OH248805   6.802   6.303  13.095 -0.8335 -0.2988  0.3749
 9105TIP3    H148806   6.889   6.268  13.077 -0.6053 -0.3990  1.6060
 9105TIP3    H248807   6.742   6.234  13.066 -0.7026  1.2830 -4.0103
 9106TIP3   OH248808   5.535   6.631   3.985  0.2314 -0.0322  0.4019
 9106TIP3    H148809   5.440   6.639   3.981  0.0445 -1.7877  0.8364
 9106TIP3    H248810   5.551   6.539   4.007  2.0278  0.2458  0.3901
 9107TIP3   OH248811   3.800   3.394   2.357 -0.3704  0.3099  0.4102
 9107TIP3    H148812   3.871   3.331   2.372  0.6111  0.8444 -1.8733
 9107TIP3    H248813   3.830   3.474   2.400 -0.0731  0.2329  0.3461
 9108TIP3   OH248814   6.079   5.535  14.110  0.5900 -0.9715 -0.3580
 9108TIP3    H148815   5.984   5.531  14.126  0.6186 -0.3557 -0.0216
 9108TIP3    H248816   6.117   5.553  14.196  0.8938  0.4307 -0.7745
 9109TIP3   OH248817   5.031   5.240  15.360 -0.0096 -0.0062 -0.2386
 9109TIP3    H148818   5.110   5.221  15.411  0.6553 -0.0590 -1.2798
 9109TIP3    H248819   4.978   5.161  15.367  0.6188 -0.4634 -0.6182
 9110TIP3   OH248820   6.022   0.956   2.420 -0.2301 -0.1725  0.4032
 9110TIP3    H148821   5.992   1.046   2.434 -1.6299 -0.6334  0.5080
 9110TIP3    H248822   5.987   0.908   2.495  0.5434 -0.7891  0.3686
 9111TIP3   OH248823   4.554   5.271  11.892  0.0382  0.8012  0.1106
 9111TIP3    H148824   4.550   5.334  11.964 -1.4445  0.0816  0.6807
 9111TIP3    H248825   4.630   5.298  11.841  0.6090  1.8300  1.4742
 9112TIP3   OH248826   3.868   3.431   2.777 -0.2132  0.5187 -0.2569
 9112TIP3    H148827   3.894   3.492   2.846 -0.8682 -2.1900  2.5114
 9112TIP3    H248828   3.774   3.418   2.792  0.2194 -2.3150  0.1945
 9113TIP3   OH248829   5.499   3.711  13.101 -0.1163 -0.3891 -0.7193
 9113TIP3    H148830   5.584   3.735  13.138 -0.7638 -1.1459  1.3432
 9113TIP3    H248831   5.437   3.770  13.145 -0.6136  0.6384 -2.7115
 9114TIP3   OH248832   6.470   5.293   0.503 -0.0071  0.1479  0.0046
 9114TIP3    H148833   6.414   5.317   0.577  0.0314  2.4744 -0.7007
 9114TIP3    H248834   6.498   5.203   0.523 -1.2321  0.1808  2.0339
 9115TIP3   OH248835   5.206   4.005   2.389  0.1164  0.8221  0.5057
 9115TIP3    H148836   5.262   4.010   2.311  0.2995  0.1308  0.5841
 9115TIP3    H248837   5.199   3.911   2.407 -0.1427  0.9637  1.1655
 9116TIP3   OH248838   5.567   6.289   1.325 -0.3233  0.1698  0.5847
 9116TIP3    H148839   5.564   6.221   1.257 -0.3627 -0.7285  1.4647
 9116TIP3    H248840   5.651   6.273   1.370  1.5107  3.0991 -1.6056
 9117TIP3   OH248841   0.415   3.352  13.737 -0.4987  0.1314  0.0228
 9117TIP3    H148842   0.399   3.292  13.665 -0.1922  0.3016 -0.1921
 9117TIP3    H248843   0.353   3.326  13.805  0.3555 -1.1189  0.3453
 9118TIP3   OH248844   6.629   5.915   3.263 -0.3809  0.5840  0.2853
 9118TIP3    H148845   6.687   5.925   3.187 -0.1132 -0.3081  0.3629
 9118TIP3    H248846   6.659   5.834   3.304 -1.4796  0.2921  0.5075
 9119TIP3   OH248847   5.106   5.107  14.639  0.4146  0.1763 -0.2706
 9119TIP3    H148848   5.142   5.051  14.569  0.5548  0.0950 -0.1328
 9119TIP3    H248849   5.178   5.164  14.663  0.2035  0.5690 -0.5646
 9120TIP3   OH248850   3.608   6.118   1.241  0.3741  1.0203 -0.0886
 9120TIP3    H148851   3.701   6.093   1.238 -0.1305 -1.1677  1.4702
 9120TIP3    H248852   3.605   6.194   1.299  1.1998  1.1629 -0.2270
 9121TIP3   OH248853   1.603   0.687   5.694 -0.1638  0.0333  0.0434
 9121TIP3    H148854   1.641   0.614   5.743  0.1079  0.3075  0.2385
 9121TIP3    H248855   1.678   0.732   5.655 -0.3827 -0.2087 -0.6588
 9122TIP3   OH248856   4.006   4.225   4.874 -0.0118  0.6830 -0.2519
 9122TIP3    H148857   3.921   4.185   4.852  0.0140  0.7225 -0.4209
 9122TIP3    H248858   3.986   4.285   4.945 -0.2698  1.3068 -0.8506
 9123TIP3   OH248859   4.805   0.780  13.385  0.0657 -0.2928 -0.6512
 9123TIP3    H148860   4.837   0.841  13.319 -1.3792  0.4367 -0.7151
 9123TIP3    H248861   4.748   0.721  13.337  0.1576 -0.6633 -0.3077
 9124TIP3   OH248862   0.214   6.320  12.946 -0.4553 -0.0823  0.2982
 9124TIP3    H148863   0.277   6.273  13.000  0.0251  0.6326  0.3561
 9124TIP3    H248864   0.215   6.410  12.979 -0.5281  0.2410 -0.5624
 9125TIP3   OH248865   4.250   5.633  12.063  0.2698  0.1865 -0.2406
 9125TIP3    H148866   4.291   5.623  11.977 -0.0227  0.2511 -0.3863
 9125TIP3    H248867   4.314   5.597  12.125  0.8235  0.8669 -0.4083
 9126TIP3   OH248868   3.813   6.583  11.543  0.4920 -0.1294 -0.3211
 9126TIP3    H148869   3.815   6.514  11.475 -0.2884 -3.1318  2.5689
 9126TIP3    H248870   3.747   6.645  11.512 -1.5967 -2.6883 -1.2355
 9127TIP3   OH248871   5.572   3.168  16.121 -0.1190  0.1153 -0.4598
 9127TIP3    H148872   5.537   3.079  16.131 -0.3821  0.2209 -0.4130
 9127TIP3    H248873   5.649   3.159  16.066 -0.2722 -0.1134 -0.6339
 9128TIP3   OH248874   1.184   3.374   4.637 -0.4780 -1.1706 -0.4102
 9128TIP3    H148875   1.139   3.343   4.716 -1.0277 -2.2478 -1.1169
 9128TIP3    H248876   1.150   3.317   4.567 -1.2425  0.8147 -1.7191
 9129TIP3   OH248877   0.447   3.128  11.010 -0.3922  0.2222  0.0453
 9129TIP3    H148878   0.357   3.097  11.011  0.1252 -1.4050 -1.3346
 9129TIP3    H248879   0.482   3.096  10.927  1.0926  1.8795  0.0248
 9130TIP3   OH248880   2.224   2.323  13.779 -0.9057 -0.3634  0.2216
 9130TIP3    H148881   2.311   2.285  13.782  0.5791  2.6172 -2.2345
 9130TIP3    H248882   2.196   2.313  13.688 -2.0213  1.0169  0.3950
 9131TIP3   OH248883   3.557   5.981   0.520 -0.4745  0.0509  0.1502
 9131TIP3    H148884   3.486   5.934   0.563  0.1648 -0.9648  0.1138
 9131TIP3    H248885   3.632   5.969   0.578  0.8280 -2.7156 -1.9973
 9132TIP3   OH248886   4.685   6.568   5.157 -0.2349  0.6168 -0.0872
 9132TIP3    H148887   4.690   6.544   5.250 -1.2426  0.1683 -0.1443
 9132TIP3    H248888   4.761   6.524   5.117  0.2675  0.9083  0.5412
 9133TIP3   OH248889   1.661   3.524   4.271  0.3091 -0.6296  0.7009
 9133TIP3    H148890   1.722   3.511   4.198  0.6206 -1.0543  1.0342
 9133TIP3    H248891   1.711   3.576   4.334  0.1621 -0.5687  0.7659
 9134TIP3   OH248892   5.588   0.951  14.168  0.1561 -0.1991 -0.4251
 9134TIP3    H148893   5.529   0.948  14.092 -1.0916 -1.4279  0.5657
 9134TIP3    H248894   5.583   0.863  14.205  0.6558  0.4319  1.1592
 9135TIP3   OH248895   2.852   5.643   4.247  0.3784  0.0045 -0.3941
 9135TIP3    H148896   2.859   5.618   4.339 -0.6339 -0.7986 -0.5219
 9135TIP3    H248897   2.789   5.715   4.246  1.1998  0.7331 -0.3440
 9136TIP3   OH248898   6.041   2.676   2.004 -0.9270 -0.0300  1.0634
 9136TIP3    H148899   6.082   2.762   2.014 -0.2815  0.0282 -1.7497
 9136TIP3    H248900   6.004   2.677   1.916 -1.6252 -2.3498  1.3017
 9137TIP3   OH248901   3.833   6.373  16.450  0.0840 -0.3742  0.4603
 9137TIP3    H148902   3.796   6.286  16.433  2.2501 -1.3908  0.7940
 9137TIP3    H248903   3.778   6.410  16.519 -0.4008 -1.7944  0.8488
 9138TIP3   OH248904   2.638   4.383  15.529  0.4157  0.2674 -0.2130
 9138TIP3    H148905   2.703   4.377  15.599  0.6378  1.0948 -0.3440
 9138TIP3    H248906   2.555   4.401  15.574 -0.0452 -2.3324  0.0930
 9139TIP3   OH248907   3.850   6.227  14.196 -0.2314  0.3358 -0.4684
 9139TIP3    H148908   3.827   6.235  14.288 -0.5103  1.5056 -0.6389
 9139TIP3    H248909   3.775   6.264  14.149  1.2334  2.6277 -1.0808
 9140TIP3   OH248910   6.564   1.146  14.027  0.3761  0.3033  0.6190
 9140TIP3    H148911   6.586   1.203  14.101  0.1439 -0.9627  1.6732
 9140TIP3    H248912   6.479   1.109  14.050  0.7820 -0.9042  0.2063
 9141TIP3   OH248913   3.009   0.382  16.882 -0.1223  0.1420  0.5892
 9141TIP3    H148914   3.030   0.451  16.819 -2.4561  0.2194 -0.1673
 9141TIP3    H248915   3.092   0.361  16.925  0.9927  1.9421 -0.6636
 9142TIP3   OH248916   4.440   6.269  16.716 -0.3068 -0.5740 -0.4273
 9142TIP3    H148917   4.400   6.212  16.651 -2.0039 -1.6040  1.4539
 9142TIP3    H248918   4.370   6.330  16.740  0.5865  0.3968 -0.2453
 9143TIP3   OH248919   2.418   3.580  11.380  0.5574  0.3809  0.3237
 9143TIP3    H148920   2.373   3.605  11.299  0.5681 -0.6422 -0.0152
 9143TIP3    H248921   2.483   3.648  11.394  1.2736  0.0099 -1.1240
 9144TIP3   OH248922   5.803   6.086  14.302 -0.1901  0.1121  0.3935
 9144TIP3    H148923   5.710   6.106  14.308 -0.3844 -1.3634  2.8114
 9144TIP3    H248924   5.827   6.111  14.212 -2.7857  0.9242 -0.1162
 9145TIP3   OH248925   5.662   3.880   3.665  0.5473 -0.1343  0.1711
 9145TIP3    H148926   5.583   3.918   3.625 -0.6844 -2.4092  0.3647
 9145TIP3    H248927   5.733   3.906   3.606 -0.6350  0.2741 -1.1043
 9146TIP3   OH248928   0.869   5.299  14.256  0.1175 -0.4895  0.5718
 9146TIP3    H148929   0.934   5.365  14.233 -0.3575 -0.2250 -0.0324
 9146TIP3    H248930   0.916   5.216  14.253  1.1617 -0.0410  3.0153
 9147TIP3   OH248931   3.881   6.450  13.869  0.0094  0.2628 -0.1590
 9147TIP3    H148932   3.928   6.449  13.785 -0.3342  1.1357 -0.3629
 9147TIP3    H248933   3.827   6.371  13.866  0.4136 -0.0101 -0.5158
 9148TIP3   OH248934   6.022   2.173  13.551 -0.2893 -0.5714 -0.2890
 9148TIP3    H148935   6.011   2.265  13.530 -1.9941 -0.7442 -0.2821
 9148TIP3    H248936   6.045   2.131  13.469 -0.3007 -0.2481 -0.4546
 9149TIP3   OH248937   3.970   5.544   2.293  0.4719  0.4980  0.1583
 9149TIP3    H148938   3.879   5.516   2.279 -0.1638  1.4783  2.1427
 9149TIP3    H248939   4.003   5.484   2.360  1.5354 -0.2640 -0.9989
 9150TIP3   OH248940   5.620   2.732   4.247  0.0801  0.1272  0.3898
 9150TIP3    H148941   5.543   2.757   4.298 -0.4472 -0.5515 -0.0711
 9150TIP3    H248942   5.590   2.661   4.190  1.1271 -0.3651  0.4366
 9151TIP3   OH248943   2.215   6.619  14.136  0.1417  0.2464  1.2799
 9151TIP3    H148944   2.278   6.689  14.153  0.2854  0.6789 -0.9301
 9151TIP3    H248945   2.129   6.658  14.153  0.3382  0.2543  2.2985
 9152TIP3   OH248946   4.453   5.078  15.869 -0.7468  0.5380  0.6470
 9152TIP3    H148947   4.457   4.985  15.893  3.2095  0.4164 -0.1289
 9152TIP3    H248948   4.432   5.077  15.775  3.0586  0.1411 -0.3110
 9153TIP3   OH248949   0.658   2.810  12.392 -0.1589 -0.5496 -0.3551
 9153TIP3    H148950   0.724   2.741  12.385  1.1407  0.5909  0.3139
 9153TIP3    H248951   0.696   2.873  12.454 -1.5450  0.5034 -0.5508
 9154TIP3   OH248952   6.123   0.912   4.401  0.2665  0.4867 -0.5525
 9154TIP3    H148953   6.073   0.852   4.346 -0.3980  1.1634 -0.6885
 9154TIP3    H248954   6.092   0.999   4.376 -0.4025  0.7765  1.2303
 9155TIP3   OH248955   0.976   5.731   5.939  0.3248 -0.3137 -0.4241
 9155TIP3    H148956   1.067   5.727   5.910  0.9488  1.3511  1.2510
 9155TIP3    H248957   0.977   5.698   6.029 -0.7233 -0.2714 -0.3843
 9156TIP3   OH248958   4.982   1.764   1.059 -0.1045 -0.5509 -0.5796
 9156TIP3    H148959   4.965   1.812   0.978  1.3473  1.1903  0.0992
 9156TIP3    H248960   4.950   1.822   1.128 -2.3942 -2.5239  0.0766
 9157TIP3   OH248961   3.352   2.062  13.460 -0.4069 -0.3145  0.0308
 9157TIP3    H148962   3.399   2.077  13.542  1.4780  1.6920 -1.3515
 9157TIP3    H248963   3.311   2.146  13.439  0.5073 -0.3207 -1.9124
 9158TIP3   OH248964   5.382   0.877  13.580  0.2105 -0.2950  0.0044
 9158TIP3    H148965   5.337   0.826  13.646  0.0875 -0.2405 -0.0366
 9158TIP3    H248966   5.474   0.850  13.586  0.6465  1.4510  1.8525
 9159TIP3   OH248967   3.894   2.738   5.759 -0.5111  0.2751 -0.2658
 9159TIP3    H148968   3.922   2.756   5.849 -1.9680  0.2479  0.2098
 9159TIP3    H248969   3.818   2.795   5.746  0.0650  0.7348 -1.7023
 9160TIP3   OH248970   2.293   5.404  12.215  0.1370  0.4628  0.2648
 9160TIP3    H148971   2.281   5.494  12.184 -1.0997  0.4020  0.5595
 9160TIP3    H248972   2.295   5.412  12.310 -0.5074  0.1098  0.3051
 9161TIP3   OH248973   0.776   3.438  12.579 -0.9248 -0.1694  0.6741
 9161TIP3    H148974   0.871   3.448  12.576 -0.7090 -2.5422 -1.6271
 9161TIP3    H248975   0.752   3.471  12.666  2.0380  0.0271  1.4835
 9162TIP3   OH248976   5.557   0.149  13.232 -0.0250  0.7837  0.1534
 9162TIP3    H148977   5.633   0.184  13.186 -0.5290  1.9621  0.1958
 9162TIP3    H248978   5.517   0.225  13.274 -0.7030  0.0310  0.9002
 9163TIP3   OH248979   2.481   0.192  15.053 -0.4238  0.1663 -0.3640
 9163TIP3    H148980   2.535   0.236  14.988  1.2565  1.1437  1.6024
 9163TIP3    H248981   2.465   0.105  15.017 -0.4980  1.0698 -2.5670
 9164TIP3   OH248982   6.619   2.908   1.876 -0.1489 -0.5659  0.2593
 9164TIP3    H148983   6.546   2.868   1.923 -1.1899  1.7003  0.6164
 9164TIP3    H248984   6.695   2.895   1.933 -0.3303 -2.5148  0.1001
 9165TIP3   OH248985   6.462   1.617   2.930  0.0989  0.8713  0.6777
 9165TIP3    H148986   6.470   1.672   3.009 -1.0424  0.6137  0.9832
 9165TIP3    H248987   6.415   1.539   2.960 -0.6765  0.9336 -0.3331
 9166TIP3   OH248988   5.811   3.138  16.670 -0.3644  1.4053  0.2035
 9166TIP3    H148989   5.885   3.198  16.656  0.6162  0.9067  2.9470
 9166TIP3    H248990   5.849   3.051  16.655 -0.3599  1.1456  1.6842
 9167TIP3   OH248991   2.252   5.968  13.869 -0.2481 -0.3376 -0.3229
 9167TIP3    H148992   2.223   6.022  13.795  0.9067 -0.4575 -0.8743
 9167TIP3    H248993   2.337   6.005  13.894 -0.7468 -0.1422  1.1150
 9168TIP3   OH248994   3.846   0.221  10.369  0.5714  0.3065  0.2317
 9168TIP3    H148995   3.853   0.291  10.304 -0.2204  1.2569  1.1406
 9168TIP3    H248996   3.839   0.267  10.453  1.0854 -0.8911  0.9428
 9169TIP3   OH248997   5.556   6.758   3.460 -0.1463  0.1110 -0.0013
 9169TIP3    H148998   5.508   6.743   3.541  2.5075  0.7753  1.7302
 9169TIP3    H248999   5.535   6.682   3.405 -0.2697 -1.4185  2.1190
 9170TIP3   OH249000   5.250   2.541   5.707 -0.2436 -0.4019 -0.6878
 9170TIP3    H149001   5.162   2.562   5.738 -0.2474 -1.5074  0.0695
 9170TIP3    H249002   5.265   2.601   5.634 -0.8640  1.1236  0.4106
 9171TIP3   OH249003   6.511   0.158  16.170 -0.3720  0.3726  0.4167
 9171TIP3    H149004   6.426   0.114  16.176  0.3719 -0.8834  1.7084
 9171TIP3    H249005   6.489   0.251  16.175 -1.8912  0.1784 -1.8028
 9172TIP3   OH249006   5.862   1.517  11.459 -0.1643 -0.5148  0.5267
 9172TIP3    H149007   5.913   1.472  11.392  0.6910 -0.4600  1.1308
 9172TIP3    H249008   5.893   1.480  11.542 -0.0945  0.5376  0.9780
 9173TIP3   OH249009   1.282   6.583  14.432 -0.0629  0.3912  1.0127
 9173TIP3    H149010   1.192   6.608  14.409  0.2407  0.9872  0.4631
 9173TIP3    H249011   1.294   6.618  14.520 -0.4767  0.0264  1.2203
 9174TIP3   OH249012   4.000   5.198  12.340 -0.8235 -0.4848 -0.0083
 9174TIP3    H149013   3.966   5.125  12.391 -0.3838  0.5573  1.8368
 9174TIP3    H249014   4.095   5.192  12.350 -0.7354 -0.2277 -0.6529
 9175TIP3   OH249015   0.883   6.315   3.388 -0.2294 -0.5983 -0.5352
 9175TIP3    H149016   0.965   6.303   3.436 -0.6776  0.7453  0.6021
 9175TIP3    H249017   0.824   6.250   3.425 -0.1161 -0.6012 -0.3577
 9176TIP3   OH249018   2.361   6.251   0.195 -0.4163 -0.0248  0.1792
 9176TIP3    H149019   2.314   6.268   0.277 -2.6416 -0.8577 -0.8977
 9176TIP3    H249020   2.402   6.334   0.173 -1.4131  0.7278  1.1132
 9177TIP3   OH249021   5.971   0.272   2.179  0.4169  0.2689 -0.3919
 9177TIP3    H149022   6.044   0.316   2.136  0.9025 -0.3709 -0.2322
 9177TIP3    H249023   5.943   0.333   2.247  0.9002  0.4513 -0.3536
 9178TIP3   OH249024   4.681   0.394   4.073 -0.4700  0.0269 -0.0231
 9178TIP3    H149025   4.747   0.333   4.107 -0.1891 -0.0837 -0.7438
 9178TIP3    H249026   4.685   0.382   3.978 -2.6483 -1.1301 -0.0029
 9179TIP3   OH249027   1.235   5.221  13.793  0.4092 -0.4354 -0.5845
 9179TIP3    H149028   1.154   5.268  13.812 -0.4315 -2.0458 -0.1151
 9179TIP3    H249029   1.214   5.129  13.808  1.9712 -0.9982 -1.6742
 9180TIP3   OH249030   5.928   6.817  12.837 -0.5930 -0.2134  1.1013
 9180TIP3    H149031   5.996   6.856  12.782 -0.1155 -1.3713  0.8609
 9180TIP3    H249032   5.868   6.776  12.774 -1.5558  0.8546  1.3035
 9181TIP3   OH249033   4.602   6.042  15.265 -0.0248  0.1076 -0.2971
 9181TIP3    H149034   4.646   6.125  15.249  1.2994 -0.2353  1.4388
 9181TIP3    H249035   4.664   5.976  15.232 -0.6425 -0.2425 -0.7684
 9182TIP3   OH249036   5.594   4.879   4.841 -0.9825  0.1478 -0.4913
 9182TIP3    H149037   5.633   4.803   4.798 -1.2132 -1.2392  1.6978
 9182TIP3    H249038   5.509   4.890   4.797 -0.6837 -0.4864 -1.2280
 9183TIP3   OH249039   1.845   1.006   0.511 -0.3673 -0.0241 -0.6289
 9183TIP3    H149040   1.784   1.066   0.553 -0.3984  0.0666 -0.8041
 9183TIP3    H249041   1.803   0.920   0.519 -2.1151  0.4426 -3.6256
 9184TIP3   OH249042   5.461   2.917  15.073 -0.2239  0.4710 -0.4331
 9184TIP3    H149043   5.439   2.975  15.001 -0.3263  0.5959 -0.3029
 9184TIP3    H249044   5.404   2.841  15.061  0.6227 -0.0476 -1.1724
 9185TIP3   OH249045   6.735   6.348   1.735 -0.0554  0.3204  0.0065
 9185TIP3    H149046   6.682   6.413   1.782  0.2677  0.5740  0.0232
 9185TIP3    H249047   6.688   6.335   1.652 -1.2076 -0.9333  0.8361
 9186TIP3   OH249048   6.789   2.883   5.806 -0.6929 -0.8199 -0.2293
 9186TIP3    H149049   6.751   2.919   5.886 -0.0241 -0.6349  0.0052
 9186TIP3    H249050   6.882   2.908   5.810 -0.1807 -2.7148  0.0223
 9187TIP3   OH249051   4.914   1.178   0.398  0.5280 -0.3863  0.8399
 9187TIP3    H149052   4.879   1.108   0.452 -1.0137 -0.8715 -0.7478
 9187TIP3    H249053   4.988   1.139   0.352  1.2821 -0.2205  1.8836
 9188TIP3   OH249054   3.943   4.898  17.004  0.4082  0.7683 -0.0534
 9188TIP3    H149055   3.994   4.819  17.023 -0.3128  0.1780 -0.4900
 9188TIP3    H249056   4.008   4.966  16.986  1.0760  0.7487  2.1235
 9189TIP3   OH249057   2.528   0.535   1.565  0.5102  0.8089  0.1656
 9189TIP3    H149058   2.449   0.522   1.618  0.5199  2.6203  0.6776
 9189TIP3    H249059   2.508   0.494   1.481 -0.6902  0.5840  0.5441
 9190TIP3   OH249060   3.136   6.111   1.198 -0.1745  0.2755  0.2663
 9190TIP3    H149061   3.230   6.099   1.209 -0.2257 -1.1697 -0.6338
 9190TIP3    H249062   3.097   6.052   1.262 -0.4376 -1.0252 -1.0352
 9191TIP3   OH249063   6.679   4.433  14.293 -0.2340  0.8081  0.3518
 9191TIP3    H149064   6.712   4.349  14.327 -1.0693  1.3905  2.7303
 9191TIP3    H249065   6.633   4.410  14.212  0.7462 -0.8377  0.2354
 9192TIP3   OH249066   5.178   1.529  16.679 -0.7926 -0.2412  0.2298
 9192TIP3    H149067   5.270   1.512  16.660 -0.5538  0.5537  0.6550
 9192TIP3    H249068   5.134   1.446  16.660 -0.0422 -0.5255 -0.3024
 9193TIP3   OH249069   6.331   2.448  11.362 -0.1223 -0.7502 -0.1743
 9193TIP3    H149070   6.318   2.538  11.392 -0.9031 -0.6551 -0.8021
 9193TIP3    H249071   6.281   2.395  11.424  0.8441 -0.8119  0.5694
 9194TIP3   OH249072   2.778   6.267  16.666  0.2031  0.0704 -0.3882
 9194TIP3    H149073   2.813   6.212  16.737 -0.8354 -0.2446 -0.1160
 9194TIP3    H249074   2.823   6.351  16.677  0.6754 -0.2421  0.1229
 9195TIP3   OH249075   1.737   5.483  15.805  0.0654  1.1532  0.7789
 9195TIP3    H149076   1.737   5.457  15.713 -3.5381 -0.8672  1.2335
 9195TIP3    H249077   1.655   5.532  15.816  0.8120  2.0201  2.7676
 9196TIP3   OH249078   2.252   1.030   2.621  0.2164 -0.2670  0.1572
 9196TIP3    H149079   2.249   0.988   2.535  1.1142 -0.8112  0.3881
 9196TIP3    H249080   2.256   1.124   2.602  1.7503 -0.4453 -0.4232
 9197TIP3   OH249081   2.718   1.783   2.218  0.0174 -0.0008  0.3212
 9197TIP3    H149082   2.677   1.706   2.178 -1.3034  1.5360 -1.4168
 9197TIP3    H249083   2.687   1.856   2.164  0.8198  1.7956  2.2539
 9198TIP3   OH249084   2.734   0.268   4.859 -0.6617  0.3309  0.4640
 9198TIP3    H149085   2.810   0.211   4.843 -0.4116  1.3449 -2.1166
 9198TIP3    H249086   2.748   0.344   4.802 -1.1680  2.8738  3.5504
 9199TIP3   OH249087   3.892   6.537  12.977 -0.3166 -0.2907  0.2139
 9199TIP3    H149088   3.867   6.604  13.041  0.6301  0.0913  0.1811
 9199TIP3    H249089   3.932   6.467  13.029  0.3115 -0.0494  0.0480
 9200TIP3   OH249090   3.169   4.541  11.475  0.1491 -0.1061 -0.3169
 9200TIP3    H149091   3.165   4.450  11.446 -0.5632  0.1499 -1.0496
 9200TIP3    H249092   3.160   4.592  11.394 -0.0153  0.6190  0.1549
 9201TIP3   OH249093   1.301   5.481  12.535  0.1499  0.2541 -0.4089
 9201TIP3    H149094   1.218   5.521  12.563 -0.7221 -0.5179 -1.8687
 9201TIP3    H249095   1.362   5.503  12.606 -0.9928  1.8332  0.1359
 9202TIP3   OH249096   4.293   2.370   4.774  0.3255  0.7262  0.1116
 9202TIP3    H149097   4.357   2.302   4.753  1.1934  0.1690  4.1753
 9202TIP3    H249098   4.342   2.433   4.827 -1.3169  2.8325 -0.8100
 9203TIP3   OH249099   2.299   5.597   1.064  0.4903 -0.5240 -0.0484
 9203TIP3    H149100   2.257   5.635   1.141  0.6661  0.2309 -0.3146
 9203TIP3    H249101   2.233   5.601   0.996  1.2245  1.4044 -0.6836
 9204TIP3   OH249102   1.203   3.535  15.672 -0.1337 -1.0195  0.1925
 9204TIP3    H149103   1.126   3.591  15.682  1.2988  0.9531  0.6507
 9204TIP3    H249104   1.211   3.491  15.757  0.3954  0.3297  0.8606
 9205TIP3   OH249105   4.711   4.948  10.839 -0.3188 -0.2759 -0.3667
 9205TIP3    H149106   4.656   4.872  10.819  0.4346 -0.8840 -0.1211
 9205TIP3    H249107   4.782   4.945  10.775  0.1139 -0.1927  0.1044
 9206TIP3   OH249108   4.711   5.500  13.346 -0.2058  0.2001  0.2875
 9206TIP3    H149109   4.805   5.495  13.329 -0.2194  0.0012  0.2700
 9206TIP3    H249110   4.683   5.409  13.355 -0.1980  0.3034  1.3796
 9207TIP3   OH249111   3.484   0.661  15.276  0.3821 -0.5889  0.5812
 9207TIP3    H149112   3.395   0.672  15.243  0.7188 -2.4625 -1.0654
 9207TIP3    H249113   3.538   0.658  15.197  1.7435 -0.8864  1.5065
 9208TIP3   OH249114   6.479   3.194  11.078  0.1371 -0.3523 -0.4083
 9208TIP3    H149115   6.453   3.247  11.154  1.7518 -0.1887  0.0433
 9208TIP3    H249116   6.475   3.255  11.005  0.9005  0.1175 -0.0665
 9209TIP3   OH249117   0.249   0.989   4.863 -0.1775  0.1499  0.9635
 9209TIP3    H149118   0.227   1.077   4.894  0.4271  0.4360  0.5934
 9209TIP3    H249119   0.324   1.002   4.805  0.3052 -0.6809  1.3860
 9210TIP3   OH249120   1.983   4.131  10.940 -0.3248  0.3583  0.0055
 9210TIP3    H149121   1.944   4.044  10.947  0.8527 -0.2346 -0.8508
 9210TIP3    H249122   2.076   4.116  10.928  0.2992  1.7762  2.4775
 9211TIP3   OH249123   6.149   5.993  15.779 -0.1495  0.2901 -0.2712
 9211TIP3    H149124   6.115   6.065  15.726  0.1061  0.7391  0.1596
 9211TIP3    H249125   6.091   5.919  15.760  0.5030  0.1756 -1.8762
 9212TIP3   OH249126   0.562   5.680  11.976 -0.5277 -0.6036 -0.0904
 9212TIP3    H149127   0.522   5.598  11.948 -0.3069 -0.7890  0.1399
 9212TIP3    H249128   0.652   5.657  11.999 -0.4109 -0.2667 -0.1933
 9213TIP3   OH249129   6.158   2.658  14.978 -0.0325 -0.1763  0.1583
 9213TIP3    H149130   6.200   2.694  15.056  0.2953  0.5849 -0.3653
 9213TIP3    H249131   6.230   2.623  14.926 -0.1353  0.3416 -0.3349
 9214TIP3   OH249132   3.970   2.501  11.135 -0.2060 -0.8452 -0.4245
 9214TIP3    H149133   3.976   2.485  11.041  1.1179  0.6994 -0.6290
 9214TIP3    H249134   4.019   2.582  11.149  0.1014 -1.3503  1.6809
 9215TIP3   OH249135   5.435   0.614  13.086  0.0487 -0.2585  0.1497
 9215TIP3    H149136   5.496   0.578  13.150  0.4202 -1.4344 -0.8577
 9215TIP3    H249137   5.351   0.572  13.107 -0.3141  0.9463  1.1875
 9216TIP3   OH249138   4.101   6.055   3.529 -0.5012 -0.4073  0.2171
 9216TIP3    H149139   4.149   6.024   3.606 -2.4418  0.3497  1.7596
 9216TIP3    H249140   4.134   6.144   3.515  2.3092 -1.6949 -1.9296
 9217TIP3   OH249141   1.545   3.546  14.475  0.2757 -0.1256  0.1897
 9217TIP3    H149142   1.501   3.631  14.487  0.1338 -0.2783  0.7520
 9217TIP3    H249143   1.474   3.484  14.462  0.3290 -0.3572  0.9980
 9218TIP3   OH249144   4.113   2.222   1.948 -0.0487  0.9066 -0.3381
 9218TIP3    H149145   4.188   2.274   1.918 -0.5469  1.3872 -0.7550
 9218TIP3    H249146   4.149   2.166   2.017  0.9323  0.3128 -1.3246
 9219TIP3   OH249147   6.182   0.763   0.715 -0.3398  0.2314  0.2886
 9219TIP3    H149148   6.223   0.848   0.729  0.1188 -0.3650  2.8806
 9219TIP3    H249149   6.098   0.769   0.761 -0.1037 -0.8501  0.8954
 9220TIP3   OH249150   4.962   2.451  11.420  0.0689 -0.3890  0.2880
 9220TIP3    H149151   5.039   2.396  11.433 -0.0262 -0.0932  2.2636
 9220TIP3    H249152   4.888   2.391  11.431 -0.0494  0.2303  3.1768
 9221TIP3   OH249153   5.116   3.063  15.091  0.1195 -0.1874 -0.0725
 9221TIP3    H149154   5.123   2.986  15.033  1.1869  1.2881 -1.9469
 9221TIP3    H249155   5.206   3.082  15.117  0.0038  1.1647 -0.6279
 9222TIP3   OH249156   3.859   5.149   3.820 -0.0134 -0.0344 -0.6258
 9222TIP3    H149157   3.807   5.069   3.825  0.6500 -0.3984  0.6687
 9222TIP3    H249158   3.795   5.219   3.807 -0.7789 -0.5466  0.3402
 9223TIP3   OH249159   0.125   2.874   1.728 -0.2260 -0.4552  0.4166
 9223TIP3    H149160   0.116   2.962   1.691  2.7847 -0.4161 -0.3872
 9223TIP3    H249161   0.054   2.824   1.688 -1.1244  1.2654 -0.1927
 9224TIP3   OH249162   6.752   5.878   2.415  0.1711 -0.4821 -0.4463
 9224TIP3    H149163   6.734   5.898   2.507 -0.4141 -0.7925 -0.4914
 9224TIP3    H249164   6.712   5.950   2.366  0.2952 -0.4301 -0.4699
 9225TIP3   OH249165   6.800   0.750   1.698  0.2346  0.1771  0.5938
 9225TIP3    H149166   6.877   0.795   1.664  0.8173 -0.5894  0.8846
 9225TIP3    H249167   6.770   0.696   1.626 -1.3415  2.1080 -0.2527
 9226TIP3   OH249168   4.032   6.078  16.396  0.0202  0.4076  0.0158
 9226TIP3    H149169   4.117   6.060  16.356  0.1802  0.0995  0.5005
 9226TIP3    H249170   3.970   6.070  16.323  0.1156 -1.7970  0.1308
 9227TIP3   OH249171   2.704   5.798   0.621  0.5282 -0.1229  0.3419
 9227TIP3    H149172   2.647   5.790   0.544  0.9482  0.7384 -0.0635
 9227TIP3    H249173   2.782   5.748   0.597  0.1172 -0.9598  0.7354
 9228TIP3   OH249174   2.129   5.888   3.525  0.0385 -0.6412  0.4795
 9228TIP3    H149175   2.076   5.817   3.560 -2.5170  1.1897  0.4013
 9228TIP3    H249176   2.120   5.881   3.430 -0.9054  0.2976  0.4967
 9229TIP3   OH249177   5.950   4.026   5.290 -0.7709  0.1894  0.1280
 9229TIP3    H149178   5.945   3.983   5.204 -0.9903 -0.6265  0.5440
 9229TIP3    H249179   6.039   4.008   5.321 -0.0404  2.1032 -0.7501
 9230TIP3   OH249180   1.367   4.348  10.497 -0.0844  0.0292  0.1150
 9230TIP3    H149181   1.425   4.424  10.508  0.2981 -0.2866  0.3018
 9230TIP3    H249182   1.307   4.374  10.427 -1.1354  1.2048  1.4444
 9231TIP3   OH249183   0.462   6.771  12.406  0.0888 -0.3786  0.8220
 9231TIP3    H149184   0.371   6.798  12.409 -0.1984 -0.9081 -1.7037
 9231TIP3    H249185   0.497   6.811  12.326  1.7730 -1.0225  1.1969
 9232TIP3   OH249186   1.999   0.167  15.968  0.3194  0.3534 -0.8184
 9232TIP3    H149187   1.944   0.090  15.951  1.0761 -0.4482  0.2094
 9232TIP3    H249188   2.063   0.167  15.897  1.7754 -1.3659  0.4490
 9233TIP3   OH249189   3.183   5.862  17.112 -0.8488  0.9099 -0.3456
 9233TIP3    H149190   3.269   5.864  17.153 -0.4719 -1.8502 -0.9368
 9233TIP3    H249191   3.189   5.926  17.040 -0.1987  2.7024  1.2714
 9234TIP3   OH249192   0.995   1.052   0.597 -0.0280 -0.2871  0.1161
 9234TIP3    H149193   0.950   1.106   0.661 -0.4274 -1.2576  0.6565
 9234TIP3    H249194   0.962   1.082   0.512 -0.9211 -0.3059  0.4579
 9235TIP3   OH249195   4.390   5.924  13.352  0.1271 -0.8873  0.0961
 9235TIP3    H149196   4.424   6.005  13.390 -0.5398 -1.1812  1.3568
 9235TIP3    H249197   4.455   5.899  13.286  1.0995 -0.1245  0.7532
 9236TIP3   OH249198   3.017   5.343   4.995  0.3491  0.5742  0.7150
 9236TIP3    H149199   3.066   5.376   5.070 -0.2523 -1.1932  1.9198
 9236TIP3    H249200   2.973   5.265   5.028  1.8346 -1.5276 -2.0473
 9237TIP3   OH249201   6.350   1.692   4.002  0.0964 -0.0375 -0.2957
 9237TIP3    H149202   6.268   1.664   3.961 -0.4654  0.5137  0.4495
 9237TIP3    H249203   6.389   1.752   3.938  1.1273 -2.2010 -1.7402
 9238TIP3   OH249204   6.238   1.498  15.109 -0.3696 -0.4421 -0.1787
 9238TIP3    H149205   6.154   1.515  15.067 -1.2802 -2.6211  0.7003
 9238TIP3    H249206   6.250   1.403  15.102  2.1097 -0.1550 -0.4481
 9239TIP3   OH249207   4.709   2.962  11.933  0.3713 -0.1136  0.2458
 9239TIP3    H149208   4.716   2.995  12.022  0.0444  0.2786  0.1302
 9239TIP3    H249209   4.654   3.027  11.888 -0.0479 -0.6666 -0.0543
 9240TIP3   OH249210   5.238   5.049  13.140  0.3550  0.1834 -0.2902
 9240TIP3    H149211   5.309   4.989  13.166 -0.3375 -0.4486  0.1675
 9240TIP3    H249212   5.245   5.055  13.045  0.3786 -0.6938 -0.3467
 9241TIP3   OH249213   5.845   4.314   4.119  0.1877  0.3203  0.4793
 9241TIP3    H149214   5.921   4.305   4.177 -0.4590 -0.2894  1.2552
 9241TIP3    H249215   5.830   4.408   4.112  1.8498  0.5070 -0.7909
 9242TIP3   OH249216   6.298   3.873  14.827 -0.2522  0.0019 -0.2083
 9242TIP3    H149217   6.376   3.839  14.784  0.9575  2.1959  0.1513
 9242TIP3    H249218   6.226   3.853  14.767  0.5588 -2.0423 -0.5465
 9243TIP3   OH249219   5.963   3.420   4.482 -0.2907 -0.0637 -0.0726
 9243TIP3    H149220   5.925   3.431   4.569  0.4468  1.2294  0.0896
 9243TIP3    H249221   6.050   3.385   4.497  0.9810  2.9894 -0.1233
 9244TIP3   OH249222   2.273   1.528  13.784  0.3175  0.0240  0.0958
 9244TIP3    H149223   2.230   1.574  13.712  0.1016 -0.6431 -0.2057
 9244TIP3    H249224   2.251   1.580  13.861  0.4369  0.6709 -0.2957
 9245TIP3   OH249225   6.516   1.065   1.427 -0.3256 -0.1082 -0.1220
 9245TIP3    H149226   6.586   1.026   1.375 -2.5707 -1.1433 -2.4844
 9245TIP3    H249227   6.473   0.991   1.469  0.2350  0.5669  1.7159
 9246TIP3   OH249228   4.779   0.084  16.486  0.0978  0.4527 -0.2929
 9246TIP3    H149229   4.854   0.054  16.536  1.1743  2.0182 -0.9166
 9246TIP3    H249230   4.785   0.180  16.489 -1.4786  0.5879 -0.9185
 9247TIP3   OH249231   2.290   0.562   2.916 -0.1514  0.6082  0.3768
 9247TIP3    H149232   2.240   0.641   2.938  0.6258  0.9049  1.1279
 9247TIP3    H249233   2.378   0.579   2.950  0.4529  0.0661 -0.8755
 9248TIP3   OH249234   6.665   4.165   0.823 -0.3727  0.5491 -0.4805
 9248TIP3    H149235   6.667   4.075   0.791  1.7769  0.8213 -1.1863
 9248TIP3    H249236   6.612   4.212   0.758 -1.2965 -0.1403 -0.2424
 9249TIP3   OH249237   5.489   4.807  15.028  0.1445 -0.8841  0.7047
 9249TIP3    H149238   5.552   4.819  14.957 -0.0659 -0.4250  0.5950
 9249TIP3    H249239   5.412   4.856  15.000 -0.4938 -1.9699  0.5468
 9250TIP3   OH249240   3.903   2.802  15.438 -0.2226  0.5689 -0.2177
 9250TIP3    H149241   3.815   2.823  15.469 -0.2931  1.0028 -0.6876
 9250TIP3    H249242   3.888   2.749  15.359 -0.0749  1.1989 -0.6736
 9251TIP3   OH249243   6.796   4.717  13.329 -0.2500  0.1253 -0.2245
 9251TIP3    H149244   6.844   4.784  13.280 -2.2969  0.3066 -2.0543
 9251TIP3    H249245   6.704   4.741  13.320 -0.8044 -1.1492  1.8112
 9252TIP3   OH249246   5.678   6.660  15.279  0.2079 -0.5432 -0.0462
 9252TIP3    H149247   5.746   6.728  15.278  1.2068 -1.4616  2.0866
 9252TIP3    H249248   5.622   6.684  15.353  1.4002 -2.7786  1.6523
 9253TIP3   OH249249   0.540   3.965   5.449  0.3130  0.0946  0.3418
 9253TIP3    H149250   0.621   3.948   5.498  0.2532 -0.4752  0.2489
 9253TIP3    H249251   0.569   3.983   5.360  0.4606  1.6606  0.6916
 9254TIP3   OH249252   3.451   6.553  14.404 -0.1937  0.6328 -0.4358
 9254TIP3    H149253   3.418   6.470  14.439 -0.3224 -0.1544 -2.3178
 9254TIP3    H249254   3.529   6.572  14.456 -1.8075  0.8767  1.9536
 9255TIP3   OH249255   3.042   2.082   1.267 -0.0148 -0.1033  0.0969
 9255TIP3    H149256   3.018   2.021   1.337  1.0332 -0.0638  0.4993
 9255TIP3    H249257   3.095   2.149   1.310 -0.9782  0.9891 -0.3891
 9256TIP3   OH249258   6.348   1.472  12.714 -0.1601 -0.0098  0.5115
 9256TIP3    H149259   6.344   1.377  12.725 -1.5002 -0.0444 -0.2190
 9256TIP3    H249260   6.420   1.485  12.652  0.9256 -0.4385  1.6375
 9257TIP3   OH249261   3.020   1.407  13.646 -0.3249 -0.0640  0.0112
 9257TIP3    H149262   2.959   1.481  13.647  0.1985  0.3714  0.2405
 9257TIP3    H249263   3.091   1.434  13.706  0.0414 -0.6043 -0.1749
 9258TIP3   OH249264   0.982   1.973  17.187  0.0110 -0.1402 -0.3754
 9258TIP3    H149265   0.939   1.894  17.157 -0.6721 -0.0289  0.2863
 9258TIP3    H249266   0.913   2.040  17.186  0.4626  0.3296 -0.4657
 9259TIP3   OH249267   3.721   4.138  16.155 -0.0565  0.0416 -0.4490
 9259TIP3    H149268   3.640   4.173  16.118 -0.7845  2.3055  3.0483
 9259TIP3    H249269   3.733   4.188  16.236  3.6131 -1.8751  0.2530
 9260TIP3   OH249270   0.903   0.585   6.454 -0.3840 -0.0225 -0.2410
 9260TIP3    H149271   0.965   0.513   6.449 -1.0344 -0.5852 -0.3836
 9260TIP3    H249272   0.820   0.544   6.478 -0.6636  0.7388  0.1368
 9261TIP3   OH249273   2.140   2.559   4.429 -0.2030 -0.9393  0.0730
 9261TIP3    H149274   2.173   2.646   4.405  0.1496 -1.2739 -0.6935
 9261TIP3    H249275   2.178   2.542   4.515 -0.2695 -0.3337  0.2239
 9262TIP3   OH249276   3.281   2.259   1.858  0.3276  0.1382 -0.4246
 9262TIP3    H149277   3.375   2.245   1.856  0.1743 -1.0132 -0.3822
 9262TIP3    H249278   3.267   2.321   1.929  0.8066 -1.9383  1.5556
 9263TIP3   OH249279   5.268   3.269   2.035  0.6446  0.2497 -0.7137
 9263TIP3    H149280   5.359   3.296   2.031  1.0142 -0.2154  2.8809
 9263TIP3    H249281   5.222   3.343   2.075 -0.3172 -0.0621 -1.2097
 9264TIP3   OH249282   4.989   2.681   3.066 -0.1914  0.3719 -0.2601
 9264TIP3    H149283   4.981   2.700   2.973 -1.0935  0.5732 -0.1410
 9264TIP3    H249284   4.964   2.763   3.110 -0.6334  0.0072  0.1753
 9265TIP3   OH249285   2.232   3.411  11.832  0.6905  0.3035 -0.6462
 9265TIP3    H149286   2.268   3.427  11.745  2.8395 -0.3757  0.0844
 9265TIP3    H249287   2.176   3.334  11.822 -0.4126  1.2326 -1.7521
 9266TIP3   OH249288   5.218   1.061   1.774  0.0370 -0.1586  0.1377
 9266TIP3    H149289   5.199   0.979   1.730 -0.5237  0.8010 -1.4532
 9266TIP3    H249290   5.134   1.107   1.777  0.6002  0.9290 -0.2441
 9267TIP3   OH249291   0.200   4.698  12.181  0.3396 -0.0656 -0.2659
 9267TIP3    H149292   0.175   4.607  12.193  3.1790 -0.9404 -0.7840
 9267TIP3    H249293   0.174   4.719  12.091  0.2206 -0.5423 -0.3429
 9268TIP3   OH249294   1.587   1.907   2.942  0.6007  0.6727 -0.2843
 9268TIP3    H149295   1.669   1.895   2.893  1.7887 -0.2172  1.8561
 9268TIP3    H249296   1.601   1.860   3.024 -0.8695  3.0916  1.4328
 9269TIP3   OH249297   4.757   2.325   1.089 -0.0574 -0.0603  0.1018
 9269TIP3    H149298   4.745   2.272   1.168  0.2353 -0.6806 -0.2742
 9269TIP3    H249299   4.724   2.271   1.018 -0.3437  0.5123 -0.2022
 9270TIP3   OH249300   0.872   4.761  15.790  0.2911 -0.0194  0.2662
 9270TIP3    H149301   0.964   4.751  15.765 -0.7101 -1.1688 -3.3037
 9270TIP3    H249302   0.830   4.681  15.759 -1.5473 -0.6254  4.0548
 9271TIP3   OH249303   4.567   2.240  10.673  0.2356 -0.2874  0.1110
 9271TIP3    H149304   4.569   2.161  10.618 -0.0452  0.8079 -1.4925
 9271TIP3    H249305   4.492   2.289  10.642 -0.5798 -0.1372  2.2167
 9272TIP3   OH249306   5.397   1.567   1.897  0.0680  1.2838 -0.3778
 9272TIP3    H149307   5.359   1.489   1.938 -0.3828  1.0910 -1.1598
 9272TIP3    H249308   5.325   1.605   1.847  0.4220  1.9277 -0.4029
 9273TIP3   OH249309   1.640   2.361   2.259 -0.0089  0.1993  0.1954
 9273TIP3    H149310   1.564   2.313   2.290  0.9477  0.1314  2.5771
 9273TIP3    H249311   1.607   2.414   2.186 -1.3449 -3.0495 -1.6354
 9274TIP3   OH249312   0.871   5.704  11.401  0.8031 -0.4361 -0.2481
 9274TIP3    H149313   0.837   5.757  11.329  3.9450  0.7224 -0.9705
 9274TIP3    H249314   0.887   5.618  11.363 -0.8361 -0.8603 -0.0110
 9275TIP3   OH249315   6.774   6.312  15.967 -0.1702 -0.2009  0.4606
 9275TIP3    H149316   6.842   6.250  15.941  1.3600  1.4948  0.3203
 9275TIP3    H249317   6.721   6.324  15.887  0.2232 -0.4352  0.1628
 9276TIP3   OH249318   2.442   3.028  12.876 -0.2610 -0.2233  0.2404
 9276TIP3    H149319   2.479   3.089  12.812  1.4605 -0.0159  1.3940
 9276TIP3    H249320   2.356   3.063  12.896  0.2073  1.1207 -0.0553
 9277TIP3   OH249321   5.496   0.593   1.908  0.3994 -0.0516  0.1256
 9277TIP3    H149322   5.480   0.522   1.971 -1.3830  2.1262  2.2098
 9277TIP3    H249323   5.436   0.574   1.836  0.0443 -0.7362  0.5920
 9278TIP3   OH249324   0.533   0.852  11.502 -0.3128  0.6902 -0.8084
 9278TIP3    H149325   0.446   0.825  11.531 -0.1278 -0.4388 -1.2508
 9278TIP3    H249326   0.519   0.891  11.416 -0.5225  1.5556 -0.3836
 9279TIP3   OH249327   4.941   0.649   1.104 -0.0205 -0.2110  0.0553
 9279TIP3    H149328   4.935   0.742   1.129 -0.9934  0.0421 -1.0658
 9279TIP3    H249329   4.852   0.625   1.080  0.6279 -0.8200 -1.8222
 9280TIP3   OH249330   0.660   0.887  14.107 -0.3500 -0.3523 -0.6309
 9280TIP3    H149331   0.603   0.906  14.032  0.3788 -0.5960 -1.2451
 9280TIP3    H249332   0.716   0.965  14.115 -0.5833 -0.2258 -0.1886
 9281TIP3   OH249333   5.898   0.840   1.695 -0.1525 -0.3103 -0.1199
 9281TIP3    H149334   5.900   0.910   1.629  1.4490 -0.8582 -0.6573
 9281TIP3    H249335   5.814   0.853   1.740 -0.0149  1.7924 -0.3972
 9282TIP3   OH249336   2.141   0.681   0.676  0.3153 -0.0579 -0.1345
 9282TIP3    H149337   2.227   0.715   0.703 -0.9116  2.0629  1.1862
 9282TIP3    H249338   2.155   0.650   0.586  2.8156 -1.0711  0.5653
 9283TIP3   OH249339   6.772   2.507  11.586 -0.4590  0.2333  0.2740
 9283TIP3    H149340   6.838   2.566  11.621  0.2047 -1.2695  1.6458
 9283TIP3    H249341   6.767   2.436  11.650  0.4556 -2.3832 -2.4160
 9284TIP3   OH249342   3.315   6.300   4.831  0.3031 -0.0991  0.2357
 9284TIP3    H149343   3.350   6.384   4.861 -0.5476 -0.6139  2.7456
 9284TIP3    H249344   3.220   6.312   4.829  0.2593 -0.5798 -0.6907
 9285TIP3   OH249345   4.922   4.130  13.647 -0.0289 -0.7294 -0.8024
 9285TIP3    H149346   4.949   4.081  13.569 -0.6806  2.0415 -2.8385
 9285TIP3    H249347   4.982   4.204  13.650 -1.4892  0.4392 -0.0004
 9286TIP3   OH249348   6.124   4.261  14.093 -0.3871 -0.4008 -0.3844
 9286TIP3    H149349   6.052   4.212  14.133  1.0945 -2.5972 -0.3064
 9286TIP3    H249350   6.192   4.263  14.160  0.5471 -0.4670 -1.3251
 9287TIP3   OH249351   2.289   3.170   3.494 -0.3484 -0.3760  0.5805
 9287TIP3    H149352   2.206   3.150   3.537 -1.5327 -2.4967 -2.5382
 9287TIP3    H249353   2.354   3.118   3.542 -1.2374 -0.7369  1.4077
 9288TIP3   OH249354   1.817   1.469   2.145 -0.3371 -0.0354  0.1556
 9288TIP3    H149355   1.839   1.556   2.177  1.2114 -0.4762  0.3381
 9288TIP3    H249356   1.819   1.476   2.050  0.8819 -0.1168  0.1632
 9289TIP3   OH249357   2.428   2.505   3.663  0.4728 -0.3080 -0.0218
 9289TIP3    H149358   2.394   2.422   3.697 -0.7291 -0.4710 -1.5686
 9289TIP3    H249359   2.466   2.482   3.578  3.2593  0.1209  1.0571
 9290TIP3   OH249360   0.293   2.544  16.169  0.2872 -1.0556 -1.2187
 9290TIP3    H149361   0.223   2.578  16.223  1.9062 -1.6050  1.3095
 9290TIP3    H249362   0.302   2.452  16.195  1.1023 -1.3333 -2.4157
 9291TIP3   OH249363   3.712   0.104  11.395 -0.0865  0.0924 -0.0327
 9291TIP3    H149364   3.649   0.041  11.359 -0.1604 -0.8368  1.6842
 9291TIP3    H249365   3.659   0.164  11.448  0.1824  0.7253 -0.4633
 9292TIP3   OH249366   5.839   5.654  15.016 -0.4032 -0.1401 -0.2841
 9292TIP3    H149367   5.823   5.724  14.953 -0.6633  0.3115  0.2746
 9292TIP3    H249368   5.887   5.696  15.087 -2.9328  0.1312  1.3459
 9293TIP3   OH249369   3.250   3.692  14.370 -0.3035 -0.1083 -0.1363
 9293TIP3    H149370   3.173   3.686  14.426 -0.7134 -4.1004 -0.9964
 9293TIP3    H249371   3.215   3.691  14.281  0.5704  1.9867 -0.5324
 9294TIP3   OH249372   0.369   3.160  13.500 -0.1503 -0.6168  0.1758
 9294TIP3    H149373   0.367   3.075  13.544  2.5269 -0.6104  0.3862
 9294TIP3    H249374   0.391   3.140  13.409 -1.0280 -0.2631 -0.1165
 9295TIP3   OH249375   0.791   2.616  14.017  0.2789  0.1606  0.0854
 9295TIP3    H149376   0.762   2.628  13.926 -0.5311  1.1866  0.4641
 9295TIP3    H249377   0.745   2.684  14.066  0.6529 -0.4343  1.2872
 9296TIP3   OH249378   1.973   3.809  12.479  0.0907  0.6882  0.5458
 9296TIP3    H149379   1.947   3.805  12.571 -1.4684 -0.5230  0.0747
 9296TIP3    H249380   1.891   3.828  12.432  0.4108 -1.1220 -0.7958
 9297TIP3   OH249381   5.535   4.333  15.670 -0.1703  0.2337 -0.1182
 9297TIP3    H149382   5.463   4.293  15.621 -0.9769 -0.9925  1.9991
 9297TIP3    H249383   5.610   4.327  15.611 -1.0366 -1.4851 -1.0942
 9298TIP3   OH249384   2.675   4.528  13.630  0.1956 -0.3585 -0.7014
 9298TIP3    H149385   2.618   4.602  13.650  0.2419 -0.7390  0.9234
 9298TIP3    H249386   2.618   4.462  13.591 -0.2680 -0.3093 -0.1059
 9299TIP3   OH249387   1.393   3.862  13.789  0.3335 -0.4340 -0.0009
 9299TIP3    H149388   1.397   3.801  13.715 -0.4354 -1.5840  0.8760
 9299TIP3    H249389   1.302   3.860  13.816  0.2155  1.4605 -0.2132
 9300TIP3   OH249390   1.686   3.866   2.623  0.3274  0.5148  0.4346
 9300TIP3    H149391   1.728   3.947   2.651  1.2355  0.2801 -0.2224
 9300TIP3    H249392   1.685   3.871   2.527 -0.1522  0.0254  0.4099
 9301TIP3   OH249393   6.090   4.280  12.191  0.0810  0.3821  0.0769
 9301TIP3    H149394   6.073   4.345  12.258  0.0113  1.1605 -0.6825
 9301TIP3    H249395   6.123   4.204  12.239 -1.3235  0.4215  1.1132
 9302TIP3   OH249396   0.390   5.959   4.224  0.0606  0.2731  0.0652
 9302TIP3    H149397   0.327   5.992   4.287  0.3087 -1.4971  1.2743
 9302TIP3    H249398   0.339   5.900   4.168  0.5321 -0.8764  0.8163
 9303TIP3   OH249399   5.289   6.250   2.199 -0.4584  0.4777  0.6929
 9303TIP3    H149400   5.258   6.178   2.254 -0.0049 -0.4321 -0.2510
 9303TIP3    H249401   5.384   6.244   2.202 -0.4285 -1.0932 -2.1856
 9304TIP3   OH249402   0.141   5.624  14.524  0.6991  0.3970 -0.3519
 9304TIP3    H149403   0.178   5.690  14.465  1.9791  1.0329  1.1550
 9304TIP3    H249404   0.155   5.541  14.478 -3.0245  1.2903 -3.3773
 9305TIP3   OH249405   1.595   6.499   1.407 -0.2151  0.2598 -0.0405
 9305TIP3    H149406   1.670   6.559   1.408 -0.7878  1.0077 -0.7715
 9305TIP3    H249407   1.537   6.532   1.475  0.0761 -0.2575  0.4560
 9306TIP3   OH249408   1.488   0.324  14.610 -0.1532  0.1768  0.4724
 9306TIP3    H149409   1.560   0.332  14.547 -0.4116 -0.1382  0.1362
 9306TIP3    H249410   1.409   0.339  14.559 -0.4589 -1.4820  0.4110
 9307TIP3   OH249411   4.939   1.611  13.512 -0.1789  0.0304 -0.1550
 9307TIP3    H149412   4.891   1.558  13.448  1.8158  0.7029 -2.2692
 9307TIP3    H249413   5.030   1.608  13.483  0.6200  1.2336  2.0706
 9308TIP3   OH249414   6.178   5.827  12.376  0.4215 -0.1847  0.1380
 9308TIP3    H149415   6.266   5.804  12.407 -0.1654  0.1167  2.0773
 9308TIP3    H249416   6.192   5.904  12.321  1.0111  1.9242  3.1439
 9309TIP3   OH249417   6.589   1.775  11.469  0.4215  0.1704 -0.0687
 9309TIP3    H149418   6.597   1.868  11.490 -0.2958  0.1885  0.1328
 9309TIP3    H249419   6.669   1.755  11.421  1.8660  0.2573  2.1901
 9310TIP3   OH249420   5.749   4.760  12.509 -0.2849  0.2559  0.5400
 9310TIP3    H149421   5.718   4.849  12.489 -0.3478  0.2463  0.5945
 9310TIP3    H249422   5.797   4.734  12.430 -1.2836 -0.1253  0.0467
 9311TIP3   OH249423   4.683   1.400   1.121 -0.1589 -0.5687 -0.1298
 9311TIP3    H149424   4.718   1.346   1.050 -0.1669 -0.5119 -0.1771
 9311TIP3    H249425   4.589   1.388   1.116 -0.3192  1.0201 -1.4221
 9312TIP3   OH249426   3.544   2.498  12.138 -0.4452 -0.6308 -0.3144
 9312TIP3    H149427   3.465   2.511  12.190 -0.0007 -0.4655  0.3218
 9312TIP3    H249428   3.526   2.419  12.086 -0.8191 -0.8985  0.2212
 9313TIP3   OH249429   0.261   0.375  11.195  0.8826 -0.4948 -0.1367
 9313TIP3    H149430   0.347   0.345  11.223  0.5548 -0.6767  0.6838
 9313TIP3    H249431   0.270   0.390  11.100  1.6194 -1.1791 -0.1774
 9314TIP3   OH249432   5.809   1.227   4.546  0.5166 -0.0159 -0.1066
 9314TIP3    H149433   5.786   1.235   4.639  0.5838 -2.5554  0.1631
 9314TIP3    H249434   5.751   1.289   4.501 -1.5036 -0.8186  1.3332
 9315TIP3   OH249435   1.737   6.817   4.778 -0.0330 -0.2417 -0.3830
 9315TIP3    H149436   1.750   6.723   4.786 -0.4006 -0.3696 -1.2701
 9315TIP3    H249437   1.684   6.840   4.855  0.7370 -0.6144  0.2690
 9316TIP3   OH249438   2.721   0.706   1.883 -0.2421  0.1043 -0.1145
 9316TIP3    H149439   2.680   0.764   1.819  0.9215  0.3782 -0.6300
 9316TIP3    H249440   2.798   0.672   1.838 -1.2806 -2.4086 -0.0628
 9317TIP3   OH249441   2.680   0.774  11.279 -0.2345  0.0735  0.2746
 9317TIP3    H149442   2.593   0.815  11.279 -0.4162 -0.3118  0.7566
 9317TIP3    H249443   2.668   0.691  11.234  0.4700  1.2217 -2.1530
 9318TIP3   OH249444   5.397   6.467   2.390 -0.2605 -0.6763  0.2595
 9318TIP3    H149445   5.381   6.385   2.343  0.2630 -0.6770  0.0744
 9318TIP3    H249446   5.354   6.534   2.338  0.1325 -0.7076 -0.1112
 9319TIP3   OH249447   2.928   3.213   3.659 -0.3022 -0.1084 -0.0450
 9319TIP3    H149448   2.858   3.262   3.614 -1.2159 -1.0975  0.2869
 9319TIP3    H249449   2.962   3.154   3.591  1.0131  1.1818 -0.5338
 9320TIP3   OH249450   0.286   1.810  14.446 -0.3816 -0.0033  0.0354
 9320TIP3    H149451   0.381   1.812  14.440 -0.2740 -0.6149  1.4120
 9320TIP3    H249452   0.260   1.903  14.450  0.3090  0.1359  1.7314
 9321TIP3   OH249453   5.805   6.135   5.640  0.1307 -0.1933 -0.1960
 9321TIP3    H149454   5.741   6.169   5.577 -0.2423  1.6275  1.1448
 9321TIP3    H249455   5.761   6.141   5.724  1.5405 -0.3053  0.5592
 9322TIP3   OH249456   2.354   6.199   3.239 -0.2780  0.0790 -0.7771
 9322TIP3    H149457   2.277   6.163   3.197 -0.8996  2.2348 -1.5652
 9322TIP3    H249458   2.322   6.276   3.286  1.0308 -0.2408  0.6933
 9323TIP3   OH249459   1.561   3.223  10.538 -0.3107  0.0508  0.5433
 9323TIP3    H149460   1.554   3.135  10.503 -1.1684 -1.0919  3.4159
 9323TIP3    H249461   1.543   3.213  10.632 -1.0169  3.3482  0.8332
 9324TIP3   OH249462   4.405   5.494  16.267 -0.6634  0.3278 -1.1351
 9324TIP3    H149463   4.402   5.415  16.321  1.4869  0.7006 -0.4472
 9324TIP3    H249464   4.313   5.519  16.257 -1.2888 -1.5550 -0.3315
 9325TIP3   OH249465   5.472   4.643  16.928 -0.0683  0.2960 -0.1502
 9325TIP3    H149466   5.543   4.707  16.922  1.1244 -1.0267 -0.3057
 9325TIP3    H249467   5.501   4.569  16.876 -0.9442 -0.8430  0.9429
 9326TIP3   OH249468   4.059   3.245   3.585 -0.0644  0.3101  0.2951
 9326TIP3    H149469   4.101   3.208   3.507  1.1923 -0.1756  1.1968
 9326TIP3    H249470   4.120   3.311   3.617 -0.7838  0.8278  0.6167
 9327TIP3   OH249471   1.933   6.148  11.424 -0.5171 -0.0377  0.6536
 9327TIP3    H149472   1.960   6.072  11.476 -0.2074 -0.5923 -0.3019
 9327TIP3    H249473   1.998   6.215  11.443  0.6220 -0.8312 -0.3776
 9328TIP3   OH249474   5.778   6.439   2.403 -0.3696 -0.0186  0.1371
 9328TIP3    H149475   5.786   6.344   2.396  0.4325  0.2461 -3.1369
 9328TIP3    H249476   5.805   6.473   2.318  2.1550  3.3406  2.1022
 9329TIP3   OH249477   3.860   4.958  11.637 -0.3872 -0.0610 -0.3232
 9329TIP3    H149478   3.845   4.956  11.732 -0.1310  0.3285 -0.2721
 9329TIP3    H249479   3.810   5.034  11.607 -1.2687 -0.7571 -0.6443
 9330TIP3   OH249480   6.639   1.991   1.051  0.1146 -0.3459  0.1138
 9330TIP3    H149481   6.667   1.903   1.026 -2.1337 -1.3002  0.8230
 9330TIP3    H249482   6.547   1.981   1.075 -0.3227  2.3122 -0.3066
 9331TIP3   OH249483   3.450   2.403  17.003  0.0680  0.6332 -0.1094
 9331TIP3    H149484   3.514   2.453  16.953  2.0591  0.7271  2.4659
 9331TIP3    H249485   3.376   2.462  17.015  0.8182  1.6207 -0.3530
 9332TIP3   OH249486   1.699   4.412   1.836 -0.2051 -0.5087 -0.0875
 9332TIP3    H149487   1.716   4.379   1.924  0.4222 -0.8968 -0.3432
 9332TIP3    H249488   1.604   4.405   1.826 -0.2221 -1.0074  0.3523
 9333TIP3   OH249489   5.866   2.563   1.662 -0.3029 -0.0027  1.1763
 9333TIP3    H149490   5.878   2.575   1.568  2.7886 -0.4518  1.4387
 9333TIP3    H249491   5.785   2.514   1.670 -2.4342  3.0058 -1.0208
 9334TIP3   OH249492   1.635   4.415   1.207  0.0710  0.0972 -0.1435
 9334TIP3    H149493   1.679   4.470   1.272 -1.3551 -0.9851  1.7917
 9334TIP3    H249494   1.705   4.388   1.147  0.8789  3.5923 -0.9004
 9335TIP3   OH249495   5.654   5.501   4.674 -0.0983  1.0274  0.4028
 9335TIP3    H149496   5.632   5.445   4.600 -0.5741  0.7962  0.7245
 9335TIP3    H249497   5.589   5.571   4.671 -0.9865  0.2564  1.4453
 9336TIP3   OH249498   3.291   1.021  14.306  0.0481 -0.8042  0.0901
 9336TIP3    H149499   3.310   0.936  14.345 -0.5906 -1.5572 -1.2161
 9336TIP3    H249500   3.325   1.084  14.369 -0.3532 -2.0019  1.5441
 9337TIP3   OH249501   5.220   5.067   0.230  0.1885 -0.5018  0.3904
 9337TIP3    H149502   5.254   5.018   0.305  0.4360 -0.0795  0.5589
 9337TIP3    H249503   5.151   5.012   0.194 -0.8059 -0.1297  1.6924
 9338TIP3   OH249504   3.047   6.786   4.130 -0.5106 -0.1414 -0.7234
 9338TIP3    H149505   3.079   6.786   4.039  1.1287 -0.9389 -0.1669
 9338TIP3    H249506   3.127   6.781   4.183 -1.5353 -1.8270  0.7105
 9339TIP3   OH249507   4.514   4.301   2.527 -0.4241  0.0525 -0.5655
 9339TIP3    H149508   4.484   4.389   2.548  1.5966 -0.4421  5.4087
 9339TIP3    H249509   4.603   4.314   2.494  1.1573  0.2106  3.4789
 9340TIP3   OH249510   3.362   1.640  16.988  0.0704  0.2442  0.0128
 9340TIP3    H149511   3.424   1.570  16.968  0.6282 -0.0396  2.4706
 9340TIP3    H249512   3.276   1.598  16.981  0.3712 -0.5283  0.7715
 9341TIP3   OH249513   6.538   6.019   6.805 -0.2805 -0.1227  0.4602
 9341TIP3    H149514   6.512   5.991   6.718 -0.3482 -0.3398  0.5487
 9341TIP3    H249515   6.460   6.004   6.859  0.1123 -1.0512  0.7877
 9342TIP3   OH249516   1.957   0.216   2.562 -0.6676 -0.4816 -0.2112
 9342TIP3    H149517   2.036   0.184   2.604 -1.5266 -0.4472  1.4540
 9342TIP3    H249518   1.916   0.272   2.628 -2.5092 -1.1666 -0.7609
 9343TIP3   OH249519   6.220   3.918   2.735  0.6399  0.5806  0.2771
 9343TIP3    H149520   6.160   3.985   2.769  0.2863 -0.2475  1.3187
 9343TIP3    H249521   6.164   3.842   2.720  1.2799  0.0710  0.4467
 9344TIP3   OH249522   6.179   4.834  12.583  0.2570 -0.3768 -0.4091
 9344TIP3    H149523   6.194   4.819  12.490  1.8749  2.1072 -0.5953
 9344TIP3    H249524   6.240   4.775  12.628 -0.6480 -1.6996 -0.8774
 9345TIP3   OH249525   4.721   4.019  14.353  0.3550 -0.3610  0.3212
 9345TIP3    H149526   4.776   4.029  14.275  1.1664 -0.4123  0.8791
 9345TIP3    H249527   4.688   4.107  14.370 -1.4085 -0.7047 -1.2195
 9346TIP3   OH249528   2.077   4.394   5.808  0.0856  0.0890  0.1639
 9346TIP3    H149529   2.156   4.412   5.859  0.7828  0.6041 -1.0590
 9346TIP3    H249530   2.067   4.471   5.752 -1.0824 -0.1414  0.0404
 9347TIP3   OH249531   2.923   4.500   6.811 -0.1375 -0.3324  0.2660
 9347TIP3    H149532   2.885   4.496   6.899 -0.6177  1.6853  0.1707
 9347TIP3    H249533   3.010   4.538   6.824 -0.4070  0.4350 -0.1989
 9348TIP3   OH249534   3.831   1.872  14.381 -0.3062 -0.3588  0.4997
 9348TIP3    H149535   3.879   1.796  14.348 -0.8780 -0.2931 -0.5136
 9348TIP3    H249536   3.785   1.840  14.458 -1.3351 -1.3196 -0.4920
 9349TIP3   OH249537   4.253   5.015   3.310 -0.7740  0.7278  0.4685
 9349TIP3    H149538   4.260   5.082   3.241 -0.5120  0.4035  0.1825
 9349TIP3    H249539   4.313   5.045   3.378  1.6781 -0.7873 -0.9464
 9350TIP3   OH249540   5.384   4.164  15.530 -0.3433  0.2162 -0.3353
 9350TIP3    H149541   5.383   4.087  15.587 -2.5083  0.4632  0.0086
 9350TIP3    H249542   5.402   4.129  15.443 -1.0525 -0.6684 -0.1448
 9351TIP3   OH249543   4.270   0.299  16.636  0.0355  0.0143  0.6722
 9351TIP3    H149544   4.231   0.386  16.645 -0.7793 -0.3058  0.3295
 9351TIP3    H249545   4.290   0.272  16.725 -1.7259 -0.3434  0.9732
 9352TIP3   OH249546   1.406   4.649  12.690 -0.3867  0.0481 -0.3514
 9352TIP3    H149547   1.323   4.686  12.721 -1.3783 -1.8842 -0.5979
 9352TIP3    H249548   1.381   4.591  12.618  1.1581 -0.7109 -0.3017
 9353TIP3   OH249549   5.102   4.246  11.727  0.1770 -0.7129  0.9417
 9353TIP3    H149550   5.018   4.271  11.766 -0.8615  0.6466 -1.9841
 9353TIP3    H249551   5.143   4.190  11.792 -2.1368  0.1869  3.2757
 9354TIP3   OH249552   6.194   5.568   0.013 -0.1698  0.0351  0.0632
 9354TIP3    H149553   6.199   5.651  -0.034  1.6575  0.0295  0.1988
 9354TIP3    H249554   6.182   5.503  -0.056  0.1144  0.2550 -0.1968
 9355TIP3   OH249555   0.229   6.281  12.380 -0.3951 -0.2520 -0.1303
 9355TIP3    H149556   0.158   6.226  12.415 -1.7029  1.3179 -0.2798
 9355TIP3    H249557   0.246   6.344  12.449 -0.0061  0.1685 -0.6129
 9356TIP3   OH249558   2.565   5.551  16.880 -0.0842  0.0735  0.5942
 9356TIP3    H149559   2.644   5.560  16.932  0.7099 -0.1789 -0.5659
 9356TIP3    H249560   2.526   5.639  16.881  1.1849  0.6710 -0.3548
 9357TIP3   OH249561   3.989   6.420   3.785 -0.1929 -0.2429  0.0813
 9357TIP3    H149562   3.911   6.456   3.829 -0.0901 -0.6001  0.5618
 9357TIP3    H249563   4.005   6.480   3.713  0.5105  1.2306  1.4200
 9358TIP3   OH249564   0.084   0.685  17.274  0.1055 -0.5378  0.0805
 9358TIP3    H149565   0.168   0.640  17.265  0.9921  1.1587 -0.3371
 9358TIP3    H249566   0.093   0.738  17.353  0.1452  1.1410 -1.0338
 9359TIP3   OH249567   4.067   2.129  11.666  0.6653  0.4698  0.3138
 9359TIP3    H149568   3.983   2.152  11.706  0.5474 -0.1932  0.4606
 9359TIP3    H249569   4.043   2.068  11.596  1.0510  0.0476  0.5482
 9360TIP3   OH249570   0.994   5.200   0.615  0.1484 -0.3294  0.3806
 9360TIP3    H149571   1.050   5.134   0.656 -1.2996 -0.7439  1.7605
 9360TIP3    H249572   1.053   5.249   0.558  1.3993 -2.3407 -0.1252
 9361TIP3   OH249573   6.729   4.985  11.401  0.5265 -0.1752 -0.1154
 9361TIP3    H149574   6.795   4.965  11.334 -0.6072  1.8299 -1.9075
 9361TIP3    H249575   6.744   5.077  11.421 -0.6556 -0.1629  0.7027
 9362TIP3   OH249576   0.975   2.908  14.032 -0.0898 -0.2400 -0.2404
 9362TIP3    H149577   1.005   2.842  14.094 -0.9572 -0.7352 -0.3328
 9362TIP3    H249578   0.890   2.937  14.067 -0.2342  0.0114 -0.7921
 9363TIP3   OH249579   2.073   2.463   2.510 -0.1721  0.3301  0.6790
 9363TIP3    H149580   2.096   2.545   2.466  1.6052 -0.7927 -0.5741
 9363TIP3    H249581   1.979   2.453   2.496  0.2547  0.2324 -2.6041
 9364TIP3   OH249582   1.163   4.580   3.034 -1.2804 -0.0426  0.2725
 9364TIP3    H149583   1.082   4.545   2.998 -0.7501 -0.5695 -0.4211
 9364TIP3    H249584   1.231   4.549   2.974 -0.9057  3.0042 -0.9763
 9365TIP3   OH249585   3.400   6.355  14.595  0.2169  0.1370 -0.1097
 9365TIP3    H149586   3.467   6.302  14.637 -0.4381 -1.2803 -0.8179
 9365TIP3    H249587   3.347   6.389  14.667  1.2027  0.5888  0.4030
 9366TIP3   OH249588   0.695   4.951  16.822 -0.7595 -0.2686 -0.3337
 9366TIP3    H149589   0.657   4.873  16.782 -3.1587  0.6026  0.1590
 9366TIP3    H249590   0.682   5.021  16.757 -0.3627  0.1407  0.0199
 9367TIP3   OH249591   0.790   2.060   4.302  0.0020 -0.4517 -0.4180
 9367TIP3    H149592   0.799   2.060   4.207  2.0226  0.1995 -0.2401
 9367TIP3    H249593   0.832   2.141   4.331 -0.6476 -0.6088  1.0293
 9368TIP3   OH249594   4.450   3.995  14.343 -0.2399 -0.2035  0.0273
 9368TIP3    H149595   4.543   4.001  14.362 -0.0185 -0.1670 -1.0439
 9368TIP3    H249596   4.441   4.029  14.254 -1.6759  2.5638  1.1577
 9369TIP3   OH249597   3.728   6.151   3.633 -0.0790 -0.5449 -0.5275
 9369TIP3    H149598   3.722   6.171   3.726  1.3415  0.4719 -0.6443
 9369TIP3    H249599   3.784   6.073   3.628  2.4495  1.2185 -0.7041
 9370TIP3   OH249600   6.338   0.233   3.008 -0.3408  0.1184  0.4622
 9370TIP3    H149601   6.288   0.152   2.996 -0.6902  0.6667 -1.9668
 9370TIP3    H249602   6.279   0.301   2.976 -0.0696  1.3534  2.5468
 9371TIP3   OH249603   4.103   1.714  11.983  0.3568  0.4483  0.2907
 9371TIP3    H149604   4.154   1.675  11.912  0.0940  0.3477  0.1562
 9371TIP3    H249605   4.016   1.675  11.975  0.5966 -0.2890  1.2702
 9372TIP3   OH249606   0.841   1.590  14.185  0.2269 -0.3713  0.0021
 9372TIP3    H149607   0.827   1.685  14.183 -1.4761 -0.5791  0.8475
 9372TIP3    H249608   0.755   1.553  14.165  0.8606 -1.7411 -0.2047
 9373TIP3   OH249609   3.630   0.360   1.964 -0.3897 -0.8943  0.2840
 9373TIP3    H149610   3.618   0.265   1.964 -2.0197 -0.7036 -0.3712
 9373TIP3    H249611   3.661   0.380   2.052  3.1623 -2.3919 -0.5209
 9374TIP3   OH249612   1.616   6.075  17.144 -0.1031  0.2696 -0.2166
 9374TIP3    H149613   1.594   6.145  17.082 -3.1043  0.3783  0.8975
 9374TIP3    H249614   1.710   6.086  17.159 -0.3728  3.6696 -0.5552
 9375TIP3   OH249615   5.953   6.433   2.888  0.1622  0.4885 -0.2080
 9375TIP3    H149616   5.927   6.349   2.925  0.6352  0.2858 -0.3311
 9375TIP3    H249617   5.895   6.497   2.930 -0.1329  0.1158 -0.0428
 9376TIP3   OH249618   0.581   5.946  11.921 -0.9233 -0.0745  0.2611
 9376TIP3    H149619   0.560   5.853  11.936  2.4065 -0.8536  0.4008
 9376TIP3    H249620   0.595   5.952  11.826 -0.8947  0.2233  0.2852
 9377TIP3   OH249621   0.505   0.647   0.211  0.1373 -0.1981 -0.1169
 9377TIP3    H149622   0.589   0.603   0.194  0.7680  1.4472 -1.3478
 9377TIP3    H249623   0.453   0.629   0.133 -0.7320 -1.3535  0.7172
 9378TIP3   OH249624   6.319   0.515   1.938  0.1298 -0.3116 -0.1112
 9378TIP3    H149625   6.392   0.551   1.886 -0.2871  0.5112 -0.1383
 9378TIP3    H249626   6.330   0.420   1.933 -0.3378 -0.2792 -2.3638
 9379TIP3   OH249627   3.992   5.886  15.292 -0.1688 -0.2304  0.0585
 9379TIP3    H149628   4.065   5.926  15.338 -0.3508  0.3642 -0.1585
 9379TIP3    H249629   3.917   5.943  15.312 -0.3648 -0.2824 -0.5176
 9380TIP3   OH249630   2.188   2.557  11.757  0.1898  0.1231  0.0349
 9380TIP3    H149631   2.205   2.649  11.736 -0.5009  0.3547  0.4520
 9380TIP3    H249632   2.274   2.521  11.778  0.6747  0.2797 -1.6372
 9381TIP3   OH249633   0.089   6.282   0.609 -0.3608  0.5927 -0.1914
 9381TIP3    H149634   0.091   6.322   0.523 -1.3739 -0.9122 -0.9345
 9381TIP3    H249635   0.171   6.233   0.615 -1.5175 -1.5973 -1.4643
 9382TIP3   OH249636   2.401   0.018  16.080 -0.2305 -0.7271  0.5443
 9382TIP3    H149637   2.377  -0.068  16.115 -1.3553 -1.1195 -1.1165
 9382TIP3    H249638   2.320   0.068  16.083  0.6308  0.5965  2.3484
 9383TIP3   OH249639   6.748   6.756   4.478 -0.3148 -0.2424  0.6863
 9383TIP3    H149640   6.691   6.683   4.453  0.0177 -0.8158  1.5963
 9383TIP3    H249641   6.692   6.814   4.530  0.6690 -2.3166  4.2135
 9384TIP3   OH249642   4.984   4.397   1.118  0.3727 -0.5012 -0.8026
 9384TIP3    H149643   5.058   4.453   1.143  1.1584 -2.7031  2.0738
 9384TIP3    H249644   4.921   4.408   1.190 -0.5766 -1.3387 -1.4912
 9385TIP3   OH249645   1.969   3.501   1.874  0.0040  1.1005 -0.7856
 9385TIP3    H149646   1.944   3.442   1.802 -1.5387 -1.1445  1.4791
 9385TIP3    H249647   1.886   3.531   1.910  0.7265  1.2140  0.8133
 9386TIP3   OH249648   6.657   5.278  13.839  0.3613 -0.3176  0.1658
 9386TIP3    H149649   6.567   5.311  13.837  0.5795  0.2956  0.2682
 9386TIP3    H249650   6.652   5.190  13.801 -0.5573 -0.9734  1.7866
 9387TIP3   OH249651   2.665   6.572   4.078 -0.1498  0.5348 -0.4889
 9387TIP3    H149652   2.599   6.504   4.061  0.6985 -0.2327 -0.7353
 9387TIP3    H249653   2.634   6.615   4.157 -0.4181 -0.4966 -0.0139
 9388TIP3   OH249654   4.913   0.210   6.714 -0.0728  0.4288 -0.5213
 9388TIP3    H149655   4.965   0.260   6.777 -0.4290 -0.5654  0.5712
 9388TIP3    H249656   4.928   0.254   6.631  1.7006  0.7758 -0.0339
 9389TIP3   OH249657   6.323   3.307   1.049 -0.7796  0.2459  0.0132
 9389TIP3    H149658   6.330   3.248   1.124  0.2969  0.4356  0.0721
 9389TIP3    H249659   6.229   3.313   1.032 -0.9437 -0.9735  0.4081
 9390TIP3   OH249660   0.195   6.083   0.866  0.2066  0.1534  0.0723
 9390TIP3    H149661   0.262   6.147   0.844  1.0079 -0.6126  0.2492
 9390TIP3    H249662   0.178   6.096   0.959 -0.1223  0.5582 -0.0429
 9391TIP3   OH249663   2.259   3.196   0.388  0.2122 -0.0464  0.3144
 9391TIP3    H149664   2.174   3.191   0.432 -0.3382  0.9371 -0.6049
 9391TIP3    H249665   2.246   3.260   0.319  1.8236  0.4059  0.4089
 9392TIP3   OH249666   4.609   6.178   1.366 -0.2524  0.3469  0.3134
 9392TIP3    H149667   4.540   6.164   1.301  0.6311 -0.7876 -0.3941
 9392TIP3    H249668   4.627   6.091   1.401  1.1891  0.5540  0.1072
 9393TIP3   OH249669   6.154   0.354   3.323 -0.0228  1.0093 -1.5859
 9393TIP3    H149670   6.174   0.446   3.305  2.2801  0.4820 -1.8749
 9393TIP3    H249671   6.231   0.307   3.293  0.2414 -0.7307  1.6076
 9394TIP3   OH249672   0.594   6.321   5.102  0.1176 -0.2355  0.5861
 9394TIP3    H149673   0.686   6.346   5.096 -0.0556 -0.0777 -2.1624
 9394TIP3    H249674   0.555   6.354   5.021 -1.6136 -3.2528  0.0905
 9395TIP3   OH249675   5.501   4.466  16.728  0.0772 -0.2371  0.3675
 9395TIP3    H149676   5.595   4.448  16.725  0.3656  1.1437  0.5334
 9395TIP3    H249677   5.482   4.503  16.641 -0.2445 -0.2019  0.4524
 9396TIP3   OH249678   2.696   5.119   5.736 -0.0862 -0.5318 -0.1849
 9396TIP3    H149679   2.751   5.041   5.739  1.4510  0.5851  2.1559
 9396TIP3    H249680   2.756   5.191   5.717 -1.0041  0.4873  0.6874
 9397TIP3   OH249681   2.687   0.424   2.011 -0.8678 -0.1084  0.0714
 9397TIP3    H149682   2.692   0.329   2.005 -2.2787 -0.1430 -0.6620
 9397TIP3    H249683   2.655   0.452   1.925  1.9735  1.2200 -0.6183
 9398TIP3   OH249684   0.889   0.174  16.262 -0.6539  0.2839  0.1439
 9398TIP3    H149685   0.940   0.216  16.193 -4.3449 -0.0979 -2.9912
 9398TIP3    H249686   0.857   0.247  16.315 -0.0174  0.7867 -0.1539
 9399TIP3   OH249687   1.104   1.780  15.315  0.4192 -0.4331 -0.4067
 9399TIP3    H149688   1.048   1.854  15.294  2.3268  0.8862 -0.9708
 9399TIP3    H249689   1.115   1.734  15.231 -0.2903 -1.0321 -0.1766
 9400TIP3   OH249690   2.569   6.481  14.018 -0.4449 -0.3583 -0.1783
 9400TIP3    H149691   2.496   6.438  13.975 -0.1366  0.2102 -1.2811
 9400TIP3    H249692   2.646   6.433  13.989 -0.1230  0.7545 -1.2079
 9401TIP3   OH249693   3.094   3.114   0.881  0.1193 -0.2977  0.3009
 9401TIP3    H149694   3.102   3.074   0.967  2.1134  1.0349  0.7696
 9401TIP3    H249695   3.183   3.137   0.856 -0.3144 -1.4390 -2.5242
 9402TIP3   OH249696   5.160   6.586  17.182 -0.1304 -0.3618  0.5899
 9402TIP3    H149697   5.127   6.568  17.094 -0.7873  0.4836  0.6569
 9402TIP3    H249698   5.112   6.664  17.210  1.7832  0.7738  0.7693
 9403TIP3   OH249699   3.924   4.147   2.109  0.0987  0.2929  0.5678
 9403TIP3    H149700   3.941   4.236   2.141  0.6410  0.3283  0.1800
 9403TIP3    H249701   3.943   4.152   2.015 -3.7664  0.8320 -0.2906
 9404TIP3   OH249702   6.697   3.916   0.653  0.3476  0.1082  0.0617
 9404TIP3    H149703   6.710   3.850   0.585 -0.9174  0.5399 -0.6228
 9404TIP3    H249704   6.775   3.910   0.708  0.0826 -2.2145  0.2315
 9405TIP3   OH249705   1.954   4.880  16.927  0.0065 -0.8581 -0.1245
 9405TIP3    H149706   1.978   4.972  16.912  0.5222 -1.0232 -0.3319
 9405TIP3    H249707   1.858   4.879  16.925 -0.0750  0.0800  2.2872
 9406TIP3   OH249708   4.834   1.809  15.975 -0.2764  0.6701  0.0026
 9406TIP3    H149709   4.744   1.802  16.006  1.0214 -3.5808  3.2733
 9406TIP3    H249710   4.879   1.858  16.043  0.2996  1.1536 -0.7208
 9407TIP3   OH249711   5.444   2.510   2.698 -0.0394  0.1904  0.3100
 9407TIP3    H149712   5.468   2.424   2.732 -1.2569 -0.0829  0.5100
 9407TIP3    H249713   5.525   2.546   2.662  0.2353 -1.5048 -0.7890
 9408TIP3   OH249714   0.170   5.380  11.660 -0.0384  0.0713 -0.1884
 9408TIP3    H149715   0.262   5.395  11.638 -0.1320 -0.0125 -0.6375
 9408TIP3    H249716   0.164   5.285  11.671 -0.2611 -0.0175 -1.0298
 9409TIP3   OH249717   0.284   2.995  15.665 -0.0683  0.2465 -0.1117
 9409TIP3    H149718   0.305   3.075  15.616 -0.8557  0.2985 -0.3747
 9409TIP3    H249719   0.234   2.941  15.604 -0.9261  0.2441  0.5654
 9410TIP3   OH249720   4.973   4.883  12.810  0.1100 -0.0335 -1.1353
 9410TIP3    H149721   5.042   4.862  12.746  0.1893 -1.2691 -0.6714
 9410TIP3    H249722   4.929   4.799  12.825  0.0051  0.2830  0.3351
 9411TIP3   OH249723   6.491   5.015   1.765 -0.1478 -0.1532  0.1389
 9411TIP3    H149724   6.439   5.080   1.813 -2.1482 -0.1603 -1.9748
 9411TIP3    H249725   6.493   4.939   1.823  0.6032  1.0938  1.8037
 9412TIP3   OH249726   5.751   0.545  11.690  0.4260 -0.1005  0.0466
 9412TIP3    H149727   5.828   0.569  11.742  0.4266  1.3195 -0.5979
 9412TIP3    H249728   5.747   0.610  11.620 -2.5932  1.1433  1.2773
 9413TIP3   OH249729   1.785   0.395  12.373 -0.3502 -0.2860  0.0577
 9413TIP3    H149730   1.710   0.421  12.321  0.9841 -1.2408 -2.4322
 9413TIP3    H249731   1.770   0.303  12.394  0.8825 -0.9546 -1.8813
 9414TIP3   OH249732   6.398   3.183  12.242  0.7043 -0.5544  0.0607
 9414TIP3    H149733   6.433   3.235  12.170  1.8083 -0.0418  0.9500
 9414TIP3    H249734   6.353   3.109  12.199  1.2339 -0.1878 -1.1390
 9415TIP3   OH249735   6.241   6.111  13.577 -0.2233 -0.1710  0.1359
 9415TIP3    H149736   6.158   6.102  13.624 -0.4186 -0.9112 -0.3309
 9415TIP3    H249737   6.217   6.099  13.484  0.2833  0.4246 -0.0703
 9416TIP3   OH249738   0.119   2.191  11.589 -0.7550 -0.0751 -0.4214
 9416TIP3    H149739   0.094   2.200  11.497 -1.5106  0.3733 -0.1862
 9416TIP3    H249740   0.204   2.149  11.588  0.1136  1.6790 -1.4048
 9417TIP3   OH249741   4.911   2.103  14.150 -0.0332 -0.0788  0.4233
 9417TIP3    H149742   4.912   2.188  14.194  0.8016 -0.4224  1.0963
 9417TIP3    H249743   4.828   2.101  14.102  0.0451  1.2030  0.2140
 9418TIP3   OH249744   5.305   4.910  15.897  0.7661  0.7959 -0.2046
 9418TIP3    H149745   5.243   4.854  15.851  1.6312  0.5353 -1.0601
 9418TIP3    H249746   5.370   4.850  15.934  0.2284  1.0248  1.1362
 9419TIP3   OH249747   3.758   6.165   5.528  0.1871  0.2693  0.1449
 9419TIP3    H149748   3.693   6.095   5.520 -0.2001  0.7792 -1.4368
 9419TIP3    H249749   3.720   6.227   5.589  0.9639 -1.3563  2.3364
 9420TIP3   OH249750   3.507   1.902   0.700 -0.3430 -0.6688 -0.5886
 9420TIP3    H149751   3.430   1.912   0.644 -1.1300  0.0136  0.5981
 9420TIP3    H249752   3.482   1.943   0.783  1.1332 -0.8522 -0.0365
 9421TIP3   OH249753   5.177   3.394   6.544  0.9272 -0.0463 -0.1257
 9421TIP3    H149754   5.232   3.451   6.598  0.1710  2.1313 -1.5805
 9421TIP3    H249755   5.238   3.328   6.510  2.0337  0.4824  0.7830
 9422TIP3   OH249756   4.825   5.074   2.681  0.9115 -0.5014 -0.0405
 9422TIP3    H149757   4.785   5.079   2.768  1.3203  0.1507  0.1166
 9422TIP3    H249758   4.751   5.078   2.620  0.6505 -0.5535  0.2723
 9423TIP3   OH249759   2.055   1.051   2.096 -0.5048 -0.1588 -0.0083
 9423TIP3    H149760   2.049   1.127   2.038  0.1771  1.2094  1.6885
 9423TIP3    H249761   2.138   1.062   2.142 -1.2065 -1.0157  1.5145
 9424TIP3   OH249762   4.451   6.407   0.749  0.8237 -0.4562  0.3839
 9424TIP3    H149763   4.402   6.410   0.667  1.6843  1.1817 -0.0952
 9424TIP3    H249764   4.516   6.339   0.735  2.0332  0.9353 -0.9249
 9425TIP3   OH249765   5.683   3.594  11.431 -0.5822 -0.3287  0.0368
 9425TIP3    H149766   5.655   3.526  11.492 -0.6242 -0.5083 -0.1871
 9425TIP3    H249767   5.680   3.554  11.345  2.1168 -0.9500  0.1711
 9426TIP3   OH249768   1.734   4.832  11.886 -0.0315 -0.0512  0.0222
 9426TIP3    H149769   1.695   4.829  11.799  0.6899 -2.2137 -0.2609
 9426TIP3    H249770   1.811   4.887  11.876  0.2164 -0.5402 -0.7826
 9427TIP3   OH249771   6.179   3.541   0.306 -0.5383  0.4938 -0.6585
 9427TIP3    H149772   6.254   3.589   0.272  0.3692  0.8424  1.7445
 9427TIP3    H249773   6.106   3.603   0.300  0.3280  1.7098  1.0998
 9428TIP3   OH249774   1.292   1.215   1.881  0.4379 -0.4550  0.3057
 9428TIP3    H149775   1.310   1.121   1.887  1.7606 -0.1331  1.8280
 9428TIP3    H249776   1.363   1.256   1.930 -0.5355  1.3104  0.2872
 9429TIP3   OH249777   6.075   0.039   0.353  0.1885 -0.3049  0.0150
 9429TIP3    H149778   6.004   0.012   0.411  1.9338 -0.8887  1.9416
 9429TIP3    H249779   6.062   0.133   0.340  0.2951  0.0076  2.0970
 9430TIP3   OH249780   6.036   2.264  15.065  0.1324 -0.5213  0.4675
 9430TIP3    H149781   5.974   2.332  15.093  1.5823  0.1898  2.0574
 9430TIP3    H249782   6.053   2.284  14.973 -0.7922  0.2172  0.4448
 9431TIP3   OH249783   3.042   2.599   2.619 -0.0451 -0.0060  0.3360
 9431TIP3    H149784   3.030   2.540   2.693  2.9868  1.1710  1.8352
 9431TIP3    H249785   3.090   2.674   2.655  0.9633  0.8752 -2.6824
 9432TIP3   OH249786   6.177   5.813  17.119  0.5337 -0.1383 -0.8539
 9432TIP3    H149787   6.249   5.843  17.175 -0.7273  0.2960  0.5781
 9432TIP3    H249788   6.207   5.829  17.030  1.7406  1.1226 -0.2341
 9433TIP3   OH249789   1.959   1.690   0.569 -0.2317 -0.3876  0.3713
 9433TIP3    H149790   2.034   1.705   0.511 -1.1036  0.3229 -0.5849
 9433TIP3    H249791   1.964   1.761   0.633  0.0813 -0.5085  0.4805
 9434TIP3   OH249792   3.111   4.866   1.641  0.0138 -0.1610 -0.5098
 9434TIP3    H149793   3.132   4.818   1.722 -1.7849  0.7397  0.5201
 9434TIP3    H249794   3.080   4.799   1.581  2.0362 -0.9420 -0.7145
 9435TIP3   OH249795   6.368   4.029  11.470 -0.5905  0.2302  0.1047
 9435TIP3    H149796   6.427   4.098  11.503 -0.2320 -0.3722  0.7361
 9435TIP3    H249797   6.373   4.037  11.375 -1.0731  1.5272  0.1757
 9436TIP3   OH249798   1.056   0.372   1.908  0.3148 -0.4275  0.0534
 9436TIP3    H149799   0.990   0.326   1.856  1.0449 -2.0006  0.4866
 9436TIP3    H249800   1.018   0.458   1.924 -0.1786 -0.1178 -2.5569
 9437TIP3   OH249801   2.697   0.658  13.144 -0.4056 -0.1107  0.4690
 9437TIP3    H149802   2.770   0.654  13.206  0.1621 -1.4828 -0.2587
 9437TIP3    H249803   2.733   0.620  13.064 -1.4095  0.7982 -0.4266
 9438TIP3   OH249804   2.283   4.824   1.033  0.7050 -0.4473  0.0074
 9438TIP3    H149805   2.350   4.825   1.101  1.5319 -0.3128 -0.8061
 9438TIP3    H249806   2.200   4.832   1.081  1.2646 -0.5808  1.0083
 9439TIP3   OH249807   6.679   1.754  12.693 -0.4076  0.3422 -0.2188
 9439TIP3    H149808   6.620   1.829  12.695 -2.0765 -0.9799  0.7547
 9439TIP3    H249809   6.715   1.749  12.782  0.9327  0.9381 -0.7132
 9440TIP3   OH249810   2.493   6.162  14.295  0.5647 -0.1922  0.1225
 9440TIP3    H149811   2.420   6.155  14.234 -0.2213  0.0600  1.0372
 9440TIP3    H249812   2.507   6.256  14.306  2.1233 -0.2111 -1.3376
 9441TIP3   OH249813   5.996   3.609   4.803  0.2985  0.4099  0.3559
 9441TIP3    H149814   5.955   3.532   4.843  0.2230  0.0719 -0.3755
 9441TIP3    H249815   5.942   3.682   4.833 -1.0221 -0.0571 -0.8070
 9442TIP3   OH249816   3.170   1.075   3.968  0.1483 -0.1572 -0.6113
 9442TIP3    H149817   3.216   1.149   4.007 -0.6399 -0.7443  1.4749
 9442TIP3    H249818   3.216   0.997   4.001 -0.5712 -0.6634 -0.7849
 9443TIP3   OH249819   2.588   0.817   2.235  0.5145 -0.2403 -0.1271
 9443TIP3    H149820   2.550   0.729   2.227  0.8444 -0.4292  0.3639
 9443TIP3    H249821   2.683   0.803   2.227  0.6660 -0.0966  1.3058
 9444TIP3   OH249822   5.934   6.006   6.701  0.1391 -0.5473 -0.1720
 9444TIP3    H149823   5.862   6.034   6.644 -0.3027 -0.0978  0.5990
 9444TIP3    H249824   6.002   6.073   6.688  0.3032 -0.8113 -0.6776
 9445TIP3   OH249825   3.040   2.647   3.886 -0.7026  0.0571  0.1800
 9445TIP3    H149826   3.095   2.694   3.823 -1.3164  1.8474  0.9454
 9445TIP3    H249827   3.099   2.584   3.927  0.5768  1.3598  0.3799
 9446TIP3   OH249828   5.537   4.250   1.706 -0.5358 -0.1709  0.7029
 9446TIP3    H149829   5.441   4.243   1.712 -0.7139  0.2926 -1.2168
 9446TIP3    H249830   5.557   4.332   1.751 -1.2593  0.6561 -0.4317
 9447TIP3   OH249831   5.279   1.949   5.913 -0.3720  0.2789  0.5940
 9447TIP3    H149832   5.348   1.993   5.863 -0.6501 -0.9983 -0.9412
 9447TIP3    H249833   5.198   1.990   5.883 -0.3421  1.4933  2.1014
 9448TIP3   OH249834   3.302   5.066   1.454 -0.5623  0.1028 -0.0022
 9448TIP3    H149835   3.294   5.097   1.363 -2.2520  1.4830  0.5785
 9448TIP3    H249836   3.250   4.985   1.456 -1.4163  0.6397 -0.0257
 9449TIP3   OH249837   0.099   2.803  16.415 -0.5677  0.2479  0.3419
 9449TIP3    H149838   0.055   2.888  16.421  0.8033  1.1729 -2.0860
 9449TIP3    H249839   0.028   2.739  16.413 -1.6228  1.3427  1.8470
 9450TIP3   OH249840   6.690   2.037   0.673 -0.0378  0.6808 -0.1408
 9450TIP3    H149841   6.621   2.056   0.610  1.2018  3.4333 -0.7614
 9450TIP3    H249842   6.771   2.037   0.622  0.6105 -0.8151  0.8477
 9451TIP3   OH249843   4.774   1.265   4.367  0.0252  0.0738 -0.6822
 9451TIP3    H149844   4.819   1.211   4.432  1.2507  0.3447 -1.2892
 9451TIP3    H249845   4.813   1.239   4.284 -1.2076  0.0579 -1.2531
 9452TIP3   OH249846   5.163   4.087  13.058  0.5032  1.2517 -0.6448
 9452TIP3    H149847   5.136   4.116  13.145  0.8164 -3.7057  1.2822
 9452TIP3    H249848   5.258   4.078  13.065  0.5849  1.3031 -1.6638
 9453TIP3   OH249849   1.003   5.380   3.905 -0.3548 -0.0272  0.1547
 9453TIP3    H149850   0.962   5.367   3.990 -3.0124  1.4880 -0.8043
 9453TIP3    H249851   1.010   5.475   3.896  3.4126 -0.2296  0.2233
 9454TIP3   OH249852   6.072   5.144  16.386 -0.4122  0.4302 -0.4843
 9454TIP3    H149853   6.082   5.214  16.450 -0.0900  1.5006 -1.6694
 9454TIP3    H249854   5.989   5.101  16.408  0.3643 -0.1194  1.4728
 9455TIP3   OH249855   0.686   6.467   5.732 -0.3628  0.0244  0.1928
 9455TIP3    H149856   0.631   6.498   5.805 -0.3243 -1.1627  0.7345
 9455TIP3    H249857   0.686   6.540   5.670 -1.1040  0.7210  0.9902
 9456TIP3   OH249858   6.495   3.285  14.434 -0.5004  0.5403  0.2606
 9456TIP3    H149859   6.583   3.319  14.450 -0.9804  1.5482  0.8280
 9456TIP3    H249860   6.472   3.319  14.348 -0.4849  0.6093  0.2846
 9457TIP3   OH249861   4.264   3.433   3.141 -0.6499 -0.3461  0.4664
 9457TIP3    H149862   4.286   3.435   3.048  0.7196 -0.7412  0.7664
 9457TIP3    H249863   4.348   3.439   3.186 -1.4451  1.8936  1.7117
 9458TIP3   OH249864   4.615   0.892   5.625 -0.1028 -0.1557 -0.4215
 9458TIP3    H149865   4.552   0.819   5.624  1.0353 -1.1690  0.0473
 9458TIP3    H249866   4.573   0.960   5.678 -1.2512 -0.4130 -0.9951
 9459TIP3   OH249867   3.953   6.325   2.163 -0.2151 -0.7166  0.0373
 9459TIP3    H149868   4.020   6.345   2.229 -2.3966 -0.7662  2.3808
 9459TIP3    H249869   3.899   6.257   2.204 -1.9258 -0.4045 -1.6223
 9460TIP3   OH249870   1.137   3.061  14.651  0.0863 -0.0894 -0.0763
 9460TIP3    H149871   1.206   3.035  14.712  0.2538 -2.0212 -1.0542
 9460TIP3    H249872   1.175   3.134  14.602  0.1577  1.1062  1.6910
 9461TIP3   OH249873   4.453   0.414   1.803  0.1041  0.5107  0.3117
 9461TIP3    H149874   4.478   0.497   1.844  1.4271  1.0400 -1.4822
 9461TIP3    H249875   4.359   0.407   1.818  0.3750  1.1997  2.4590
 9462TIP3   OH249876   1.102   3.119  11.497  0.4459 -0.0096  0.6247
 9462TIP3    H149877   1.040   3.182  11.460  1.6710 -0.5031 -2.4234
 9462TIP3    H249878   1.048   3.051  11.535 -0.8831  0.6729 -0.0138
 9463TIP3   OH249879   0.199   6.460   1.085 -0.6793  0.2460 -0.1259
 9463TIP3    H149880   0.145   6.430   1.012  0.2284 -0.8014 -0.3705
 9463TIP3    H249881   0.287   6.468   1.048 -0.2094 -0.3106  0.8553
 9464TIP3   OH249882   5.593   5.056  11.079  0.1180  0.3692  0.1221
 9464TIP3    H149883   5.576   5.141  11.119  1.5661  0.1248  1.3021
 9464TIP3    H249884   5.557   4.993  11.141 -2.4303  0.1276 -1.5125
 9465TIP3   OH249885   1.456   2.045   5.549 -0.4330 -0.2147  0.7675
 9465TIP3    H149886   1.494   2.034   5.636 -1.4962 -0.1346  1.2520
 9465TIP3    H249887   1.451   2.140   5.537  1.2383 -0.2049 -0.0792
 9466TIP3   OH249888   3.763   5.687   4.917 -0.5257  0.0889  0.2622
 9466TIP3    H149889   3.762   5.758   4.854 -1.2691 -0.3166 -0.1878
 9466TIP3    H249890   3.717   5.722   4.993  0.4725  0.6175  0.6309
 9467TIP3   OH249891   5.232   4.815   1.358 -0.4969 -0.6371  0.1735
 9467TIP3    H149892   5.261   4.892   1.407  0.2843 -0.2402 -0.8884
 9467TIP3    H249893   5.229   4.845   1.267  0.6352 -2.1027 -0.3591
 9468TIP3   OH249894   1.504   2.257  11.155  0.0303  0.4388  0.0454
 9468TIP3    H149895   1.523   2.197  11.083  1.9302  1.0627 -0.0089
 9468TIP3    H249896   1.473   2.201  11.226 -1.6935 -0.2043 -1.1741
 9469TIP3   OH249897   6.447   0.266  12.765  0.1962 -0.7080  0.3571
 9469TIP3    H149898   6.360   0.228  12.754  0.4620 -1.8936  2.0700
 9469TIP3    H249899   6.432   0.360  12.774 -0.8994 -0.8988  0.5129
 9470TIP3   OH249900   4.709   0.979  11.568  0.5904 -0.3073 -0.2020
 9470TIP3    H149901   4.694   1.003  11.660 -0.8126 -1.8186 -0.0029
 9470TIP3    H249902   4.779   1.037  11.539  0.5325  0.7158  1.6066
 9471TIP3   OH249903   2.779   4.109   1.351 -0.7979  0.1045 -0.5412
 9471TIP3    H149904   2.797   4.018   1.330 -0.6823 -0.1215  0.4877
 9471TIP3    H249905   2.859   4.140   1.392 -1.3983  0.1917  0.5903
 9472TIP3   OH249906   5.577   5.585  12.499 -0.1976  0.9014  0.0007
 9472TIP3    H149907   5.541   5.570  12.412 -0.4690  2.4521 -0.1795
 9472TIP3    H249908   5.666   5.618  12.483  0.9442 -1.8276  0.4167
 9473TIP3   OH249909   3.060   4.172  15.185  0.2346 -0.0346  0.1913
 9473TIP3    H149910   3.030   4.216  15.264  0.7178  1.2284 -0.3093
 9473TIP3    H249911   3.139   4.124  15.212  0.8020  0.9602  0.3373
 9474TIP3   OH249912   3.350   2.092  16.300  0.0011  0.0374  0.0269
 9474TIP3    H149913   3.433   2.045  16.308  0.7597  1.3462 -0.1835
 9474TIP3    H249914   3.367   2.178  16.337 -1.2797  0.3086  0.0132
 9475TIP3   OH249915   1.621   2.081   3.965  0.2013 -0.3584 -0.0388
 9475TIP3    H149916   1.527   2.096   3.968 -0.1367 -2.2242 -0.3870
 9475TIP3    H249917   1.630   1.989   3.939  2.1642  0.3310 -1.9689
 9476TIP3   OH249918   4.279   4.114   2.815  0.1174  0.2252  0.7788
 9476TIP3    H149919   4.336   4.178   2.857 -1.3564  0.7489  2.0401
 9476TIP3    H249920   4.191   4.151   2.824 -0.3891 -0.3194 -1.5577
 9477TIP3   OH249921   5.532   1.429  11.226 -0.0129 -0.2455  0.6267
 9477TIP3    H149922   5.572   1.473  11.151 -1.2997 -0.4468 -0.1999
 9477TIP3    H249923   5.591   1.356  11.245  1.1092  0.6815  0.7796
 9478TIP3   OH249924   4.367   6.518  16.010  0.3237 -0.1612  0.0364
 9478TIP3    H149925   4.447   6.570  16.024  0.7687 -1.0842  0.9801
 9478TIP3    H249926   4.296   6.581  16.021  0.8831  0.4394  0.3151
 9479TIP3   OH249927   4.586   4.493   6.148 -0.5386 -0.2734  0.4203
 9479TIP3    H149928   4.611   4.403   6.170 -0.9103 -0.4413  0.1625
 9479TIP3    H249929   4.625   4.509   6.062  1.2448  0.5192  1.3462
 9480TIP3   OH249930   1.855   4.316  15.774  0.1999 -0.3813  0.5654
 9480TIP3    H149931   1.796   4.268  15.717 -1.8247  1.6953  0.8468
 9480TIP3    H249932   1.798   4.364  15.834  2.2189 -0.0623  2.3038
 9481TIP3   OH249933   1.383   3.486   5.646 -0.9286 -0.2674  0.0380
 9481TIP3    H149934   1.449   3.555   5.638 -1.0210 -0.2641 -0.7262
 9481TIP3    H249935   1.434   3.406   5.653 -0.8275 -0.1619  0.5620
 9482TIP3   OH249936   0.304   2.364   1.259 -0.2638 -0.1165  0.2923
 9482TIP3    H149937   0.350   2.288   1.296 -0.9627 -0.0598  1.2957
 9482TIP3    H249938   0.365   2.399   1.194 -0.0705 -1.7298 -0.4126
 9483TIP3   OH249939   2.814   4.495   3.044  0.5513  0.0860  0.6474
 9483TIP3    H149940   2.740   4.478   2.986 -0.3314  0.7815  1.5467
 9483TIP3    H249941   2.796   4.581   3.080  1.4454 -0.0474  1.4154
 9484TIP3   OH249942   5.508   0.314  16.097 -0.0497  0.0778  0.1900
 9484TIP3    H149943   5.514   0.410  16.099 -1.3314  0.1749 -0.2629
 9484TIP3    H249944   5.554   0.289  16.016  2.0330  0.1515  1.3173
 9485TIP3   OH249945   5.764   1.888  13.892  0.1913  0.0104 -0.1688
 9485TIP3    H149946   5.708   1.841  13.831 -1.1966 -0.3941  1.3761
 9485TIP3    H249947   5.789   1.968  13.846  1.6896 -1.7042 -2.4139
 9486TIP3   OH249948   2.154   1.818   6.122 -0.4923  0.2063  1.0748
 9486TIP3    H149949   2.127   1.726   6.122 -0.3977  0.1733  0.3921
 9486TIP3    H249950   2.210   1.826   6.199  0.1766 -0.5154  0.6794
 9487TIP3   OH249951   1.203   1.352  12.161  0.7225 -0.9151  0.2240
 9487TIP3    H149952   1.154   1.271  12.151 -2.9883  1.1020  1.2089
 9487TIP3    H249953   1.186   1.401  12.080 -1.0817  0.8775  1.6371
 9488TIP3   OH249954   1.078   5.016   3.341  0.2001 -0.3809 -0.0939
 9488TIP3    H149955   0.999   4.961   3.348  0.6991 -1.0020  0.8308
 9488TIP3    H249956   1.066   5.084   3.408 -0.2981  0.4913 -1.0646
 9489TIP3   OH249957   4.051   4.450   4.120 -0.1147 -0.2414 -0.0524
 9489TIP3    H149958   4.109   4.467   4.046 -2.0557  0.8173 -1.3952
 9489TIP3    H249959   4.058   4.529   4.175 -0.3145 -0.0927 -0.2403
 9490TIP3   OH249960   3.658   4.402  17.291 -0.6786 -0.0214  0.2835
 9490TIP3    H149961   3.673   4.359  17.207 -0.2617  0.1336  0.2772
 9490TIP3    H249962   3.700   4.488  17.282 -1.0969  0.2031  0.4612
 9491TIP3   OH249963   0.061   4.142  12.759 -0.6265  0.2358  0.4078
 9491TIP3    H149964   0.126   4.127  12.828  1.2575 -1.0694 -1.5917
 9491TIP3    H249965   0.001   4.068  12.767 -1.3916  0.9660  1.6774
 9492TIP3   OH249966   1.761   0.071   4.140 -0.0169 -0.1772 -0.0649
 9492TIP3    H149967   1.714   0.097   4.060  0.5186 -0.1596 -0.3726
 9492TIP3    H249968   1.766  -0.024   4.135 -1.3821 -0.3092  0.7315
 9493TIP3   OH249969   5.523   3.838   2.951 -0.6248  0.2363 -0.1560
 9493TIP3    H149970   5.526   3.766   2.888  1.1290 -0.2288  0.4320
 9493TIP3    H249971   5.469   3.905   2.908  0.6248 -0.0277 -2.1995
 9494TIP3   OH249972   0.149   5.856  14.986  0.2696 -0.5382 -0.4108
 9494TIP3    H149973   0.125   5.870  14.895  2.4696 -3.9261 -1.6119
 9494TIP3    H249974   0.079   5.802  15.022  0.5127 -1.0741 -0.7399
 9495TIP3   OH249975   3.911   3.162   5.610  0.2443 -0.2853  0.3199
 9495TIP3    H149976   3.955   3.109   5.677 -0.0152  0.7809  1.3667
 9495TIP3    H249977   3.818   3.156   5.632  0.2928  1.4290  1.1092
 9496TIP3   OH249978   4.358   2.966  16.291 -0.0871 -0.1880 -0.4655
 9496TIP3    H149979   4.376   3.051  16.331  1.5803 -2.1698  3.2613
 9496TIP3    H249980   4.266   2.949  16.311  0.0220  0.0173  0.2134
 9497TIP3   OH249981   4.408   5.515   2.048  0.3979 -0.1984 -0.4604
 9497TIP3    H149982   4.420   5.421   2.061  1.1118 -0.0213  0.1858
 9497TIP3    H249983   4.320   5.533   2.082 -0.0015 -0.7403 -1.1861
 9498TIP3   OH249984   5.509   0.160  12.594  0.3700  0.9529  0.1303
 9498TIP3    H149985   5.435   0.100  12.605 -0.0583  1.5044  0.2697
 9498TIP3    H249986   5.511   0.178  12.500  1.4311 -0.4533 -0.1340
 9499TIP3   OH249987   1.686   3.252   4.349 -0.3814  0.0650  0.4283
 9499TIP3    H149988   1.666   3.345   4.347  0.1173  0.1750  0.2993
 9499TIP3    H249989   1.639   3.219   4.425 -0.5631  0.4232  0.4736
 9500TIP3   OH249990   2.216   2.987  11.483 -0.0205 -0.0623 -0.0231
 9500TIP3    H149991   2.139   2.933  11.501  0.0895 -0.9767 -2.1484
 9500TIP3    H249992   2.265   2.938  11.417  1.3245  1.4952 -0.2143
 9501TIP3   OH249993   3.947   1.791   2.924  0.0326 -0.3164 -0.0314
 9501TIP3    H149994   3.921   1.754   2.840 -1.0489  0.4886 -0.0716
 9501TIP3    H249995   3.875   1.768   2.984  0.1244  0.2981  0.3228
 9502TIP3   OH249996   3.753   3.506   0.970  0.4002 -0.9859  0.2791
 9502TIP3    H149997   3.772   3.468   0.884  0.4585  0.6914 -0.4538
 9502TIP3    H249998   3.665   3.543   0.960  0.1910 -1.2464  1.1132
 9503TIP3   OH249999   1.570   3.449   0.120 -0.4517 -0.1145  0.7172
 9503TIP3    H150000   1.525   3.524   0.159  0.5577 -0.0090  1.6996
 9503TIP3    H250001   1.606   3.482   0.038  0.1806  0.5448  1.2562
 9504TIP3   OH250002   3.749   2.043  13.637 -0.4260  0.1726 -0.4300
 9504TIP3    H150003   3.771   2.136  13.639  1.1630 -0.2025  1.0210
 9504TIP3    H250004   3.790   2.010  13.557 -0.0054  0.4976 -0.3514
 9505TIP3   OH250005   4.574   6.142  11.064 -0.5198 -0.0413 -0.2625
 9505TIP3    H150006   4.565   6.051  11.093 -1.3253 -0.0763 -0.6157
 9505TIP3    H250007   4.582   6.137  10.969  0.4150  0.1974 -0.2050
 9506TIP3   OH250008   4.004   6.268  14.526  0.0881  0.3744  0.0936
 9506TIP3    H150009   3.933   6.233  14.580  0.6235  3.0121  2.6176
 9506TIP3    H250010   3.971   6.353  14.495  0.2234 -0.5943 -2.9115
 9507TIP3   OH250011   6.510   3.372  14.847 -0.3920 -0.3888  0.6152
 9507TIP3    H150012   6.533   3.421  14.768 -0.1276  0.9555  1.5080
 9507TIP3    H250013   6.580   3.308  14.857 -0.5580 -0.7301 -0.3754
 9508TIP3   OH250014   0.176   4.385   2.963  0.5771  0.5597  0.1555
 9508TIP3    H150015   0.135   4.447   3.023 -0.1077  0.8986 -0.6565
 9508TIP3    H250016   0.184   4.433   2.880  1.6616  0.1527  0.0051
 9509TIP3   OH250017   1.212   1.317  15.408 -0.2770 -0.5322  0.4517
 9509TIP3    H150018   1.202   1.223  15.424  1.4192 -0.3009  2.9937
 9509TIP3    H250019   1.293   1.341  15.453 -1.2907  2.3705  0.8102
 9510TIP3   OH250020   0.214   4.935  11.190 -0.0138 -0.1238  0.1376
 9510TIP3    H150021   0.261   5.017  11.200 -0.5165  0.1344  0.4248
 9510TIP3    H250022   0.263   4.887  11.124 -0.1154  0.6984 -0.5415
 9511TIP3   OH250023   4.092   2.502   1.139  0.3760  0.1961  0.0853
 9511TIP3    H150024   4.164   2.439   1.147 -2.1957 -2.6969  1.4072
 9511TIP3    H250025   4.069   2.501   1.047  2.5103  1.8231 -0.5330
 9512TIP3   OH250026   1.019   1.553  14.541 -0.0487  0.0950  0.7802
 9512TIP3    H150027   1.023   1.467  14.583  0.2545 -0.1190  0.3110
 9512TIP3    H250028   1.110   1.580  14.532  0.0073 -0.7302 -1.5303
 9513TIP3   OH250029   0.751   0.367   1.953 -0.0584 -0.5135 -0.4121
 9513TIP3    H150030   0.656   0.360   1.962 -0.5194  3.1082 -1.5654
 9513TIP3    H250031   0.764   0.384   1.859  1.7103 -0.8238 -0.2231
 9514TIP3   OH250032   2.868   3.893   3.632 -0.4424  0.2329 -0.0451
 9514TIP3    H150033   2.921   3.830   3.683 -0.4860  0.1160 -0.1460
 9514TIP3    H250034   2.786   3.847   3.615 -0.6441  0.4750  0.2530
 9515TIP3   OH250035   0.271   4.478  11.551 -0.4442 -0.4368 -0.8603
 9515TIP3    H150036   0.291   4.553  11.607 -1.0076 -1.6655  1.0390
 9515TIP3    H250037   0.310   4.499  11.467 -0.5779  1.9742 -0.3408
 9516TIP3   OH250038   0.746   0.280  16.645  0.0083  0.2052 -1.0338
 9516TIP3    H150039   0.759   0.198  16.693  1.9221  1.1678  0.1403
 9516TIP3    H250040   0.698   0.336  16.706  2.3464  1.3885 -0.2152
 9517TIP3   OH250041   1.185   4.488   1.629  0.0536 -0.0250  0.2171
 9517TIP3    H150042   1.218   4.479   1.539 -2.2007  0.2705 -0.6662
 9517TIP3    H250043   1.246   4.550   1.671  0.4140  0.7948 -1.4702
 9518TIP3   OH250044   1.800   5.434   1.437 -0.1497 -0.0412 -0.4146
 9518TIP3    H150045   1.755   5.350   1.448  0.1138 -0.0430  0.7190
 9518TIP3    H250046   1.775   5.485   1.514 -1.2379  1.3638 -1.6591
 9519TIP3   OH250047   6.104   3.247   4.953  0.4037  0.4082 -0.5527
 9519TIP3    H150048   6.158   3.323   4.932  0.7574  1.1521  2.7923
 9519TIP3    H250049   6.157   3.172   4.929  1.1615  1.1913 -1.3381
 9520TIP3   OH250050   5.311   4.550   1.549  0.4416  0.0951 -0.2933
 9520TIP3    H150051   5.356   4.485   1.603 -0.1184  1.1493  1.4662
 9520TIP3    H250052   5.375   4.573   1.482  0.8653 -1.8069 -0.5703
 9521TIP3   OH250053   6.591   1.880  16.069 -0.1164  0.8726 -0.0888
 9521TIP3    H150054   6.505   1.890  16.027 -0.4113 -0.8476  0.0932
 9521TIP3    H250055   6.652   1.925  16.010 -0.9864  1.1810 -0.7592
 9522TIP3   OH250056   2.140   2.834   6.507  0.1113  0.1196  0.4809
 9522TIP3    H150057   2.060   2.866   6.549 -1.1780 -1.0141 -1.0774
 9522TIP3    H250058   2.117   2.748   6.472  1.7078  0.2261 -0.9099
 9523TIP3   OH250059   6.267   6.320  12.485  0.2757 -0.2123 -0.1042
 9523TIP3    H150060   6.309   6.338  12.401  0.1566 -0.1553 -0.1513
 9523TIP3    H250061   6.338   6.326  12.549  0.2975  0.0929 -0.1570
 9524TIP3   OH250062   5.300   2.091   6.764  0.4487 -0.6865  0.1801
 9524TIP3    H150063   5.346   2.156   6.710  0.7874  0.4826  1.8441
 9524TIP3    H250064   5.220   2.135   6.793 -1.4287 -2.4660 -2.1025
 9525TIP3   OH250065   4.068   1.735  14.248  0.3468 -0.2156 -0.5071
 9525TIP3    H150066   4.088   1.762  14.159  4.8517 -0.1442  0.3688
 9525TIP3    H250067   4.089   1.642  14.250  1.1327 -0.0335  0.6424
 9526TIP3   OH250068   3.406   5.604  14.879 -0.3501  0.3217  0.4178
 9526TIP3    H150069   3.355   5.549  14.819 -0.4560  0.0664  0.7375
 9526TIP3    H250070   3.357   5.601  14.961  1.0876 -1.3362  1.2374
 9527TIP3   OH250071   1.254   1.642  15.613 -0.3683 -0.8896  1.0801
 9527TIP3    H150072   1.225   1.731  15.588 -0.5567 -0.9012  1.2582
 9527TIP3    H250073   1.305   1.655  15.693 -0.3809 -0.9406  1.0960
 9528TIP3   OH250074   4.379   0.989   0.386  0.1211  0.2190 -0.1213
 9528TIP3    H150075   4.451   0.991   0.323 -0.6492 -0.9683 -1.0494
 9528TIP3    H250076   4.419   0.955   0.466  0.7257  0.1151 -0.4663
 9529TIP3   OH250077   2.515   2.896   5.756  0.0800 -0.3039 -0.4644
 9529TIP3    H150078   2.476   2.811   5.734  1.5120 -0.9479 -0.6372
 9529TIP3    H250079   2.441   2.954   5.771 -0.9540 -2.0113  1.3261
 9530TIP3   OH250080   0.680   2.221   0.887 -0.5702  0.0212  0.2094
 9530TIP3    H150081   0.766   2.250   0.857 -1.3693 -0.0139 -2.2613
 9530TIP3    H250082   0.618   2.278   0.842 -2.0328 -3.1614 -2.0955
 9531TIP3   OH250083   3.839   5.142  11.441 -0.8353 -0.4866  0.3980
 9531TIP3    H150084   3.846   5.214  11.379  1.3944  1.5034  2.8237
 9531TIP3    H250085   3.884   5.173  11.519 -2.1441 -3.5194  2.4680
 9532TIP3   OH250086   1.893   0.204   5.858 -0.0477 -0.1204 -0.5712
 9532TIP3    H150087   1.818   0.180   5.912  0.5905 -2.6246 -0.7289
 9532TIP3    H250088   1.961   0.228   5.921 -0.7360  1.4486 -0.4101
 9533TIP3   OH250089   3.294   4.561   2.764 -0.4559 -0.5631 -0.2443
 9533TIP3    H150090   3.382   4.568   2.802 -0.3913 -0.6783 -0.3687
 9533TIP3    H250091   3.234   4.574   2.837 -0.3462 -4.0324  0.5388
 9534TIP3   OH250092   6.178   2.218   0.519 -0.2384  0.2425 -0.3148
 9534TIP3    H150093   6.200   2.301   0.561  0.1158  0.5371 -1.0701
 9534TIP3    H250094   6.245   2.157   0.549 -0.0030  0.4421 -0.4394
 9535TIP3   OH250095   6.197   6.071   4.614 -0.5373 -0.0343 -0.1092
 9535TIP3    H150096   6.156   6.157   4.622 -0.6160 -0.0921  0.1012
 9535TIP3    H250097   6.266   6.071   4.680  0.2727  0.3287 -0.9393
 9536TIP3   OH250098   2.369   5.037   2.991 -0.5071  0.2655  0.5625
 9536TIP3    H150099   2.424   5.095   3.043 -1.0026  0.5510  0.7721
 9536TIP3    H250100   2.430   4.989   2.935 -0.2197  2.2119 -0.8434
 9537TIP3   OH250101   3.269   3.473   3.302  0.0456  0.1127  0.2150
 9537TIP3    H150102   3.192   3.471   3.359  0.2649  0.0794  0.5087
 9537TIP3    H250103   3.297   3.382   3.296 -0.6228 -0.0348 -0.8221
 9538TIP3   OH250104   0.035   3.557   5.110  0.1562 -0.5212 -0.0547
 9538TIP3    H150105   0.038   3.621   5.039 -2.1696  1.2990  1.4271
 9538TIP3    H250106  -0.054   3.524   5.110  0.2370 -0.8212  1.7216
 9539TIP3   OH250107   0.388   2.030  10.601  0.2759  0.7725 -0.1851
 9539TIP3    H150108   0.428   2.054  10.684 -0.9267  0.2940  0.5383
 9539TIP3    H250109   0.349   1.944  10.616  1.5695 -0.1324 -1.7592
 9540TIP3   OH250110   5.022   4.562   1.581 -0.1636 -0.7408  0.9545
 9540TIP3    H150111   5.117   4.559   1.574 -0.0289  2.5753  0.6001
 9540TIP3    H250112   4.990   4.552   1.492 -0.2302 -2.9389  1.1968
 9541TIP3   OH250113   5.779   0.194  12.563 -0.4588  0.0761 -0.5119
 9541TIP3    H150114   5.840   0.121  12.567 -0.0780  0.3039 -1.8948
 9541TIP3    H250115   5.694   0.157  12.587  0.0563 -0.4310  0.5400
 9542TIP3   OH250116   6.107   5.386   1.042  0.1119  0.0799 -0.1024
 9542TIP3    H150117   6.073   5.350   1.123  1.7919 -1.6305 -0.1026
 9542TIP3    H250118   6.170   5.453   1.070  0.1092  0.0492 -0.0226
 9543TIP3   OH250119   1.012   5.059  13.176 -0.1334  0.0811  0.8868
 9543TIP3    H150120   1.042   5.147  13.154  0.2219 -0.2183  0.1850
 9543TIP3    H250121   0.933   5.074  13.228  0.1006  0.8197  1.0388
 9544TIP3   OH250122   5.847   2.954   2.503  0.3065  0.1068 -0.0482
 9544TIP3    H150123   5.794   2.885   2.462 -0.4408  0.6833 -0.0656
 9544TIP3    H250124   5.904   2.985   2.433  0.6638 -0.5116 -0.0334
 9545TIP3   OH250125   0.798   3.709   0.477 -0.7205  0.2955  0.1990
 9545TIP3    H150126   0.713   3.747   0.496 -1.0474  0.5952 -1.7987
 9545TIP3    H250127   0.780   3.638   0.415  0.3869 -0.2183  0.4431
 9546TIP3   OH250128   2.159   6.539  11.679 -0.1885 -0.0825 -0.3359
 9546TIP3    H150129   2.251   6.567  11.676 -0.1335 -0.0746  1.2191
 9546TIP3    H250130   2.122   6.585  11.754 -0.7389 -2.2425  0.7566
 9547TIP3   OH250131   0.364   4.511  11.951 -0.0649  0.5684  0.6789
 9547TIP3    H150132   0.292   4.448  11.944  0.0128  0.6088 -0.5556
 9547TIP3    H250133   0.322   4.596  11.954 -0.0412  0.6886 -1.4862
 9548TIP3   OH250134   3.590   2.591  16.852  0.4015  0.5633  0.0200
 9548TIP3    H150135   3.630   2.647  16.786 -2.3126  0.7475 -1.5200
 9548TIP3    H250136   3.586   2.645  16.931 -0.7171  1.9816 -0.9968
 9549TIP3   OH250137   3.627   0.525  15.082  0.1182 -0.3581  0.3099
 9549TIP3    H150138   3.559   0.507  15.017  0.2088  1.3805 -0.3021
 9549TIP3    H250139   3.693   0.458  15.068 -0.2577 -0.4874 -0.8397
 9550TIP3   OH250140   6.684   3.311   0.464 -0.1596 -0.0423 -0.5011
 9550TIP3    H150141   6.589   3.302   0.469 -0.2137  0.6631 -0.2092
 9550TIP3    H250142   6.704   3.295   0.372 -0.6975  1.0338 -0.8082
 9551TIP3   OH250143   2.898   5.129   0.261 -0.8425 -0.0001  0.2247
 9551TIP3    H150144   2.822   5.173   0.298 -0.8378 -0.1180  0.3764
 9551TIP3    H250145   2.886   5.037   0.284 -0.3874  0.0602  0.7061
 9552TIP3   OH250146   6.697   4.317  16.482  0.0144 -0.0035 -0.6250
 9552TIP3    H150147   6.696   4.236  16.430  1.3139  0.1837 -0.9508
 9552TIP3    H250148   6.756   4.375  16.435 -1.4427  1.4144 -0.7554
 9553TIP3   OH250149   3.145   2.736  14.287 -0.9231 -0.6450  0.3091
 9553TIP3    H150150   3.212   2.669  14.284  0.6895  0.9988 -2.0603
 9553TIP3    H250151   3.072   2.701  14.236 -0.3138 -0.8099 -0.4355
 9554TIP3   OH250152   0.017   3.315   4.111 -0.0498 -0.2715  0.2702
 9554TIP3    H150153   0.103   3.291   4.147  1.0587  0.8469 -1.5706
 9554TIP3    H250154   0.009   3.262   4.032 -0.7510  0.1684  0.0507
 9555TIP3   OH250155   1.087   0.110   1.712 -0.0287  0.0530 -0.2269
 9555TIP3    H150156   1.149   0.139   1.778  0.6222  1.0876 -1.2793
 9555TIP3    H250157   1.056   0.191   1.670 -1.0028 -0.5391 -0.6760
 9556TIP3   OH250158   1.710   0.903   0.208 -0.1107  0.1231  0.2828
 9556TIP3    H150159   1.791   0.856   0.190 -0.8147 -0.5215 -1.3145
 9556TIP3    H250160   1.728   0.994   0.181 -0.3844 -0.3400 -1.5537
 9557TIP3   OH250161   5.346   1.030   5.440 -0.1149 -0.1507 -0.3241
 9557TIP3    H150162   5.333   0.941   5.472 -2.4147  0.3087  0.0829
 9557TIP3    H250163   5.382   1.078   5.514 -1.0009 -0.2162  0.1558
 9558TIP3   OH250164   0.948   4.679  15.056 -0.7794  0.3276  0.4411
 9558TIP3    H150165   1.025   4.645  15.102 -0.3888  0.0627 -0.3825
 9558TIP3    H250166   0.974   4.680  14.964 -0.8428  2.7417  0.4184
 9559TIP3   OH250167   3.368   6.438  14.972  0.2156  0.2337  0.6211
 9559TIP3    H150168   3.337   6.502  15.036  0.2715 -0.0275  0.9166
 9559TIP3    H250169   3.348   6.353  15.013  1.1337  0.0622  0.7271
 9560TIP3   OH250170   2.192   1.509   5.006 -0.2857 -0.0919 -0.0503
 9560TIP3    H150171   2.149   1.594   4.999 -2.1135 -1.0132 -0.5252
 9560TIP3    H250172   2.209   1.483   4.915 -0.2641 -0.4634  0.0573
 9561TIP3   OH250173   6.502   0.165   5.522  0.4307  0.7536 -0.7153
 9561TIP3    H150174   6.483   0.244   5.471  2.3067  1.5790 -0.1880
 9561TIP3    H250175   6.559   0.113   5.465  2.3104  1.5564  0.3790
 9562TIP3   OH250176   5.763   0.182   0.213  0.4081 -0.2665  0.1922
 9562TIP3    H150177   5.858   0.196   0.215  0.2518  0.7207  0.9340
 9562TIP3    H250178   5.753   0.091   0.185  1.5514 -0.1240 -0.7208
 9563TIP3   OH250179   5.190   0.820   3.788 -0.1860  0.6007 -0.4560
 9563TIP3    H150180   5.243   0.870   3.726  0.7701 -1.0092 -0.9683
 9563TIP3    H250181   5.202   0.866   3.871 -0.2801  1.8987 -1.1461
 9564TIP3   OH250182   0.185   0.534  11.875 -0.3740  0.4102 -0.2441
 9564TIP3    H150183   0.256   0.587  11.837  0.1442  1.4601  2.0724
 9564TIP3    H250184   0.106   0.585  11.858  0.0096  1.5075  1.1551
 9565TIP3   OH250185   5.667   1.220  15.536  0.3083  0.1030 -0.1551
 9565TIP3    H150186   5.660   1.125  15.526 -0.9944  0.4344 -2.8432
 9565TIP3    H250187   5.598   1.242  15.598  0.3517 -0.6484  0.1698
 9566TIP3   OH250188   5.940   6.014   0.810  0.5030 -0.5155  0.0777
 9566TIP3    H150189   5.850   6.026   0.781  1.4732  0.8670 -2.6059
 9566TIP3    H250190   5.950   5.919   0.820 -1.2656 -0.6683  0.5475
 9567TIP3   OH250191   6.551   0.474  11.911 -0.3679  0.0753 -0.1587
 9567TIP3    H150192   6.585   0.507  11.828  2.4174 -1.9983  0.0477
 9567TIP3    H250193   6.552   0.379  11.901 -2.1249 -0.1522  1.4766
 9568TIP3   OH250194   5.719   3.413   1.818  0.3615  0.0492 -0.1368
 9568TIP3    H150195   5.784   3.349   1.791  0.3469 -0.3441  0.7389
 9568TIP3    H250196   5.752   3.448   1.901  0.5594  1.4581 -0.7831
 9569TIP3   OH250197   5.502   0.987   3.818  0.6606 -0.2675  0.3505
 9569TIP3    H150198   5.488   0.896   3.844 -2.7661  0.0252 -0.2530
 9569TIP3    H250199   5.492   0.987   3.723 -2.8446  1.2497  0.6523
 9570TIP3   OH250200   3.264   4.282   6.220 -0.0138 -0.3562 -0.0760
 9570TIP3    H150201   3.304   4.284   6.133  1.1112 -1.3372  0.3994
 9570TIP3    H250202   3.275   4.371   6.254  1.8121 -0.6092  0.0509
 9571TIP3   OH250203   3.293   3.640   0.412 -0.4369  0.5453 -0.3909
 9571TIP3    H150204   3.263   3.640   0.321 -0.5798  1.1065 -0.3440
 9571TIP3    H250205   3.214   3.655   0.463 -0.4521 -0.3681 -0.1394
 9572TIP3   OH250206   0.926   0.277   6.008  0.1711  0.1516  0.5006
 9572TIP3    H150207   0.994   0.344   6.010  1.0011 -0.4680 -3.4676
 9572TIP3    H250208   0.844   0.326   6.007  0.7747  1.2499 -3.0255
 9573TIP3   OH250209   2.415   0.102  11.949  0.4002 -0.7714  0.2911
 9573TIP3    H150210   2.400   0.136  11.861 -0.2242 -0.5197  0.4955
 9573TIP3    H250211   2.482   0.159  11.986 -0.5293  0.1429  0.5756
 9574TIP3   OH250212   2.298   6.326   3.975 -0.0429 -0.2564 -0.3619
 9574TIP3    H150213   2.230   6.393   3.976  0.9700  0.7973 -0.0593
 9574TIP3    H250214   2.354   6.348   3.901  0.6661 -0.3819  0.1237
 9575TIP3   OH250215   5.061   5.070   1.632  0.2111 -0.1256  0.3003
 9575TIP3    H150216   5.109   4.988   1.635 -1.8557 -1.3912 -0.2062
 9575TIP3    H250217   5.059   5.093   1.539  0.0580  0.0517  0.3468
 9576TIP3   OH250218   1.364   5.402  11.577 -0.2880 -0.0402 -0.0537
 9576TIP3    H150219   1.300   5.401  11.505 -0.9986 -0.7377  0.5842
 9576TIP3    H250220   1.416   5.481  11.560 -1.3930  0.6172 -0.5126
 9577TIP3   OH250221   4.995   4.648   5.688 -0.5291  0.5262 -0.4705
 9577TIP3    H150222   4.950   4.569   5.659 -0.9946  1.2503 -1.7466
 9577TIP3    H250223   5.065   4.616   5.745 -0.9972 -0.7718 -0.6107
 9578TIP3   OH250224   6.663   3.905   4.361  0.9681 -0.3985 -0.1258
 9578TIP3    H150225   6.730   3.868   4.303 -0.7197 -1.7775 -1.2195
 9578TIP3    H250226   6.628   3.829   4.408 -2.9304 -0.3520 -2.7957
 9579TIP3   OH250227   6.598   1.766   6.096 -0.3281 -0.0032  0.1497
 9579TIP3    H150228   6.631   1.676   6.104 -1.1131 -0.2960  0.1726
 9579TIP3    H250229   6.626   1.809   6.176  2.2500  0.5063 -0.9635
 9580TIP3   OH250230   6.263   5.877   0.860  0.5553  0.5354 -0.2201
 9580TIP3    H150231   6.180   5.924   0.861  0.1606 -0.0619  4.2274
 9580TIP3    H250232   6.329   5.944   0.842 -0.6601  1.3938 -1.5962
 9581TIP3   OH250233   0.687   5.331  13.373 -0.7526  0.1959  0.2438
 9581TIP3    H150234   0.663   5.251  13.326  0.0026  0.5352 -0.7436
 9581TIP3    H250235   0.707   5.394  13.303  0.7419  0.6029  1.0357
 9582TIP3   OH250236   5.402   1.112  16.480  0.2021  0.5621 -0.0338
 9582TIP3    H150237   5.398   1.150  16.567 -1.0921  1.4342 -0.4527
 9582TIP3    H250238   5.476   1.156  16.438  0.5110  0.5118  0.4689
 9583TIP3   OH250239   6.728   3.476   3.525 -0.0079  0.1621 -0.0921
 9583TIP3    H150240   6.819   3.500   3.541  0.4246 -0.5008 -1.4721
 9583TIP3    H250241   6.730   3.427   3.442 -1.3966 -1.1513  0.6157
 9584TIP3   OH250242   3.142   5.798  12.098 -0.4326  0.1526  0.0892
 9584TIP3    H150243   3.144   5.853  12.019  1.0836 -1.3580 -0.9453
 9584TIP3    H250244   3.233   5.790  12.124 -0.5591 -2.4818 -0.2057
 9585TIP3   OH250245   4.175   2.946  12.192  0.0531 -0.8335 -0.2795
 9585TIP3    H150246   4.136   2.999  12.262 -0.1029 -0.2782 -0.7758
 9585TIP3    H250247   4.195   2.862  12.233  0.9789 -0.1407  0.7036
 9586TIP3   OH250248   0.017   0.179  15.158  0.0434 -0.3581  0.2887
 9586TIP3    H150249   0.023   0.237  15.234 -1.4647 -1.1313  1.0277
 9586TIP3    H250250  -0.064   0.129  15.172  0.0118 -0.8741 -1.5736
 9587TIP3   OH250251   1.409   2.216  12.942 -0.2678 -0.0545 -0.0727
 9587TIP3    H150252   1.465   2.245  12.869 -1.8988 -0.8863 -1.7045
 9587TIP3    H250253   1.383   2.297  12.986 -0.2536  0.5509 -1.1534
 9588TIP3   OH250254   0.644   0.666  14.937  0.4642  0.4592  0.0115
 9588TIP3    H150255   0.657   0.749  14.890 -0.1898 -0.7755 -2.4557
 9588TIP3    H250256   0.711   0.665  15.004 -0.0511  3.3809  0.6257
 9589TIP3   OH250257   5.388   1.845  15.723 -0.5495  0.7500  0.0338
 9589TIP3    H150258   5.379   1.861  15.817  3.0689  1.6373  0.2845
 9589TIP3    H250259   5.366   1.753  15.712 -1.9062  0.8641  1.5991
 9590TIP3   OH250260   5.030   1.739  12.748  0.4458  0.3839  0.2838
 9590TIP3    H150261   5.024   1.724  12.654 -4.1129 -1.2140  0.6919
 9590TIP3    H250262   5.052   1.653  12.785 -0.6088  0.3326  0.8328
 9591TIP3   OH250263   2.820   3.333   5.978  0.3410  0.1695 -0.2625
 9591TIP3    H150264   2.832   3.267   5.910 -0.0610  0.9410 -1.1091
 9591TIP3    H250265   2.726   3.352   5.976 -0.1414 -1.8402  2.4667
 9592TIP3   OH250266   4.135   6.630   1.063 -0.1923  0.1033  0.0076
 9592TIP3    H150267   4.161   6.608   0.974  1.7205  0.3859  0.4797
 9592TIP3    H250268   4.211   6.610   1.117 -1.1285  0.4608  1.5113
 9593TIP3   OH250269   0.355   6.002   2.562  0.1872 -0.2475  0.6282
 9593TIP3    H150270   0.402   6.085   2.554 -0.5108  0.2311  1.4527
 9593TIP3    H250271   0.306   5.996   2.480  1.4625 -0.6226 -0.1225
 9594TIP3   OH250272   3.759   0.242   4.296  0.8263  0.4412  0.3980
 9594TIP3    H150273   3.701   0.317   4.284  0.5514  0.1105 -0.3387
 9594TIP3    H250274   3.845   0.280   4.316  0.4071  0.9348  1.3159
 9595TIP3   OH250275   6.339   4.248   4.476  0.2017  0.0363  0.0510
 9595TIP3    H150276   6.250   4.279   4.492  0.3910  1.1226 -0.9658
 9595TIP3    H250277   6.395   4.316   4.515  0.5964 -0.4380  0.3181
 9596TIP3   OH250278   2.923   3.716  14.026 -0.0723 -0.3996 -0.1651
 9596TIP3    H150279   2.948   3.692  13.937 -0.4427 -1.6730  0.0717
 9596TIP3    H250280   3.005   3.740  14.069  0.5765 -3.0734  0.1597
 9597TIP3   OH250281   4.134   3.427  12.373 -0.0766 -0.0163  0.1963
 9597TIP3    H150282   4.057   3.481  12.359 -1.4345 -2.0995 -0.6969
 9597TIP3    H250283   4.207   3.479  12.340 -1.6213  0.4210 -2.7041
 9598TIP3   OH250284   5.852   5.674  13.388  0.0687 -0.4125  0.0687
 9598TIP3    H150285   5.915   5.743  13.368  0.9158 -0.1872  3.1870
 9598TIP3    H250286   5.777   5.692  13.331 -0.2165  3.7939  1.6011
 9599TIP3   OH250287   4.318   1.842   3.300  0.1240  0.2132 -0.3759
 9599TIP3    H150288   4.403   1.886   3.301 -0.3614  1.1811 -0.5781
 9599TIP3    H250289   4.259   1.904   3.343 -0.9967  0.6776 -2.4986
 9600TIP3   OH250290   0.025   1.109   3.370 -0.1639 -0.5320  0.3738
 9600TIP3    H150291   0.072   1.026   3.373  1.6542  0.4270 -0.5775
 9600TIP3    H250292   0.093   1.175   3.382 -1.5035  0.8402  0.5227
 9601TIP3   OH250293   2.317   0.361   3.179 -0.0348 -0.3267 -0.1294
 9601TIP3    H150294   2.233   0.338   3.217  0.3178 -0.5956  0.4891
 9601TIP3    H250295   2.359   0.417   3.244  0.6187 -0.8813 -0.0692
 9602TIP3   OH250296   3.888   0.164  16.575 -0.2560 -0.1200  0.1243
 9602TIP3    H150297   3.916   0.106  16.646  1.6681 -0.1778 -0.6522
 9602TIP3    H250298   3.970   0.194  16.535 -1.2923  0.9297 -1.2455
 9603TIP3   OH250299   5.819   1.625  14.122  0.0061  0.3778  0.2964
 9603TIP3    H150300   5.884   1.586  14.063 -1.2739 -0.1416 -0.8042
 9603TIP3    H250301   5.857   1.616  14.209  1.9339  1.1440 -0.4401
 9604TIP3   OH250302   1.575   5.777  17.129 -0.0282  0.1131 -0.3924
 9604TIP3    H150303   1.662   5.746  17.153 -0.8947 -0.4687  2.1053
 9604TIP3    H250304   1.582   5.872  17.129  1.0440  0.0505 -1.9629
 9605TIP3   OH250305   5.108   3.827   0.431  0.0930 -0.2973 -0.3642
 9605TIP3    H150306   5.121   3.762   0.499 -0.2169  0.6922  0.6454
 9605TIP3    H250307   5.058   3.897   0.473 -1.4294 -0.3629 -1.9992
 9606TIP3   OH250308   1.874   4.174   2.317 -0.7944 -0.2004  0.1026
 9606TIP3    H150309   1.960   4.133   2.311 -1.0255 -0.4211 -1.9697
 9606TIP3    H250310   1.875   4.220   2.401  1.1090 -0.7212  0.3737
 9607TIP3   OH250311   3.818   2.517   4.887  0.2840 -0.1094 -0.2335
 9607TIP3    H150312   3.878   2.591   4.877 -0.0112  0.3605  1.3762
 9607TIP3    H250313   3.733   2.556   4.905  0.2048 -0.8336  1.0577
 9608TIP3   OH250314   5.754   6.317   1.678 -0.2731  0.1853 -0.2420
 9608TIP3    H150315   5.738   6.398   1.629  1.3078  0.4522 -0.3407
 9608TIP3    H250316   5.784   6.255   1.612 -0.3704 -0.1445  0.0220
 9609TIP3   OH250317   3.483   2.318   2.556 -0.4614 -0.4438  0.0240
 9609TIP3    H150318   3.471   2.229   2.587 -0.2714 -1.0681 -1.6673
 9609TIP3    H250319   3.406   2.366   2.588 -2.5150 -2.0915 -2.2364
 9610TIP3   OH250320   2.948   4.778  13.095 -0.2768  0.4286 -0.0346
 9610TIP3    H150321   3.024   4.832  13.116  0.3109 -0.8204  1.0606
 9610TIP3    H250322   2.907   4.759  13.179 -1.8763  1.1713 -0.6193
 9611TIP3   OH250323   2.515   4.011   0.961  0.0064  0.4204 -0.2478
 9611TIP3    H150324   2.496   3.918   0.975 -1.1190  0.7544  0.5459
 9611TIP3    H250325   2.565   4.013   0.880  0.2413 -0.9049 -0.1479
 9612TIP3   OH250326   6.710   5.575   3.647  0.6564 -0.2078  0.5819
 9612TIP3    H150327   6.656   5.510   3.603 -1.7467  2.9901 -1.3556
 9612TIP3    H250328   6.651   5.617   3.710  1.6852  1.3408  0.5454
 9613TIP3   OH250329   6.132   4.246  15.103 -0.9505  0.0467  0.3616
 9613TIP3    H150330   6.114   4.213  15.015  0.0183  1.8413 -0.5183
 9613TIP3    H250331   6.198   4.186  15.138 -1.5594 -0.8512 -0.0006
 9614TIP3   OH250332   4.216   4.826   0.604  0.0319 -0.1747 -0.0395
 9614TIP3    H150333   4.163   4.754   0.568 -0.4334  0.2789 -0.2690
 9614TIP3    H250334   4.209   4.815   0.699  0.4536 -0.7909 -0.0793
 9615TIP3   OH250335   4.367   1.540  15.908  0.2500  0.3092 -0.1458
 9615TIP3    H150336   4.397   1.450  15.896  2.0421  0.8176  0.2928
 9615TIP3    H250337   4.404   1.566  15.993  0.5458  1.7697 -0.7144
 9616TIP3   OH250338   5.491   2.980  11.771 -0.1409  0.2514  0.5261
 9616TIP3    H150339   5.509   2.918  11.700  0.5517 -0.0389  0.9552
 9616TIP3    H250340   5.545   2.950  11.844  0.9429  1.9214  0.4427
 9617TIP3   OH250341   3.195   5.632   3.406 -0.3808  0.0078 -0.2115
 9617TIP3    H150342   3.259   5.674   3.348  1.1986 -2.9619 -0.7347
 9617TIP3    H250343   3.222   5.658   3.494  0.4385  0.2898 -0.5442
 9618TIP3   OH250344   4.476   5.357  12.149 -0.0683  0.4108  0.0186
 9618TIP3    H150345   4.514   5.445  12.143 -0.9675  0.7299 -1.0882
 9618TIP3    H250346   4.513   5.321  12.229  1.3862  1.2872 -0.2405
 9619TIP3   OH250347   5.879   2.568   3.184  0.0612  0.3575 -0.1870
 9619TIP3    H150348   5.949   2.506   3.167  0.8870  1.4962 -1.0010
 9619TIP3    H250349   5.827   2.528   3.254  1.7831 -0.2807  0.7391
 9620TIP3   OH250350   2.492   4.312  15.900 -0.1974  0.4174 -0.1109
 9620TIP3    H150351   2.511   4.369  15.974 -0.3275 -0.2510  0.4371
 9620TIP3    H250352   2.478   4.372  15.826  0.0836  1.0724  0.3659
 9621TIP3   OH250353   3.970   2.320  13.255 -0.7945 -0.1382  0.0431
 9621TIP3    H150354   3.942   2.411  13.264  0.5143  0.2391  0.4975
 9621TIP3    H250355   3.889   2.270  13.245 -1.4637  1.2445 -1.8075
 9622TIP3   OH250356   4.223   4.069  15.382 -0.2138 -0.1312  0.6123
 9622TIP3    H150357   4.158   4.130  15.419 -0.7222  1.6024 -2.8838
 9622TIP3    H250358   4.172   3.992  15.358 -0.2127 -0.4888  1.7278
 9623TIP3   OH250359   0.532   5.670   2.078  0.2109  0.5965  0.2297
 9623TIP3    H150360   0.492   5.714   2.004 -0.0888 -0.4140 -0.2256
 9623TIP3    H250361   0.602   5.728   2.106 -0.1656  1.3405 -0.3626
 9624TIP3   OH250362   6.675   1.350   5.360 -0.4142 -0.2842 -0.0967
 9624TIP3    H150363   6.631   1.300   5.429 -0.8834 -0.2684 -0.3830
 9624TIP3    H250364   6.681   1.289   5.287 -0.3789 -0.1353 -0.2171
 9625TIP3   OH250365   0.303   5.948  13.839 -0.1210  0.4518  0.5978
 9625TIP3    H150366   0.245   5.918  13.909  0.7839  0.5090  1.3787
 9625TIP3    H250367   0.391   5.934  13.873  0.3553 -1.1193 -1.2138
 9626TIP3   OH250368   3.845   2.687   4.624 -0.0671 -0.0122  0.2587
 9626TIP3    H150369   3.762   2.687   4.672 -0.3204  1.6054 -0.1532
 9626TIP3    H250370   3.910   2.717   4.688  0.3556 -2.0217  0.8052
 9627TIP3   OH250371   2.938   6.154   1.020 -0.1257 -0.1641 -0.0466
 9627TIP3    H150372   2.959   6.095   1.092 -0.5403 -0.0858  0.1392
 9627TIP3    H250373   2.962   6.241   1.052  2.5325 -0.4627 -1.1173
 9628TIP3   OH250374   3.697   3.064  14.959 -0.0742 -0.0091 -0.3144
 9628TIP3    H150375   3.679   3.156  14.937 -1.3208 -0.0988  0.2566
 9628TIP3    H250376   3.668   3.056  15.050  1.2734 -0.6439  0.0690
 9629TIP3   OH250377   3.923   1.990  10.642 -0.0066  0.4300 -0.0691
 9629TIP3    H150378   3.938   1.947  10.726  1.9351 -0.9554 -1.0826
 9629TIP3    H250379   4.008   1.987  10.598 -0.8749  1.5583 -1.8847
 9630TIP3   OH250380   0.980   4.854   1.416 -0.0224 -0.6385 -0.0814
 9630TIP3    H150381   0.972   4.924   1.351 -1.3511  0.6606  1.4276
 9630TIP3    H250382   0.925   4.784   1.383  1.5477 -1.1164 -1.7590
 9631TIP3   OH250383   3.055   6.670  15.539 -0.0623 -0.0103 -0.4291
 9631TIP3    H150384   3.007   6.693  15.619 -0.6937  0.0332 -0.8138
 9631TIP3    H250385   3.060   6.574  15.541 -0.9324 -0.0737 -0.8131
 9632TIP3   OH250386   2.357   4.159   6.152 -0.0425 -0.1625  0.2063
 9632TIP3    H150387   2.268   4.192   6.144  0.3007  0.7846  0.1321
 9632TIP3    H250388   2.396   4.175   6.066  0.2034 -0.5335  0.2490
 9633TIP3   OH250389   0.907   1.435   4.536 -0.5870  0.4281 -0.4711
 9633TIP3    H150390   0.857   1.508   4.572  1.8173  2.1439 -0.4623
 9633TIP3    H250391   0.912   1.372   4.608 -3.1850 -0.0210 -0.6703
 9634TIP3   OH250392   3.718   6.320  12.982  0.0988 -0.1772  0.0981
 9634TIP3    H150393   3.739   6.313  13.075 -1.0876  1.4987  0.5165
 9634TIP3    H250394   3.790   6.276  12.938  1.1224 -0.2314  1.7792
 9635TIP3   OH250395   1.257   3.016   2.018  0.0395 -0.5276  0.8636
 9635TIP3    H150396   1.274   3.107   2.040  1.4395 -0.2583 -1.1396
 9635TIP3    H250397   1.162   3.008   2.021 -0.0209  0.6064  2.4953
 9636TIP3   OH250398   0.586   3.742   1.806 -0.3647 -0.1042 -0.2637
 9636TIP3    H150399   0.662   3.798   1.823  0.4038 -1.3840  0.5876
 9636TIP3    H250400   0.523   3.766   1.874 -0.1367 -0.0775 -0.0587
 9637TIP3   OH250401   1.424   6.472  13.411  0.8519 -0.6586 -0.1081
 9637TIP3    H150402   1.499   6.500  13.358  0.8766  0.0505  0.2884
 9637TIP3    H250403   1.370   6.551  13.418  0.4584 -0.9625  0.2651
 9638TIP3   OH250404   1.044   0.364   6.388  0.1295  0.1434  0.4792
 9638TIP3    H150405   0.974   0.303   6.413 -0.2792  0.4236  0.0276
 9638TIP3    H250406   1.109   0.310   6.345 -0.4211  0.0851 -0.2894
 9639TIP3   OH250407   2.650   0.481  11.444 -0.0438 -0.0390  0.1227
 9639TIP3    H150408   2.711   0.408  11.437 -0.2465 -0.1020 -1.0826
 9639TIP3    H250409   2.627   0.502  11.353 -0.4329  1.1444  0.4881
 9640TIP3   OH250410   4.461   4.494  11.907 -0.1835 -0.4093 -0.0837
 9640TIP3    H150411   4.479   4.417  11.962  0.6329  0.4678  0.8969
 9640TIP3    H250412   4.528   4.558  11.933 -1.2296  0.8564 -0.4591
 9641TIP3   OH250413   2.709   0.115   4.301 -0.2210 -0.6690 -0.4619
 9641TIP3    H150414   2.778   0.091   4.363 -0.8707 -0.3180  0.4090
 9641TIP3    H250415   2.745   0.094   4.215 -0.1326 -3.1952  0.1575
 9642TIP3   OH250416   3.092   0.645  15.827  0.0934 -0.0426  0.0086
 9642TIP3    H150417   3.042   0.578  15.874 -0.5135 -0.5740 -1.3556
 9642TIP3    H250418   3.162   0.596  15.784  1.1400  0.5514  1.0274
 9643TIP3   OH250419   0.209   0.472  12.385  0.0271 -0.2766 -0.3332
 9643TIP3    H150420   0.189   0.396  12.438  2.2271 -0.2778  0.5492
 9643TIP3    H250421   0.127   0.521  12.380 -0.8622 -1.6369  0.8224
 9644TIP3   OH250422   0.101   1.881  12.949 -0.1690 -0.0515  0.1717
 9644TIP3    H150423   0.059   1.834  13.021  0.7868  0.1439  0.8622
 9644TIP3    H250424   0.136   1.961  12.989  2.4246 -1.0542 -0.0021
 9645TIP3   OH250425   0.887   4.273  13.663 -0.2237  0.0011  0.1174
 9645TIP3    H150426   0.839   4.227  13.594 -1.2138 -0.4223  1.0812
 9645TIP3    H250427   0.864   4.365  13.651 -0.0829 -0.0272 -0.3633
 9646TIP3   OH250428   1.111   3.764   1.428  0.0271  0.1970 -0.7862
 9646TIP3    H150429   1.188   3.740   1.479 -0.3918  1.2451  0.3655
 9646TIP3    H250430   1.085   3.683   1.384  2.3931  0.0907 -2.0393
 9647TIP3   OH250431   0.780   2.769  17.242 -0.2854 -0.1125  0.4315
 9647TIP3    H150432   0.802   2.676  17.249  0.3996  0.0408  0.3319
 9647TIP3    H250433   0.738   2.777  17.156 -0.3057 -0.3198  0.4206
 9648TIP3   OH250434   1.900   0.562  13.616 -0.0695  0.0705 -0.0050
 9648TIP3    H150435   1.934   0.610  13.540 -1.6971  0.3569 -0.5688
 9648TIP3    H250436   1.896   0.627  13.686  0.7075 -0.0118  0.1220
 9649TIP3   OH250437   6.439   5.618  11.197 -0.1396 -0.1635 -0.3665
 9649TIP3    H150438   6.472   5.646  11.112 -0.4506 -0.0415 -0.4480
 9649TIP3    H250439   6.346   5.602  11.182 -0.8292  2.7506  0.6494
 9650TIP3   OH250440   5.083   4.792   4.112  0.6349 -0.3607 -0.2968
 9650TIP3    H150441   5.141   4.751   4.175 -0.5353  0.6335  1.4598
 9650TIP3    H250442   5.096   4.886   4.124  0.5201 -0.1561 -1.6503
 9651TIP3   OH250443   5.403   6.758  13.629  0.2589 -0.6695 -0.1765
 9651TIP3    H150444   5.371   6.672  13.601  1.1071 -0.9279 -0.3732
 9651TIP3    H250445   5.453   6.739  13.709 -0.3145 -0.2322  0.2857
 9652TIP3   OH250446   2.325   2.039   0.307  0.2738 -0.1471 -0.1199
 9652TIP3    H150447   2.340   2.115   0.250  1.6390 -0.2611  0.0733
 9652TIP3    H250448   2.250   1.994   0.269 -1.0832  1.7545  0.2294
 9653TIP3   OH250449   1.359   3.045  14.256  0.1997  0.1497 -0.2632
 9653TIP3    H150450   1.284   3.105  14.251 -0.4602 -0.6424 -0.1081
 9653TIP3    H250451   1.339   2.988  14.330  0.6408 -0.4905 -0.6280
 9654TIP3   OH250452   4.046   0.191   1.256 -0.5038 -0.2613  0.3461
 9654TIP3    H150453   3.962   0.148   1.243 -0.0230 -0.5727 -1.9949
 9654TIP3    H250454   4.032   0.282   1.229 -0.1244 -0.2979  0.0076
 9655TIP3   OH250455   1.900   5.576  13.857 -0.5821 -0.1216 -0.2995
 9655TIP3    H150456   1.859   5.516  13.795 -2.4756  2.6464 -1.8164
 9655TIP3    H250457   1.978   5.608  13.812  0.5358 -1.5202  0.5867
 9656TIP3   OH250458   1.764   4.647   2.858  0.2868  0.3454 -0.2013
 9656TIP3    H150459   1.711   4.727   2.854 -0.4280 -0.1589 -0.7469
 9656TIP3    H250460   1.828   4.657   2.787 -1.3785 -0.6878 -1.8875
 9657TIP3   OH250461   2.851   2.431   5.153  0.6617 -0.1869  0.2183
 9657TIP3    H150462   2.785   2.383   5.202  1.3454 -1.5083 -0.1467
 9657TIP3    H250463   2.880   2.500   5.213 -0.3662 -0.1708  0.7126
 9658TIP3   OH250464   3.337   3.249   1.258 -0.4458  0.4018  0.2258
 9658TIP3    H150465   3.285   3.175   1.227  0.0656 -0.5556  1.6134
 9658TIP3    H250466   3.425   3.234   1.224 -0.1352 -0.0989  1.2280
 9659TIP3   OH250467   4.632   0.117  10.740 -0.6640 -0.2017 -0.4822
 9659TIP3    H150468   4.683   0.198  10.746  1.7921 -1.8073  1.8953
 9659TIP3    H250469   4.616   0.105  10.647  0.4183  2.1524 -0.9966
 9660TIP3   OH250470   0.041   3.508   2.778  0.2584 -0.4039 -0.1000
 9660TIP3    H150471  -0.051   3.510   2.752  0.2985 -0.1024 -0.2226
 9660TIP3    H250472   0.088   3.546   2.704  0.2549  1.6465  0.9224
 9661TIP3   OH250473   0.715   2.706  11.905  0.2589  0.4212  0.4238
 9661TIP3    H150474   0.678   2.735  11.822  0.0020  0.5564  0.5835
 9661TIP3    H250475   0.677   2.765  11.970  0.5573  0.3972  0.6194
 9662TIP3   OH250476   5.101   5.759  13.081 -0.6019  0.1642  0.0455
 9662TIP3    H150477   5.195   5.757  13.098 -0.5986 -2.5131 -0.0091
 9662TIP3    H250478   5.073   5.846  13.111  1.6476  0.4868  1.3589
 9663TIP3   OH250479   1.923   0.613  16.081 -0.1329  0.1445 -0.5581
 9663TIP3    H150480   1.963   0.527  16.095  0.0789  0.1945 -0.8504
 9663TIP3    H250481   1.834   0.593  16.050 -0.9486  0.0310  1.7598
 9664TIP3   OH250482   1.096   3.720  16.147 -0.0974  0.3852 -0.2888
 9664TIP3    H150483   1.007   3.694  16.122 -0.4162  0.3175  0.9113
 9664TIP3    H250484   1.130   3.764  16.069 -0.4675 -1.3443 -1.4584
 9665TIP3   OH250485   1.244   1.156  11.926  0.2776  0.2882  0.8426
 9665TIP3    H150486   1.311   1.126  11.988  0.7878 -1.6343 -0.5991
 9665TIP3    H250487   1.292   1.185  11.849 -0.4783  0.2136  0.3348
 9666TIP3   OH250488   5.817   3.395  15.977 -0.0936 -0.2168 -0.3808
 9666TIP3    H150489   5.835   3.379  16.070 -0.3731  1.7287  0.0176
 9666TIP3    H250490   5.815   3.307  15.939 -0.5626 -1.0919  1.5546
 9667TIP3   OH250491   2.476   2.280   4.984 -0.1160 -0.6891  0.3069
 9667TIP3    H150492   2.466   2.376   4.986 -0.2530 -0.6812 -0.7028
 9667TIP3    H250493   2.395   2.247   5.022 -1.1443 -0.4641 -1.6581
 9668TIP3   OH250494   1.624   0.992  14.800  0.0366  0.2372  0.3679
 9668TIP3    H150495   1.554   0.931  14.778  1.0821 -0.7585 -0.2200
 9668TIP3    H250496   1.587   1.047  14.870 -0.7534 -1.3669  1.2414
 9669TIP3   OH250497   1.943   5.677   2.275  0.1403 -0.1328 -0.0456
 9669TIP3    H150498   1.957   5.771   2.274  1.5157 -0.2642  2.2406
 9669TIP3    H250499   1.905   5.657   2.189  0.2398  2.4158 -0.7218
 9670TIP3   OH250500   0.876   6.491   1.245 -0.3785 -0.1708 -0.3390
 9670TIP3    H150501   0.941   6.440   1.293  0.9525  1.6322 -0.1956
 9670TIP3    H250502   0.836   6.547   1.311 -0.6596  0.1673 -0.7959
 9671TIP3   OH250503   5.680   5.839  13.983 -0.2062  0.4143  0.2895
 9671TIP3    H150504   5.702   5.787  13.906  0.8878 -1.5409  1.8864
 9671TIP3    H250505   5.587   5.860  13.972 -0.7810 -2.2467 -0.1895
 9672TIP3   OH250506   2.136   6.339  14.953 -0.0141  0.3689  0.1632
 9672TIP3    H150507   2.041   6.342  14.938 -0.0391  0.0875  0.2620
 9672TIP3    H250508   2.155   6.419  15.002 -0.2219  0.3630  0.2542
 9673TIP3   OH250509   4.340   3.880  16.881  0.0808  0.9115 -0.1417
 9673TIP3    H150510   4.248   3.853  16.882  0.5487 -0.7150  1.7613
 9673TIP3    H250511   4.385   3.813  16.830  0.7816 -0.4227  2.1464
 9674TIP3   OH250512   4.845   3.807   3.344 -0.6961 -0.1092  0.3859
 9674TIP3    H150513   4.760   3.765   3.329  0.3911 -1.9611 -0.8112
 9674TIP3    H250514   4.851   3.874   3.276 -1.4610  0.5009  0.8993
 9675TIP3   OH250515   1.797   6.235  13.218  0.6444  0.4041 -0.5225
 9675TIP3    H150516   1.727   6.203  13.274  1.0009  0.7290  0.1177
 9675TIP3    H250517   1.857   6.161  13.209  0.1848  0.1078 -1.1228
 9676TIP3   OH250518   2.554   3.711  11.653  0.1433  0.1579  0.0112
 9676TIP3    H150519   2.587   3.767  11.583 -0.3632  0.9551  0.4058
 9676TIP3    H250520   2.461   3.733  11.660  0.2354  0.2331  1.0735
 9677TIP3   OH250521   1.667   5.404   3.163 -0.0312  0.5930  0.4802
 9677TIP3    H150522   1.582   5.375   3.129  0.1259  0.6558  0.0315
 9677TIP3    H250523   1.648   5.437   3.251 -0.6081  1.3426  0.0770
 9678TIP3   OH250524   6.763   4.176  12.310 -0.1104 -0.0210  0.8648
 9678TIP3    H150525   6.754   4.094  12.260  0.5082 -0.8513  2.0973
 9678TIP3    H250526   6.835   4.159  12.370 -0.2049  1.3261  1.3576
 9679TIP3   OH250527   0.578   3.417  10.794  0.3913  0.2402  0.2056
 9679TIP3    H150528   0.545   3.331  10.819 -1.6907  0.0357 -2.9948
 9679TIP3    H250529   0.659   3.399  10.747  1.2402  0.2409  1.6299
 9680TIP3   OH250530   1.626   6.718  13.489 -0.2068 -0.2855  0.3868
 9680TIP3    H150531   1.683   6.645  13.514  0.2567  0.2035  0.7568
 9680TIP3    H250532   1.679   6.796  13.504 -1.6365  0.3052  2.6726
 9681TIP3   OH250533   5.511   6.421  15.236 -0.3477 -0.0072  0.2890
 9681TIP3    H150534   5.422   6.455  15.246 -0.3055  0.8813 -2.0701
 9681TIP3    H250535   5.567   6.493  15.264 -0.3025  1.2015 -2.7725
 9682TIP3   OH250536   5.435   4.681   4.054  0.7955 -0.6262  0.0360
 9682TIP3    H150537   5.516   4.677   4.105  0.5899  0.2725  0.4463
 9682TIP3    H250538   5.395   4.764   4.079 -0.7738 -1.5378  0.6269
 9683TIP3   OH250539   4.076   3.820  15.418  0.1010 -0.1582 -0.4387
 9683TIP3    H150540   4.056   3.760  15.490 -1.4254  1.4308  0.5101
 9683TIP3    H250541   3.991   3.837  15.377  0.3635  2.0398 -0.1320
 9684TIP3   OH250542   2.563   2.662   3.264  1.3328 -0.0807 -0.1936
 9684TIP3    H150543   2.603   2.688   3.181 -1.6352 -0.6976 -1.8543
 9684TIP3    H250544   2.514   2.739   3.292  1.3664 -0.2801  0.4349
 9685TIP3   OH250545   2.731   3.098   6.222  0.2977 -0.0793  0.5298
 9685TIP3    H150546   2.807   3.071   6.170  0.3427  0.9925  0.0277
 9685TIP3    H250547   2.656   3.058   6.177  0.3912  0.3665 -0.0268
 9686TIP3   OH250548   4.577   5.775   5.960  0.3118 -0.0081 -0.1211
 9686TIP3    H150549   4.665   5.814   5.965  0.1636  0.1301  1.8098
 9686TIP3    H250550   4.592   5.681   5.963  0.5628 -0.0845 -2.9595
 9687TIP3   OH250551   6.666   4.295  16.991 -0.4032  0.3407 -0.5230
 9687TIP3    H150552   6.745   4.256  17.028 -0.5824  0.3529 -0.1236
 9687TIP3    H250553   6.693   4.328  16.905  0.1632  0.8652 -0.1417
 9688TIP3   OH250554   5.024   2.082   0.026 -0.2545  0.2329  0.2031
 9688TIP3    H150555   5.086   2.103   0.095  0.6614  0.0333 -0.5513
 9688TIP3    H250556   4.945   2.053   0.072  0.1492  0.6498  1.1630
 9689TIP3   OH250557   4.632   3.545   2.269  0.4760  0.5900 -0.1538
 9689TIP3    H150558   4.688   3.496   2.209 -2.8259  1.0537 -3.8310
 9689TIP3    H250559   4.640   3.636   2.241 -0.4848  0.9453  0.6851
 9690TIP3   OH250560   5.294   3.337   6.143  0.5516  0.5974  0.1735
 9690TIP3    H150561   5.309   3.265   6.082 -0.4205  1.0037 -0.5654
 9690TIP3    H250562   5.374   3.342   6.196  0.9496 -0.4781 -0.3269
 9691TIP3   OH250563   6.583   6.466  14.894  0.1739  0.4097 -0.2170
 9691TIP3    H150564   6.656   6.418  14.855 -0.9229 -1.4850 -0.0180
 9691TIP3    H250565   6.545   6.405  14.957 -0.2513  2.1683  1.2717
 9692TIP3   OH250566   4.597   3.148  10.904 -0.2004 -0.1315 -0.2724
 9692TIP3    H150567   4.624   3.058  10.887  0.0667 -0.2486  0.8007
 9692TIP3    H250568   4.677   3.193  10.931 -0.0856  0.7276 -1.9705
 9693TIP3   OH250569   5.804   2.675   2.152 -0.1051  0.0690  0.3105
 9693TIP3    H150570   5.752   2.683   2.072  0.6486 -0.3278 -0.2273
 9693TIP3    H250571   5.894   2.688   2.123  0.2336 -0.6990  0.9928
 9694TIP3   OH250572   0.675   2.577  15.301 -0.0870  0.2131  0.1899
 9694TIP3    H150573   0.715   2.654  15.262  0.0734  0.7376  1.3889
 9694TIP3    H250574   0.742   2.509  15.295  0.4274  0.6671  0.8020
 9695TIP3   OH250575   0.471   2.325   3.043  0.2610 -0.0993  0.5948
 9695TIP3    H150576   0.457   2.417   3.069  1.1103  0.3025 -0.3412
 9695TIP3    H250577   0.419   2.314   2.964  0.2474 -0.4009  0.6458
 9696TIP3   OH250578   3.459   1.888   5.264  0.4788 -0.6573 -0.2892
 9696TIP3    H150579   3.466   1.796   5.241 -0.2470 -0.5898 -0.7718
 9696TIP3    H250580   3.507   1.895   5.347 -0.6793 -1.7488  0.4956
 9697TIP3   OH250581   1.724   6.406  12.540  0.7665  0.4690 -0.1261
 9697TIP3    H150582   1.653   6.457  12.579 -1.0473 -0.7262 -1.7520
 9697TIP3    H250583   1.717   6.424  12.446  1.3500 -1.2077 -0.5110
 9698TIP3   OH250584   3.884   3.023   5.871 -0.7508 -0.1781  0.4659
 9698TIP3    H150585   3.799   3.047   5.907 -1.0290  0.2811 -0.4953
 9698TIP3    H250586   3.925   2.970   5.940 -2.4264 -1.6681  0.3409
 9699TIP3   OH250587   2.735   4.879   4.530  0.9829 -0.0314 -0.3041
 9699TIP3    H150588   2.762   4.942   4.597  0.7524 -0.5094  0.2402
 9699TIP3    H250589   2.722   4.797   4.578 -1.4223  0.1803 -0.5655
 9700TIP3   OH250590   5.194   3.265   1.405 -0.3180  0.4255 -0.6077
 9700TIP3    H150591   5.142   3.221   1.471  1.2782 -0.4718  0.0836
 9700TIP3    H250592   5.146   3.345   1.385 -2.2583 -0.6744 -0.4555
 9701TIP3   OH250593   2.048   0.237  11.825  0.7267  0.0152  0.1312
 9701TIP3    H150594   2.096   0.242  11.907 -1.0418 -1.4400  1.2987
 9701TIP3    H250595   1.967   0.286  11.841 -0.3833 -1.6730 -0.1591
 9702TIP3   OH250596   2.846   0.692  12.693 -0.3899 -0.2624  0.4080
 9702TIP3    H150597   2.849   0.788  12.692 -0.3571 -0.2647  0.3157
 9702TIP3    H250598   2.902   0.667  12.767  0.0533 -0.2284  0.0872
 9703TIP3   OH250599   6.258   5.511   0.275 -0.3940  0.8235 -0.2724
 9703TIP3    H150600   6.215   5.427   0.289  1.6070  0.2078  2.5655
 9703TIP3    H250601   6.250   5.527   0.180 -0.2639 -2.8293 -0.9466
 9704TIP3   OH250602   5.686   6.541  15.973 -0.0765  0.2503  0.1465
 9704TIP3    H150603   5.742   6.569  16.045 -0.4858 -0.0089  0.5666
 9704TIP3    H250604   5.710   6.599  15.900  2.6867 -1.6189 -0.5157
 9705TIP3   OH250605   4.266   3.542  14.025 -0.0052 -0.2235  0.0342
 9705TIP3    H150606   4.258   3.548  13.930 -3.3563 -0.5204  0.2554
 9705TIP3    H250607   4.241   3.629  14.057 -1.4609 -0.8908  0.7570
 9706TIP3   OH250608   0.887   3.059   5.151  0.2054  0.5590  0.2844
 9706TIP3    H150609   0.818   2.992   5.156  0.5529  0.2381  0.7852
 9706TIP3    H250610   0.968   3.009   5.143  0.3301  0.9469 -0.9762
 9707TIP3   OH250611   1.261   6.589  15.335  0.0378  0.2826 -0.1156
 9707TIP3    H150612   1.283   6.637  15.255 -0.1590 -1.0207 -0.9619
 9707TIP3    H250613   1.289   6.647  15.406 -0.1307  1.6196 -1.1183
 9708TIP3   OH250614   2.196   1.251  16.598  0.2702 -0.0773  0.5339
 9708TIP3    H150615   2.103   1.271  16.600  0.4143  0.6179  0.6510
 9708TIP3    H250616   2.209   1.206  16.514 -0.1651 -0.1661  0.5133
 9709TIP3   OH250617   3.908   4.079  12.683  0.5697  0.0516 -0.2049
 9709TIP3    H150618   4.001   4.066  12.698  0.6512  0.6254 -0.1939
 9709TIP3    H250619   3.865   4.025  12.749  0.8398 -2.6242 -2.0852
 9710TIP3   OH250620   1.438   3.039   0.791  0.1877  0.2489  0.0300
 9710TIP3    H150621   1.453   2.950   0.761 -0.6473  0.5473 -1.2939
 9710TIP3    H250622   1.343   3.048   0.795  0.2077  1.7803 -2.0540
 9711TIP3   OH250623   4.055   4.707  16.775  0.4836 -0.4501 -0.3275
 9711TIP3    H150624   4.038   4.672  16.687 -0.8237 -0.6445 -0.0089
 9711TIP3    H250625   3.968   4.730  16.808  1.1271  1.0902  0.3079
 9712TIP3   OH250626   3.075   5.879   1.370 -0.5528  0.0301 -0.5023
 9712TIP3    H150627   3.147   5.889   1.432  0.1705  1.5223 -1.5335
 9712TIP3    H250628   3.000   5.918   1.414 -0.4173 -0.3180  0.0436
 9713TIP3   OH250629   4.145   5.114   2.076  0.2162 -0.0768  0.3708
 9713TIP3    H150630   4.163   5.207   2.058  1.5991 -0.5051 -0.5657
 9713TIP3    H250631   4.178   5.068   1.999  0.7810 -1.4652  1.4171
 9714TIP3   OH250632   5.994   3.721  12.815 -0.0834  0.0875 -0.5372
 9714TIP3    H150633   5.904   3.719  12.784 -0.4696 -0.1138  0.5840
 9714TIP3    H250634   6.005   3.809  12.852 -0.2120 -0.3219  0.4802
 9715TIP3   OH250635   1.810   3.186  15.269  0.1805 -0.8324  0.1660
 9715TIP3    H150636   1.726   3.166  15.228 -0.1687 -0.3179  0.6302
 9715TIP3    H250637   1.801   3.276  15.300  0.5617 -1.0923  1.0610
 9716TIP3   OH250638   1.233   5.817  16.703 -0.0588 -0.3256 -0.0545
 9716TIP3    H150639   1.322   5.799  16.673  0.1482 -0.3995  0.5899
 9716TIP3    H250640   1.212   5.743  16.761  0.0108  0.4324  0.9456
 9717TIP3   OH250641   4.864   2.249   1.402  0.6220 -0.2136 -0.1120
 9717TIP3    H150642   4.903   2.191   1.467 -1.1928 -0.2846  0.9429
 9717TIP3    H250643   4.856   2.333   1.447 -2.4229 -0.7522  0.4620
 9718TIP3   OH250644   4.425   1.945  16.944 -0.4565 -0.0280 -0.4869
 9718TIP3    H150645   4.364   1.874  16.922 -0.3814 -0.1675 -0.2514
 9718TIP3    H250646   4.450   1.928  17.035  1.0042 -0.7824 -1.0108
 9719TIP3   OH250647   0.865   5.276  16.981  0.1112  0.2570 -0.3746
 9719TIP3    H150648   0.852   5.294  17.074  0.1447  0.2131 -0.3595
 9719TIP3    H250649   0.943   5.220  16.978 -0.6383 -0.7937 -0.3224
 9720TIP3   OH250650   3.924   5.044  16.388  0.0394 -0.4198 -0.0679
 9720TIP3    H150651   3.961   5.126  16.355 -2.1728  0.9036  0.6763
 9720TIP3    H250652   3.998   4.999  16.428  1.2587  1.2475 -0.3908
 9721TIP3   OH250653   4.138   3.147  12.381  0.0375 -0.1254 -0.1732
 9721TIP3    H150654   4.227   3.132  12.412 -0.8569 -2.4710  1.4419
 9721TIP3    H250655   4.126   3.242  12.387  1.8092  0.0311  1.3544
 9722TIP3   OH250656   0.685   1.993  14.533 -0.1432  0.0519  0.6757
 9722TIP3    H150657   0.663   2.083  14.556  0.5783  1.0964 -2.5859
 9722TIP3    H250658   0.760   2.000  14.475 -0.3187 -2.6261  0.0515
 9723TIP3   OH250659   0.424   4.436   4.605 -0.4981  0.8173 -0.3103
 9723TIP3    H150660   0.484   4.381   4.555 -2.3210  0.6990 -2.4573
 9723TIP3    H250661   0.412   4.514   4.552 -2.6825  0.5757 -0.2409
 9724TIP3   OH250662   6.543   0.948   2.271 -0.2638  0.1810 -0.8227
 9724TIP3    H150663   6.520   0.886   2.202  1.7510 -3.0368  1.2875
 9724TIP3    H250664   6.470   0.943   2.333 -0.0286 -0.1545 -0.5774
 9725TIP3   OH250665   5.023   0.553  14.683  0.4235  0.3874  0.9190
 9725TIP3    H150666   5.100   0.601  14.653  0.3328 -0.0520 -0.0348
 9725TIP3    H250667   5.058   0.474  14.725  0.5810  1.3833  2.6840
 9726TIP3   OH250668   6.118   3.433  14.649 -0.3389  0.0325  0.4957
 9726TIP3    H150669   6.101   3.356  14.704  0.1303 -0.1714  0.3620
 9726TIP3    H250670   6.032   3.457  14.614 -0.1698 -1.9481 -1.4588
 9727TIP3   OH250671   5.034   1.618   2.026  0.3909 -0.3463  0.3435
 9727TIP3    H150672   5.072   1.561   2.093  1.3667 -1.2465 -0.9473
 9727TIP3    H250673   5.024   1.703   2.069 -0.2174 -1.2483  2.0189
 9728TIP3   OH250674   0.500   0.412   1.895 -0.1909  0.0244 -0.3458
 9728TIP3    H150675   0.444   0.409   1.818  0.8857  0.1508 -1.1544
 9728TIP3    H250676   0.507   0.505   1.917  2.1808  0.3211 -2.1365
 9729TIP3   OH250677   4.970   4.065  16.180  0.3183  0.0078  0.0879
 9729TIP3    H150678   4.942   3.979  16.210 -1.8402  0.2254 -1.2230
 9729TIP3    H250679   4.969   4.059  16.084  2.2981  0.8401 -0.0267
 9730TIP3   OH250680   5.172   0.087   5.482 -0.7060 -0.4854 -0.2007
 9730TIP3    H150681   5.175   0.004   5.529  0.1902 -1.3299 -1.7187
 9730TIP3    H250682   5.140   0.065   5.395  2.4995  0.2453 -1.6398
 9731TIP3   OH250683   3.257   1.526   4.389 -0.5101 -0.0032 -0.4396
 9731TIP3    H150684   3.303   1.551   4.469  1.5304  0.2044 -1.6378
 9731TIP3    H250685   3.259   1.604   4.334 -0.3451 -0.6594 -1.3822
 9732TIP3   OH250686   5.113   5.323   0.268  0.0794  0.2016 -0.3620
 9732TIP3    H150687   5.164   5.242   0.259  0.1423  0.0825  1.0739
 9732TIP3    H250688   5.177   5.390   0.291 -0.2450  0.3036  0.2347
 9733TIP3   OH250689   1.636   3.708  12.831  0.1547  0.2181  0.4510
 9733TIP3    H150690   1.575   3.741  12.764  0.8334 -0.8826 -0.7181
 9733TIP3    H250691   1.584   3.708  12.911 -0.9773  0.6149 -0.2590
 9734TIP3   OH250692   0.885   2.913  11.528 -0.2509  1.0152 -0.4567
 9734TIP3    H150693   0.810   2.911  11.588  1.3321  2.6392  1.6908
 9734TIP3    H250694   0.848   2.941  11.444 -2.4722 -0.9428 -0.1911
 9735TIP3   OH250695   5.536   3.829  16.812  1.0664 -0.2633  0.5661
 9735TIP3    H150696   5.579   3.902  16.768  0.6673  0.7155  1.7824
 9735TIP3    H250697   5.478   3.792  16.745  2.3622 -0.3919 -0.4904
 9736TIP3   OH250698   6.069   5.126   5.452  0.5064 -0.1336 -0.5284
 9736TIP3    H150699   6.144   5.145   5.395 -1.5831  1.9838 -2.6815
 9736TIP3    H250700   6.043   5.037   5.428  2.2735 -0.8634  0.2031
 9737TIP3   OH250701   0.488   5.139   6.226 -0.5913 -0.0549 -0.1230
 9737TIP3    H150702   0.472   5.054   6.267  2.0153  0.1221  1.3282
 9737TIP3    H250703   0.423   5.197   6.266 -0.7829 -0.8274  0.7053
 9738TIP3   OH250704   0.987   3.503  14.261  0.3708 -0.8006 -0.0534
 9738TIP3    H150705   1.003   3.425  14.208 -0.9541 -1.4258  0.4469
 9738TIP3    H250706   1.066   3.557  14.250  1.8573 -2.7877  0.6111
 9739TIP3   OH250707   3.483   0.979  12.811  0.2846 -0.7308  0.3561
 9739TIP3    H150708   3.408   0.991  12.869 -0.4064  0.1099 -0.7069
 9739TIP3    H250709   3.548   1.042  12.842  0.2819 -0.9506  0.8136
 9740TIP3   OH250710   1.439   0.854   0.834 -0.0985  0.2641  0.1515
 9740TIP3    H150711   1.356   0.902   0.837 -0.8928 -1.0434 -0.6531
 9740TIP3    H250712   1.446   0.812   0.919  0.3229  1.3102  0.6493
 9741TIP3   OH250713   1.748   2.279   1.482  0.3520  0.0065 -0.3636
 9741TIP3    H150714   1.676   2.217   1.491  0.0160  0.5262  0.5992
 9741TIP3    H250715   1.814   2.247   1.544 -0.1066  1.0033  0.6513
 9742TIP3   OH250716   0.793   6.723  14.216  0.1238 -0.2782  0.4614
 9742TIP3    H150717   0.860   6.789  14.199 -1.2383  1.2055  0.7687
 9742TIP3    H250718   0.713   6.758  14.177 -0.5541 -1.8961  0.3465
 9743TIP3   OH250719   0.814   4.926   2.300  0.4571  0.0294 -0.3409
 9743TIP3    H150720   0.892   4.905   2.250  0.0765 -0.5282 -0.7121
 9743TIP3    H250721   0.748   4.949   2.234 -0.1125 -0.9236 -0.1151
 9744TIP3   OH250722   1.586   5.917   2.905 -0.0542 -0.6066 -0.0988
 9744TIP3    H150723   1.674   5.893   2.934 -0.1635 -0.1396  0.6096
 9744TIP3    H250724   1.559   5.988   2.963 -0.3281  0.2475 -1.2454
 9745TIP3   OH250725   3.174   4.339   2.415  0.0472 -0.2047  0.2441
 9745TIP3    H150726   3.087   4.374   2.396  0.0520 -0.1819  0.2648
 9745TIP3    H250727   3.160   4.281   2.491  0.1828  0.3706  0.7105
 9746TIP3   OH250728   2.054   3.501  12.017  0.2748  0.6968  0.1035
 9746TIP3    H150729   2.091   3.476  11.932 -1.0632 -1.8820  0.2387
 9746TIP3    H250730   2.033   3.593  12.007  0.5831  0.5607 -2.2176
 9747TIP3   OH250731   1.037   3.805   1.003  0.2116 -0.6100 -0.0652
 9747TIP3    H150732   1.082   3.770   0.926  0.1009  0.2724 -0.5281
 9747TIP3    H250733   1.105   3.855   1.049 -0.2553  0.6642 -0.7262
 9748TIP3   OH250734   6.453   5.757  13.499 -0.7952 -0.3961  0.6385
 9748TIP3    H150735   6.391   5.792  13.563 -1.0741 -1.1551  0.7913
 9748TIP3    H250736   6.480   5.673  13.535  0.4076 -0.0342  0.6154
 9749TIP3   OH250737   6.313   1.214  14.688 -1.0131  0.1136 -0.2737
 9749TIP3    H150738   6.321   1.129  14.645 -2.7446  0.9759 -2.3618
 9749TIP3    H250739   6.219   1.227  14.701 -0.7043  1.2561  0.9924
 9750TIP3   OH250740   5.336   0.459  13.569  0.0071  0.2746  0.1086
 9750TIP3    H150741   5.391   0.470  13.647 -2.1471  0.3188  1.6716
 9750TIP3    H250742   5.294   0.374  13.582  0.7424 -0.3845 -1.7484
 9751TIP3   OH250743   4.682   0.396  12.750  0.0284  0.6746  0.1269
 9751TIP3    H150744   4.734   0.381  12.829 -0.6062  0.2067  0.4658
 9751TIP3    H250745   4.669   0.309  12.713  0.0139  0.8557 -0.2927
 9752TIP3   OH250746   3.156   6.420  13.742  0.1387 -0.0677  0.3481
 9752TIP3    H150747   3.109   6.350  13.788  0.7607 -0.6756  0.0676
 9752TIP3    H250748   3.222   6.450  13.804 -1.6067  1.8810  1.3480
 9753TIP3   OH250749   2.958   1.071   0.951  0.6991 -0.0213  0.1187
 9753TIP3    H150750   2.927   1.013   1.021  1.0557 -0.7667 -0.3315
 9753TIP3    H250751   2.885   1.129   0.934 -0.1756 -1.2396 -0.3684
 9754TIP3   OH250752   5.635   1.149   6.438  0.2385 -0.8435 -0.8067
 9754TIP3    H150753   5.550   1.143   6.394  0.3025  0.9278 -1.2213
 9754TIP3    H250754   5.616   1.141   6.531 -0.5059  0.4891 -0.8368
 9755TIP3   OH250755   2.725   2.068   1.669  0.0869  0.4244 -0.0992
 9755TIP3    H150756   2.671   2.105   1.740 -1.6963 -1.7972 -0.2600
 9755TIP3    H250757   2.731   1.975   1.689  0.5444 -0.0380 -2.2570
 9756TIP3   OH250758   1.232   1.503   4.980  0.2736  0.0249  0.2260
 9756TIP3    H150759   1.292   1.464   4.917  0.6407  1.5372 -0.3791
 9756TIP3    H250760   1.276   1.491   5.065 -0.3227 -2.1905  0.2359
 9757TIP3   OH250761   3.128   5.029  15.930 -0.0320 -0.1303  0.5293
 9757TIP3    H150762   3.216   5.029  15.968 -0.0379 -0.2414  0.5430
 9757TIP3    H250763   3.114   4.938  15.901  0.7682  0.3975 -1.6090
 9758TIP3   OH250764   0.538   2.000   4.083 -0.2412 -0.2098  0.3152
 9758TIP3    H150765   0.611   2.023   4.024 -1.8474  0.2024 -1.5569
 9758TIP3    H250766   0.521   2.080   4.132 -1.3253  0.6000 -1.3336
 9759TIP3   OH250767   2.900   4.456  12.376  0.9250  0.1673 -0.3571
 9759TIP3    H150768   2.966   4.524  12.366  0.4320  1.0954  2.3852
 9759TIP3    H250769   2.829   4.483  12.319  0.8372  1.8475  0.5167
 9760TIP3   OH250770   1.500   3.821   4.268 -0.1811 -0.1574 -0.1417
 9760TIP3    H150771   1.587   3.861   4.277  0.5548 -1.1059 -2.4994
 9760TIP3    H250772   1.504   3.775   4.184 -3.6114  1.3714 -1.2197
 9761TIP3   OH250773   3.083   5.063   3.943  0.4486  0.2807  0.2396
 9761TIP3    H150774   2.991   5.034   3.941  0.2186  1.0908 -1.8378
 9761TIP3    H250775   3.092   5.108   4.027 -0.8498 -0.4670  0.7936
 9762TIP3   OH250776   0.260   3.104  13.964 -0.0010  0.4316  0.5653
 9762TIP3    H150777   0.181   3.050  13.969  1.3826 -1.5328  1.9093
 9762TIP3    H250778   0.229   3.188  13.932 -2.3347 -0.9132 -0.8432
 9763TIP3   OH250779   5.558   6.208   3.285  0.1243 -0.1410 -0.0731
 9763TIP3    H150780   5.556   6.186   3.378  1.6567  0.6251  0.1584
 9763TIP3    H250781   5.588   6.127   3.242  0.7783 -0.0783  0.2526
 9764TIP3   OH250782   5.205   2.269   4.701 -0.2134 -0.2108 -0.1850
 9764TIP3    H150783   5.230   2.357   4.729 -0.5524 -0.5974  1.3773
 9764TIP3    H250784   5.145   2.238   4.769 -1.9475 -0.7616 -1.9253
 9765TIP3   OH250785   3.031   0.366   0.584  0.3589 -0.4907  0.7130
 9765TIP3    H150786   3.021   0.290   0.528 -0.4892 -0.4377  0.7826
 9765TIP3    H250787   3.102   0.343   0.644  0.9905 -0.7044 -0.1140
 9766TIP3   OH250788   3.594   6.031  12.822 -0.1548  0.3156  0.3328
 9766TIP3    H150789   3.551   6.114  12.800  2.7390  1.6086 -0.6343
 9766TIP3    H250790   3.686   6.054  12.831  0.6639 -2.7906  0.1989
 9767TIP3   OH250791   4.603   3.382   0.755 -0.1694 -0.0035 -0.1267
 9767TIP3    H150792   4.631   3.463   0.713  2.6232 -2.3673 -3.0409
 9767TIP3    H250793   4.530   3.351   0.701 -2.5515  1.4220  2.1085
 9768TIP3   OH250794   3.376   0.842   0.509  0.0756 -0.4564 -0.1114
 9768TIP3    H150795   3.431   0.919   0.523  0.0754 -0.0696 -2.0996
 9768TIP3    H250796   3.414   0.775   0.566  2.4528 -0.1197 -1.2420
 9769TIP3   OH250797   0.564   2.028   2.895  0.2821 -0.2453 -0.1598
 9769TIP3    H150798   0.606   1.947   2.865  1.0858  0.4329 -0.8942
 9769TIP3    H250799   0.471   2.007   2.897  0.5294 -1.3805  0.2684
 9770TIP3   OH250800   0.650   2.556  16.712 -0.0469 -0.3002 -0.3989
 9770TIP3    H150801   0.679   2.642  16.680  2.5685 -0.7012  0.7291
 9770TIP3    H250802   0.710   2.494  16.670 -0.7109 -1.4063  0.2555
 9771TIP3   OH250803   0.063   1.121  13.996  0.0157 -0.0463 -0.0407
 9771TIP3    H150804  -0.025   1.085  14.002  0.7287 -2.1588 -1.7864
 9771TIP3    H250805   0.073   1.173  14.076 -2.7393  0.1244  0.2463
 9772TIP3   OH250806   0.542   1.635   0.144 -0.2270 -0.3556 -0.7744
 9772TIP3    H150807   0.503   1.667   0.225  1.7006 -0.9686  0.4435
 9772TIP3    H250808   0.528   1.540   0.147 -1.1512 -0.2607 -1.7330
 9773TIP3   OH250809   0.560   3.680   1.064  0.0677  0.3686 -0.0287
 9773TIP3    H150810   0.651   3.706   1.076  0.3901 -0.6836 -0.1455
 9773TIP3    H250811   0.510   3.758   1.088  0.8299 -0.1976  3.8516
 9774TIP3   OH250812   5.958   6.388  15.184  0.3721 -0.3729  0.2456
 9774TIP3    H150813   5.972   6.481  15.166  3.1331 -1.2800 -2.7455
 9774TIP3    H250814   5.889   6.362  15.124  2.5724 -1.1410 -2.0397
 9775TIP3   OH250815   0.273   0.908  12.484  0.3921 -0.0813  0.2593
 9775TIP3    H150816   0.343   0.844  12.476  0.3543 -0.0782 -0.0862
 9775TIP3    H250817   0.314   0.992  12.463 -0.0024 -0.2363 -1.2169
 9776TIP3   OH250818   4.719   5.114   4.240 -0.2079 -0.2595  0.7149
 9776TIP3    H150819   4.639   5.134   4.192  0.0857  1.0577  0.7469
 9776TIP3    H250820   4.786   5.105   4.173 -0.3345 -1.1723  0.7011
 9777TIP3   OH250821   2.980   1.200  16.778 -0.0353 -0.4173 -0.0195
 9777TIP3    H150822   2.946   1.278  16.735 -0.3298 -0.0152  0.9420
 9777TIP3    H250823   2.913   1.177  16.843  0.1797 -1.3012 -0.0967
 9778TIP3   OH250824   5.357   3.614  16.996  0.3637  0.4353  0.0036
 9778TIP3    H150825   5.413   3.667  17.053  2.1029  0.0583 -1.3224
 9778TIP3    H250826   5.417   3.563  16.943 -1.2666 -1.0505 -0.4798
 9779TIP3   OH250827   5.439   5.518  15.912 -0.3050  0.7866  0.4243
 9779TIP3    H150828   5.424   5.444  15.853  0.1596  2.4742 -1.8719
 9779TIP3    H250829   5.353   5.539  15.947 -0.5581 -0.3155  0.4872
 9780TIP3   OH250830   3.603   4.497   3.780  0.1255 -0.2753  0.6319
 9780TIP3    H150831   3.581   4.471   3.691  1.1490  0.9297  0.0237
 9780TIP3    H250832   3.680   4.445   3.802  1.1532  0.9788  0.0310
 9781TIP3   OH250833   3.050   3.735  12.780 -0.7620  0.3664  0.0227
 9781TIP3    H150834   3.038   3.686  12.860 -2.0729  0.7070  0.0399
 9781TIP3    H250835   3.039   3.827  12.806  0.0972  0.5701 -0.3039
 9782TIP3   OH250836   6.697   5.363   3.046  0.3697 -0.1527 -0.0470
 9782TIP3    H150837   6.697   5.423   2.972  0.2969  1.7251  1.4341
 9782TIP3    H250838   6.786   5.329   3.049  0.8610  1.1090  0.0469
 9783TIP3   OH250839   5.471   5.992   5.691 -1.0229 -0.1557 -0.3168
 9783TIP3    H150840   5.494   6.003   5.783  0.0907  0.4460 -0.6550
 9783TIP3    H250841   5.411   5.917   5.690 -0.3801 -0.7046  0.8017
 9784TIP3   OH250842   5.455   1.603  11.416 -0.3134 -0.4683  0.5315
 9784TIP3    H150843   5.469   1.552  11.337  1.4142 -0.4022  0.7635
 9784TIP3    H250844   5.360   1.603  11.429 -0.5095 -1.5424 -0.8215
 9785TIP3   OH250845   1.573   5.609  11.696  0.0793  0.1428 -0.0254
 9785TIP3    H150846   1.632   5.680  11.669 -0.9023  0.9052 -0.1883
 9785TIP3    H250847   1.504   5.653  11.746  0.1026 -0.8530  0.8997
 9786TIP3   OH250848   1.871   2.185  11.857 -0.3172  0.6361  0.4594
 9786TIP3    H150849   1.943   2.235  11.818 -0.0237 -0.0301  0.1349
 9786TIP3    H250850   1.820   2.155  11.782 -0.0081 -0.2658  0.6037
 9787TIP3   OH250851   3.435   1.586  11.723  0.8388  0.0456  0.3532
 9787TIP3    H150852   3.514   1.569  11.671  0.9387 -0.5223  0.6872
 9787TIP3    H250853   3.418   1.503  11.768 -0.3299 -0.0458 -0.2297
 9788TIP3   OH250854   0.752   2.769   4.352  0.5084 -0.0932 -0.2965
 9788TIP3    H150855   0.741   2.676   4.333 -0.6737  0.2111 -1.1311
 9788TIP3    H250856   0.839   2.775   4.392  0.6586 -1.5287 -0.3789
 9789TIP3   OH250857   5.213   1.460  17.225  0.4113  0.9769  0.5167
 9789TIP3    H150858   5.125   1.497  17.215 -0.1236 -0.4013  0.0594
 9789TIP3    H250859   5.208   1.374  17.183  1.7148  0.4796  1.3571
 9790TIP3   OH250860   4.572   2.643  12.430  0.5274  0.2567 -0.1914
 9790TIP3    H150861   4.551   2.718  12.487  0.0568 -0.1020  0.1172
 9790TIP3    H250862   4.550   2.566  12.483 -1.3285 -0.0682 -1.3898
 9791TIP3   OH250863   6.472   1.409   4.591  0.4750 -0.3424 -0.1768
 9791TIP3    H150864   6.497   1.475   4.527  0.6807  0.0162  0.2739
 9791TIP3    H250865   6.535   1.419   4.662 -0.1190 -0.3393  0.3523
 9792TIP3   OH250866   6.665   1.978  15.145 -0.8010  0.1056 -0.4188
 9792TIP3    H150867   6.663   1.885  15.123 -2.1440 -0.2833  1.2816
 9792TIP3    H250868   6.575   1.998  15.172 -1.1937  2.5224 -3.2436
 9793TIP3   OH250869   0.072   5.542  12.074  0.3561  0.6220  0.5074
 9793TIP3    H150870   0.093   5.514  12.163 -1.8722 -1.0128  0.5701
 9793TIP3    H250871   0.013   5.616  12.086 -0.9568 -0.3967  0.4195
 9794TIP3   OH250872   6.769   4.424  16.755  0.7076 -0.0935  0.1781
 9794TIP3    H150873   6.857   4.443  16.724  0.8407  2.5681  2.0448
 9794TIP3    H250874   6.718   4.408  16.676  2.2425  1.0711 -1.0721
 9795TIP3   OH250875   2.886   0.524   1.755 -0.0567  0.5518 -0.1058
 9795TIP3    H150876   2.820   0.459   1.735 -0.3150  0.8925 -0.3567
 9795TIP3    H250877   2.967   0.474   1.766 -0.3586  0.1347  0.2397
 9796TIP3   OH250878   6.432   5.087  15.054 -0.0441  0.5402  0.1822
 9796TIP3    H150879   6.492   5.012  15.054 -1.2753 -0.4457  0.3406
 9796TIP3    H250880   6.396   5.090  14.965 -1.7062 -0.4466  0.8021
 9797TIP3   OH250881   6.590   3.058  15.824 -0.2277 -0.3067  0.5562
 9797TIP3    H150882   6.678   3.078  15.792 -0.9258  2.0070 -0.0229
 9797TIP3    H250883   6.565   3.136  15.874 -1.9780 -0.9067  0.6450
 9798TIP3   OH250884   4.146   6.303  16.694 -0.4569  0.4098 -0.0872
 9798TIP3    H150885   4.129   6.315  16.601 -1.1295 -1.9057 -0.3086
 9798TIP3    H250886   4.065   6.332  16.737 -0.3186  1.0509 -0.2599
 9799TIP3   OH250887   2.275   1.727  11.646 -0.1366 -0.5852 -0.3319
 9799TIP3    H150888   2.295   1.820  11.658  1.2299 -1.0755  1.3170
 9799TIP3    H250889   2.355   1.691  11.608 -0.2102 -1.3503  0.2524
 9800TIP3   OH250890   1.795   3.752  11.718  0.6107 -0.5307 -0.0263
 9800TIP3    H150891   1.735   3.678  11.729 -0.1090  0.2950  1.7584
 9800TIP3    H250892   1.813   3.782  11.807 -0.0163  2.1761 -0.7728
 9801TIP3   OH250893   6.559   1.147   6.403  0.0095  0.0314  0.1059
 9801TIP3    H150894   6.570   1.124   6.495 -0.1701  0.6928  0.2986
 9801TIP3    H250895   6.630   1.208   6.385 -0.6808  0.8557  0.1453
 9802TIP3   OH250896   2.083   0.687   0.405 -0.4090 -0.7147 -0.9404
 9802TIP3    H150897   2.121   0.771   0.379  0.1242 -1.0833 -1.3726
 9802TIP3    H250898   2.002   0.681   0.355 -1.5633  0.5259  0.7253
 9803TIP3   OH250899   5.486   4.742   2.647  0.2808 -0.0298  0.4145
 9803TIP3    H150900   5.549   4.798   2.602  1.4355 -0.4533  1.4829
 9803TIP3    H250901   5.469   4.671   2.585 -0.6917  1.1181 -0.6836
 9804TIP3   OH250902   6.560   1.449   2.669  0.5173 -0.3420 -0.7915
 9804TIP3    H150903   6.585   1.468   2.759  0.6757  1.0412 -1.1163
 9804TIP3    H250904   6.487   1.388   2.677  0.3397  0.0011  0.2765
 9805TIP3   OH250905   2.004   5.030   6.576  0.0906  0.2749 -0.4956
 9805TIP3    H150906   2.084   5.076   6.552  1.0916 -0.4573  1.3290
 9805TIP3    H250907   2.028   4.938   6.576 -1.4426 -0.1659 -2.4157
 9806TIP3   OH250908   6.064   1.724  15.048  0.1239  0.1701 -0.0681
 9806TIP3    H150909   6.076   1.791  14.981  0.7448 -0.4864 -0.6248
 9806TIP3    H250910   5.974   1.694  15.036 -0.0953  0.7702  0.0587
 9807TIP3   OH250911   6.355   3.541   2.883  0.2175  0.3777  0.1536
 9807TIP3    H150912   6.359   3.448   2.861 -1.8091  0.2291  0.2627
 9807TIP3    H250913   6.322   3.542   2.974  0.7849  1.1804  0.3522
 9808TIP3   OH250914   0.727   3.705   0.067  0.3328  0.0438 -0.4052
 9808TIP3    H150915   0.728   3.693  -0.028 -1.5027 -0.0181 -0.4170
 9808TIP3    H250916   0.740   3.799   0.080  0.4230  0.0731 -0.7080
 9809TIP3   OH250917   2.896   5.607  13.073  1.0464 -0.2575 -0.2577
 9809TIP3    H150918   2.918   5.541  13.138 -1.4625 -0.7057  0.1757
 9809TIP3    H250919   2.939   5.687  13.104 -1.0700 -0.1788  2.5825
 9810TIP3   OH250920   0.156   1.450  13.331  0.2690 -0.3417 -0.1695
 9810TIP3    H150921   0.223   1.438  13.263 -0.4826 -4.2773 -0.3063
 9810TIP3    H250922   0.203   1.436  13.413  0.4805  1.1205 -0.0327
 9811TIP3   OH250923   4.286   0.360   5.897 -0.2465  0.1777  0.2552
 9811TIP3    H150924   4.198   0.343   5.931  0.4591  0.0939  2.0571
 9811TIP3    H250925   4.292   0.456   5.893  0.3367  0.2356  2.1747
 9812TIP3   OH250926   3.814   3.960  13.983 -0.2374 -0.3161  0.6953
 9812TIP3    H150927   3.871   3.978  13.907 -2.3692  1.7464 -0.4934
 9812TIP3    H250928   3.825   3.867  14.000  0.7103 -0.7038 -1.8389
 9813TIP3   OH250929   6.135   6.550  14.453 -0.4328 -0.1752  0.0632
 9813TIP3    H150930   6.214   6.556  14.507 -0.2096  1.4691 -0.4082
 9813TIP3    H250931   6.098   6.464  14.473  0.8430 -0.4766  1.1693
 9814TIP3   OH250932   3.012   2.641  16.114  0.1460 -0.3531  0.1506
 9814TIP3    H150933   3.043   2.717  16.065  0.3150 -0.2999  0.3384
 9814TIP3    H250934   3.020   2.568  16.053 -2.3466  0.1750 -0.8852
 9815TIP3   OH250935   0.082   5.255  15.553 -0.1794  0.2123 -0.2161
 9815TIP3    H150936   0.071   5.215  15.467  2.4092 -0.9751 -0.0117
 9815TIP3    H250937   0.078   5.350  15.535  0.9944 -0.0030 -1.7468
 9816TIP3   OH250938   1.534   5.739  15.620 -0.0768  0.1695 -0.1583
 9816TIP3    H150939   1.528   5.644  15.619 -0.1189  0.1262  2.3503
 9816TIP3    H250940   1.451   5.769  15.582 -0.7159 -0.7825  0.4744
 9817TIP3   OH250941   6.038   3.656   1.899 -0.3031 -0.3919 -0.5880
 9817TIP3    H150942   6.008   3.696   1.818  0.3595 -0.9088 -1.0889
 9817TIP3    H250943   6.082   3.726   1.946  0.1035 -0.3159 -1.0806
 9818TIP3   OH250944   6.497   6.352   3.580  0.1702  0.2484  0.6479
 9818TIP3    H150945   6.535   6.265   3.591  2.2614  1.1240  0.6782
 9818TIP3    H250946   6.573   6.410   3.569 -1.1871  2.0357  0.4210
 9819TIP3   OH250947   5.458   5.363   2.165 -0.2599 -0.2438  0.6592
 9819TIP3    H150948   5.475   5.269   2.150  0.4811 -0.6997  3.9532
 9819TIP3    H250949   5.363   5.369   2.176 -0.3735 -0.4882 -0.1207
 9820TIP3   OH250950   6.045   4.852   2.176  0.4610 -0.0421  0.4189
 9820TIP3    H150951   6.077   4.774   2.220  1.7159 -1.8233 -3.4416
 9820TIP3    H250952   5.957   4.827   2.145  0.3684  0.4899  0.2492
 9821TIP3   OH250953   1.927   1.102  14.940  0.4795 -0.3985  0.9316
 9821TIP3    H150954   1.909   1.011  14.918 -3.9537  1.0847 -2.3207
 9821TIP3    H250955   2.004   1.124  14.889  1.1074 -2.0832  1.1298
 9822TIP3   OH250956   0.996   4.277  11.844 -0.3859  0.0643  0.4692
 9822TIP3    H150957   0.911   4.252  11.808  0.2166  0.4843 -1.3149
 9822TIP3    H250958   0.974   4.333  11.919 -1.6939  0.8358 -0.4577
 9823TIP3   OH250959   3.487   0.069  13.724 -0.2969  0.4289  0.1162
 9823TIP3    H150960   3.442   0.038  13.802 -0.0466 -0.0702  0.0600
 9823TIP3    H250961   3.461   0.008  13.655 -0.7784  1.0598 -0.2690
 9824TIP3   OH250962   0.683   0.970  16.042  0.1885  0.0902  0.0350
 9824TIP3    H150963   0.677   1.059  16.077  0.6912 -0.9895  3.0128
 9824TIP3    H250964   0.597   0.932  16.060 -0.4990  0.3712 -2.4926
 9825TIP3   OH250965   4.986   3.255   5.947 -0.6786 -0.4381 -0.4911
 9825TIP3    H150966   5.055   3.321   5.943  2.0960 -3.1656  0.2542
 9825TIP3    H250967   4.941   3.271   6.030  2.0733 -1.3967  1.2601
 9826TIP3   OH250968   0.308   3.279   2.200 -0.1195 -0.0291 -0.7924
 9826TIP3    H150969   0.345   3.278   2.112 -0.5156 -0.1941 -0.9534
 9826TIP3    H250970   0.309   3.188   2.228  0.0592  0.0293 -0.6018
 9827TIP3   OH250971   0.600   5.582  15.418  0.1041  0.3209 -0.1557
 9827TIP3    H150972   0.571   5.493  15.399  0.7733 -0.3543  1.7811
 9827TIP3    H250973   0.603   5.626  15.333 -2.7375 -0.7319 -0.8428
 9828TIP3   OH250974   5.319   2.541   1.808  0.5708 -0.2823 -0.3980
 9828TIP3    H150975   5.277   2.537   1.894 -1.1838  1.7138 -1.1504
 9828TIP3    H250976   5.258   2.496   1.749  0.2009  1.2724 -1.2076
 9829TIP3   OH250977   1.920   6.088   0.318 -0.4591  0.1673  1.1975
 9829TIP3    H150978   1.849   6.026   0.336  0.3819 -0.9470  0.7079
 9829TIP3    H250979   1.875   6.172   0.303 -1.7523 -0.7819 -0.3171
 9830TIP3   OH250980   2.116   4.812  12.794  0.1710 -0.7477  0.3461
 9830TIP3    H150981   2.199   4.836  12.836  0.1732 -0.3012  0.0914
 9830TIP3    H250982   2.092   4.728  12.834  1.0981 -1.2248 -0.0764
 9831TIP3   OH250983   5.722   4.663   6.023  0.0977  0.3908  0.1562
 9831TIP3    H150984   5.702   4.606   6.098  2.5402 -0.9317 -0.1541
 9831TIP3    H250985   5.701   4.609   5.947 -1.6299  1.4571 -0.1550
 9832TIP3   OH250986   2.228   4.874   3.970  0.1916  0.4439  0.2764
 9832TIP3    H150987   2.324   4.874   3.969  0.3154  0.6768  4.0161
 9832TIP3    H250988   2.205   4.789   4.009 -1.1834 -0.0389 -1.5295
 9833TIP3   OH250989   1.858   2.927  12.463 -0.1497 -1.1879 -0.4029
 9833TIP3    H150990   1.894   2.840  12.482  0.6455 -1.0054 -1.0125
 9833TIP3    H250991   1.920   2.964  12.400 -1.5179 -0.9379 -1.6398
 9834TIP3   OH250992   0.732   1.384  16.639  0.6425  0.2841 -0.2521
 9834TIP3    H150993   0.804   1.447  16.646  1.7010 -0.8626 -0.7251
 9834TIP3    H250994   0.773   1.302  16.613 -0.8607 -0.3546 -0.7067
 9835TIP3   OH250995   6.541   3.655  16.958 -0.2699 -0.2391  0.0217
 9835TIP3    H150996   6.498   3.574  16.986  0.8471 -0.3767  1.3989
 9835TIP3    H250997   6.569   3.696  17.040  0.7079  0.6731 -0.7664
 9836TIP3   OH250998   3.847   2.425  11.734  0.1841  0.0297 -0.9514
 9836TIP3    H150999   3.868   2.516  11.755  1.5733 -0.5828  0.4103
 9836TIP3    H251000   3.872   2.376  11.812 -1.4377 -1.4183 -1.3103
 9837TIP3   OH251001   1.427   3.538   6.505 -0.5778  0.3045 -0.0733
 9837TIP3    H151002   1.498   3.475   6.520 -1.9777 -1.4391 -0.7524
 9837TIP3    H251003   1.433   3.560   6.412 -0.7400  0.4054 -0.0602
 9838TIP3   OH251004   6.342   2.473   3.280  0.5832 -0.3453 -0.5085
 9838TIP3    H151005   6.389   2.390   3.286  1.9809  0.4317 -0.5763
 9838TIP3    H251006   6.341   2.506   3.370 -1.1603 -1.0478 -0.2289
 9839TIP3   OH251007   2.633   2.520   5.780  0.4533  0.2800 -0.0760
 9839TIP3    H151008   2.688   2.523   5.858 -1.0991 -0.4449  1.0689
 9839TIP3    H251009   2.572   2.594   5.791 -0.7962 -0.7764  0.1919
 9840TIP3   OH251010   2.629   4.751  17.175  0.1846 -0.7084  0.0122
 9840TIP3    H151011   2.643   4.658  17.192  0.4739 -0.8007 -0.6854
 9840TIP3    H251012   2.713   4.792  17.196  0.5684 -0.8353 -1.2434
 9841TIP3   OH251013   5.256   2.831   5.144  0.0301 -0.0658 -0.2476
 9841TIP3    H151014   5.216   2.863   5.063  0.6009  1.1794 -0.0545
 9841TIP3    H251015   5.223   2.890   5.212  0.5939 -0.2721  0.2132
 9842TIP3   OH251016   2.904   0.209  16.163  0.5436  0.7004  0.3610
 9842TIP3    H151017   2.969   0.161  16.111 -0.1068  0.2431 -0.0371
 9842TIP3    H251018   2.821   0.196  16.116 -0.7624 -2.7136  3.3520
 9843TIP3   OH251019   4.770   1.406   4.804  0.8607  0.1651  0.1563
 9843TIP3    H151020   4.736   1.354   4.877 -0.0798  1.8737  0.9809
 9843TIP3    H251021   4.713   1.384   4.730 -0.2253  0.8318  0.7833
 9844TIP3   OH251022   1.667   0.514   4.567 -0.0157 -0.1712 -0.6056
 9844TIP3    H151023   1.637   0.423   4.574 -0.6778 -0.0848 -2.1120
 9844TIP3    H251024   1.754   0.507   4.527 -0.1653 -0.1147 -0.9338
 9845TIP3   OH251025   4.909   5.642  14.121  0.1733 -0.3576  0.4344
 9845TIP3    H151026   4.915   5.683  14.035  0.8177  0.1265  0.7069
 9845TIP3    H251027   4.891   5.550  14.103 -1.1811  0.0238 -0.1780
 9846TIP3   OH251028   2.633   0.578  14.308  0.3703 -0.1412  0.0077
 9846TIP3    H151029   2.728   0.567  14.311  0.8214  3.3648 -0.0891
 9846TIP3    H251030   2.618   0.645  14.241 -2.0899  0.3154  0.9615
 9847TIP3   OH251031   2.414   3.769  12.352  0.1132  0.1095 -0.3776
 9847TIP3    H151032   2.339   3.719  12.383  1.1851 -1.3218 -0.0748
 9847TIP3    H251033   2.394   3.860  12.376 -1.3950 -0.2892 -0.0864
 9848TIP3   OH251034   5.756   0.466   2.069  0.3395 -0.3777 -0.5528
 9848TIP3    H151035   5.842   0.497   2.096  0.0364  2.0426 -2.2362
 9848TIP3    H251036   5.694   0.530   2.104 -0.6225 -1.0101 -1.0481
 9849TIP3   OH251037   4.258   0.747  15.358 -0.2714  0.2935  0.5489
 9849TIP3    H151038   4.303   0.817  15.311 -0.8179  2.4161  3.0820
 9849TIP3    H251039   4.318   0.724  15.428 -0.1356 -1.7730 -0.2158
 9850TIP3   OH251040   5.672   6.389   4.083 -0.1243 -0.2018  0.4679
 9850TIP3    H151041   5.717   6.445   4.146 -3.1148  1.9868  0.7451
 9850TIP3    H251042   5.631   6.321   4.137  0.3725 -0.4961  0.4839
 9851TIP3   OH251043   0.079   5.941   2.135  0.4847 -0.0604  0.7711
 9851TIP3    H151044   0.032   5.963   2.054  0.2864 -0.6071  0.7389
 9851TIP3    H251045   0.032   5.989   2.203 -0.3393 -0.8863  0.7868
 9852TIP3   OH251046   5.053   5.944  10.434  0.0765  0.1114  0.4506
 9852TIP3    H151047   5.055   5.920  10.341  0.4849  0.8923  0.2541
 9852TIP3    H251048   5.136   5.912  10.469 -0.1297 -0.2912  0.5787
 9853TIP3   OH251049   1.671   4.908   2.516 -0.3071  0.6763  0.7535
 9853TIP3    H151050   1.666   4.967   2.591  1.4252  0.9542  0.6540
 9853TIP3    H251051   1.687   4.822   2.554 -3.3640  0.1081  0.9378
 9854TIP3   OH251052   4.131   1.208   4.543 -0.2608 -0.2219  0.1832
 9854TIP3    H151053   4.153   1.115   4.541  1.9844  0.2963 -0.9554
 9854TIP3    H251054   4.051   1.213   4.596 -0.2793 -2.7543  0.4469
 9855TIP3   OH251055   2.400   5.459  15.792  0.3164  0.3060 -0.3404
 9855TIP3    H151056   2.464   5.502  15.850 -1.2965  0.3288  1.4615
 9855TIP3    H251057   2.348   5.531  15.757  0.4915  0.1813 -0.8596
 9856TIP3   OH251058   0.495   4.125   3.401 -0.2371  0.2462  0.2735
 9856TIP3    H151059   0.492   4.090   3.312 -0.1128 -0.8852  0.7014
 9856TIP3    H251060   0.580   4.097   3.435 -0.7964 -0.3884  1.1688
 9857TIP3   OH251061   0.059   3.252  14.187  0.9446 -0.5655  0.0321
 9857TIP3    H151062   0.094   3.334  14.153  0.3976 -0.2575  0.2120
 9857TIP3    H251063  -0.028   3.243  14.148  0.4639 -0.3944  1.0414
 9858TIP3   OH251064   4.630   2.186   2.448  0.3055  0.1870  0.9246
 9858TIP3    H151065   4.674   2.108   2.416 -1.4879 -0.1799 -0.7240
 9858TIP3    H251066   4.655   2.255   2.386  0.5093  0.5400  1.3928
 9859TIP3   OH251067   5.892   3.434   4.987  0.2883 -0.3597  0.8959
 9859TIP3    H151068   5.818   3.373   4.983 -0.5268  0.6512  0.0226
 9859TIP3    H251069   5.970   3.379   4.978 -0.3924 -1.3542  1.0157
 9860TIP3   OH251070   1.755   1.104  16.630 -0.2330  0.1675  0.4634
 9860TIP3    H151071   1.722   1.074  16.715 -1.0830 -0.2098  0.0047
 9860TIP3    H251072   1.719   1.191  16.619 -1.5302 -0.4454 -0.2703
 9861TIP3   OH251073   2.906   1.347   6.717 -0.5056 -0.2273 -0.0970
 9861TIP3    H151074   2.868   1.346   6.805  1.3321  0.5116  0.7488
 9861TIP3    H251075   2.974   1.279   6.720  1.0520  1.2861 -0.2204
 9862TIP3   OH251076   4.712   3.083   5.372  0.4529  0.2790 -0.3029
 9862TIP3    H151077   4.657   3.160   5.383  0.4933 -0.0018  2.0556
 9862TIP3    H251078   4.670   3.032   5.302 -0.9893  1.1720 -0.0899
 9863TIP3   OH251079   2.231   0.659  12.458 -0.2519 -0.8537  0.8088
 9863TIP3    H151080   2.317   0.698  12.474  0.1304 -0.6299 -1.5629
 9863TIP3    H251081   2.192   0.715  12.391 -1.9594 -1.3794  1.3525
 9864TIP3   OH251082   3.848   5.957   1.251 -0.2791 -0.2560 -0.4240
 9864TIP3    H151083   3.862   5.863   1.257  0.0196 -0.2286 -0.6886
 9864TIP3    H251084   3.907   5.995   1.316 -1.3090 -0.3253  0.5692
 9865TIP3   OH251085   3.870   4.274   3.147  0.3416 -0.1434  0.7558
 9865TIP3    H151086   3.855   4.181   3.128 -0.3510 -0.3686  2.3455
 9865TIP3    H251087   3.784   4.308   3.168  0.6781  0.7544  0.6845
 9866TIP3   OH251088   6.208   5.279   2.723  0.0715 -0.3522 -0.0609
 9866TIP3    H151089   6.149   5.232   2.781 -0.3717  0.5887  0.2593
 9866TIP3    H251090   6.264   5.330   2.781  1.3426 -1.3779 -0.3478
 9867TIP3   OH251091   5.445   4.417   4.109 -0.2394  0.1240  0.2150
 9867TIP3    H151092   5.356   4.437   4.138  0.4463 -0.1508  2.6232
 9867TIP3    H251093   5.479   4.500   4.077 -1.2348  0.2987 -0.4339
 9868TIP3   OH251094   2.980   2.926  16.347  0.1779  0.4191  0.0723
 9868TIP3    H151095   2.909   2.866  16.328  0.0144  0.6973 -0.1967
 9868TIP3    H251096   2.956   2.966  16.431  0.3953 -0.0486  0.3577
 9869TIP3   OH251097   2.488   1.853   0.605  0.4346  0.5328 -0.2813
 9869TIP3    H151098   2.536   1.930   0.573  0.2164  0.4773 -0.7470
 9869TIP3    H251099   2.423   1.836   0.538 -0.2034  0.5728  0.3217
 9870TIP3   OH251100   6.668   4.441  13.061 -0.1591 -0.3783  0.2399
 9870TIP3    H151101   6.714   4.444  13.144 -1.6297  0.8438  1.0399
 9870TIP3    H251102   6.577   4.421  13.084 -0.9336  1.6318 -0.8934
 9871TIP3   OH251103   0.194   3.818   1.314 -0.9357 -0.1596 -0.6904
 9871TIP3    H151104   0.218   3.762   1.389  1.1375  0.6747 -0.6788
 9871TIP3    H251105   0.128   3.878   1.349 -0.1771  0.0525  0.4146
 9872TIP3   OH251106   2.250   3.768  14.411  0.5266 -0.8841 -0.5784
 9872TIP3    H151107   2.201   3.705  14.465 -0.1974  0.7200  0.6740
 9872TIP3    H251108   2.217   3.755  14.323 -0.4144 -1.4869 -0.1437
 9873TIP3   OH251109   4.747   2.406   3.681 -0.0154  0.3357 -0.2858
 9873TIP3    H151110   4.832   2.367   3.662  0.0732  0.6687 -0.5995
 9873TIP3    H251111   4.758   2.447   3.767  0.1956  0.5132 -0.3948
 9874TIP3   OH251112   6.316   1.208  16.330 -0.7000 -0.8229 -0.1460
 9874TIP3    H151113   6.373   1.204  16.407  0.3702  0.7290 -0.8387
 9874TIP3    H251114   6.375   1.200  16.255 -0.9751  3.4477 -0.9652
 9875TIP3   OH251115   5.714   1.714  13.369 -0.0505 -0.3787  0.4699
 9875TIP3    H151116   5.661   1.734  13.446  2.7750 -0.0063  2.4313
 9875TIP3    H251117   5.764   1.794  13.352  0.6986 -1.0501 -0.5906
 9876TIP3   OH251118   4.670   6.759  14.604  0.6113  0.2276  0.1250
 9876TIP3    H151119   4.621   6.722  14.531  3.1000 -0.9605 -0.9783
 9876TIP3    H251120   4.630   6.845  14.619 -0.6917 -0.0207 -1.8241
 9877TIP3   OH251121   4.311   0.995   6.302  0.1061  0.1625 -0.1330
 9877TIP3    H151122   4.400   0.994   6.337  0.4531  2.2902 -0.8781
 9877TIP3    H251123   4.301   0.909   6.261  1.9470  0.0088 -0.3099
 9878TIP3   OH251124   3.356   5.731   1.132  0.5218 -0.8362 -0.0833
 9878TIP3    H151125   3.432   5.732   1.190 -1.4649  2.1634  2.6416
 9878TIP3    H251126   3.378   5.792   1.062  0.7447 -0.1526  0.5730
 9879TIP3   OH251127   2.827   4.515  14.278 -0.1192  0.0636 -0.4662
 9879TIP3    H151128   2.777   4.581  14.326  0.3836  0.1318 -0.0355
 9879TIP3    H251129   2.904   4.561  14.246 -1.2032  0.3907 -2.6651
 9880TIP3   OH251130   1.410   2.177  11.922  0.2669 -0.4606  0.0601
 9880TIP3    H151131   1.410   2.244  11.990 -2.4375 -0.5259  0.1994
 9880TIP3    H251132   1.411   2.094  11.970 -0.8713 -0.5030  0.0355
 9881TIP3   OH251133   4.844   4.227  17.130  0.3580  0.3898  0.2081
 9881TIP3    H151134   4.931   4.259  17.154  1.2272 -0.7667 -1.2976
 9881TIP3    H251135   4.861   4.159  17.065 -1.6336 -0.5299  0.6155
 9882TIP3   OH251136   1.068   0.464  13.918 -0.0578  0.6488 -0.3228
 9882TIP3    H151137   1.055   0.535  13.982  0.6295  0.2734  0.2472
 9882TIP3    H251138   1.019   0.391  13.954  0.1019  0.5208 -0.3637
 9883TIP3   OH251139   2.383   4.822   6.708  0.2183  0.0417  0.8119
 9883TIP3    H151140   2.390   4.882   6.782  0.8398 -0.4108  1.1256
 9883TIP3    H251141   2.364   4.878   6.633 -0.6750  0.4791  1.3510
 9884TIP3   OH251142   4.920   0.030   3.108  0.4472 -0.1074  0.1152
 9884TIP3    H151143   4.990   0.056   3.049 -0.0847  2.1356  0.4321
 9884TIP3    H251144   4.860  -0.021   3.054  0.8846  0.3841 -0.8353
 9885TIP3   OH251145   0.851   6.009  13.704 -0.0267  0.6981  0.3130
 9885TIP3    H151146   0.793   6.085  13.708 -0.3972  0.4156  0.3121
 9885TIP3    H251147   0.898   6.019  13.622 -0.0071  0.9780  0.3570
 9886TIP3   OH251148   2.430   5.193  14.916  0.6034  0.1076 -0.0477
 9886TIP3    H151149   2.494   5.188  14.845 -0.5078  1.4671 -1.1629
 9886TIP3    H251150   2.474   5.243  14.985  1.1466  0.0673 -0.3659
 9887TIP3   OH251151   4.243   3.639   5.142  0.1414  0.0603 -0.5209
 9887TIP3    H151152   4.307   3.584   5.097 -0.2378 -2.6033  2.0727
 9887TIP3    H251153   4.163   3.588   5.143 -0.6566  1.2898  0.6026
 9888TIP3   OH251154   3.784   1.068  15.810 -0.1176  1.0521 -0.0211
 9888TIP3    H151155   3.781   1.026  15.896  0.6237  3.9828  1.4686
 9888TIP3    H251156   3.838   1.009  15.757  0.3917 -0.1942  1.8395
 9889TIP3   OH251157   2.103   0.446   4.253  0.2555  0.1859 -0.1923
 9889TIP3    H151158   2.046   0.523   4.252  0.3784  0.2911  0.5285
 9889TIP3    H251159   2.158   0.456   4.175  0.9635  1.3618  0.4439
 9890TIP3   OH251160   2.538   1.770  12.306 -0.0758  0.2716  0.3188
 9890TIP3    H151161   2.633   1.780  12.301  0.0143 -1.4962 -2.1874
 9890TIP3    H251162   2.525   1.695  12.363  0.2301 -1.9007 -2.3630
 9891TIP3   OH251163   4.643   1.774  16.306 -0.0224 -0.3823  0.2787
 9891TIP3    H151164   4.562   1.772  16.255  0.8284 -1.3679 -1.0895
 9891TIP3    H251165   4.620   1.820  16.387 -2.0538 -1.0454  0.1049
 9892TIP3   OH251166   6.176   6.002   1.198 -0.0243  0.5006 -0.8467
 9892TIP3    H151167   6.205   6.089   1.227  1.3475  0.0833 -0.9553
 9892TIP3    H251168   6.251   5.945   1.214 -0.4431 -0.4075 -2.0457
 9893TIP3   OH251169   3.183   5.007   5.682  0.3289  0.2028  0.2928
 9893TIP3    H151170   3.196   5.016   5.777  1.1721 -0.3605  0.2353
 9893TIP3    H251171   3.159   4.916   5.670  1.0093  0.0702 -0.1115
 9894TIP3   OH251172   0.694   6.812   5.139  0.4198 -0.4227  0.0666
 9894TIP3    H151173   0.600   6.793   5.139  0.2281  0.4753 -0.9111
 9894TIP3    H251174   0.736   6.727   5.153 -0.4459 -1.4540 -3.1484
 9895TIP3   OH251175   1.419   2.178   3.133  0.2053  0.6286 -0.0239
 9895TIP3    H151176   1.413   2.160   3.039 -1.7380  1.1508 -0.0275
 9895TIP3    H251177   1.475   2.109   3.167 -1.0332 -1.0054 -1.2108
 9896TIP3   OH251178   0.497   6.605  16.376 -0.1102 -0.1718  0.1990
 9896TIP3    H151179   0.406   6.580  16.389 -0.2318  0.2545  0.1972
 9896TIP3    H251180   0.548   6.541  16.426 -0.3969 -0.5673 -0.0144
 9897TIP3   OH251181   1.499   3.120   5.336 -0.1536  0.1556  0.4452
 9897TIP3    H151182   1.513   3.202   5.287  0.9028 -1.0970 -1.4071
 9897TIP3    H251183   1.579   3.111   5.388 -0.8806  1.0189  1.7164
 9898TIP3   OH251184   5.714   4.508  14.880  0.4539 -0.3618 -0.1279
 9898TIP3    H151185   5.706   4.592  14.924  1.3883  0.3621 -1.2959
 9898TIP3    H251186   5.803   4.478  14.900  0.8938 -0.0238 -1.4450
 9899TIP3   OH251187   2.501   3.208  15.682 -0.2836  0.5373 -0.5405
 9899TIP3    H151188   2.493   3.113  15.683  0.6385  0.4368  1.5952
 9899TIP3    H251189   2.411   3.240  15.681 -0.6312 -0.3765  0.6668
 9900TIP3   OH251190   0.427   4.120  11.760 -0.2730  0.4554  0.2151
 9900TIP3    H151191   0.427   4.170  11.842  1.4687  0.2338  0.3612
 9900TIP3    H251192   0.426   4.028  11.788 -0.4776  0.3794 -0.0337
 9901TIP3   OH251193   0.771   1.437   4.007  0.4256 -0.2493  0.1694
 9901TIP3    H151194   0.687   1.454   4.049  0.0527  1.3806 -1.2058
 9901TIP3    H251195   0.758   1.357   3.956 -0.9272  1.1787 -1.7507
 9902TIP3   OH251196   0.380   6.262  12.102 -0.1442  0.0903 -0.5922
 9902TIP3    H151197   0.390   6.356  12.086  3.7660  0.2528  2.1364
 9902TIP3    H251198   0.344   6.256  12.190  2.6531 -0.9346  0.5346
 9903TIP3   OH251199   3.130   3.923  11.914  0.2367 -0.1166 -0.5666
 9903TIP3    H151200   3.060   3.985  11.935  0.0016 -0.0799 -1.4803
 9903TIP3    H251201   3.099   3.839  11.947 -0.9521 -0.4245 -2.4501
 9904TIP3   OH251202   1.557   3.550   0.918  0.2947  0.0185  0.3248
 9904TIP3    H151203   1.516   3.636   0.922  0.1101 -0.0829  0.6447
 9904TIP3    H251204   1.513   3.505   0.846 -1.0770 -0.5582  1.5049
 9905TIP3   OH251205   5.842   0.213   5.677  0.2832  0.2708 -0.2457
 9905TIP3    H151206   5.873   0.188   5.590 -1.3823 -0.7837 -0.5508
 9905TIP3    H251207   5.913   0.186   5.736 -0.1150 -2.3687 -0.9200
 9906TIP3   OH251208   5.766   4.328  16.681  0.2595  0.1255 -0.4815
 9906TIP3    H151209   5.805   4.387  16.617  1.3502 -1.4118 -1.2701
 9906TIP3    H251210   5.840   4.295  16.732 -0.3951 -0.1428  0.3095
 9907TIP3   OH251211   5.835   6.530  13.859 -0.4519 -0.4275  0.0448
 9907TIP3    H151212   5.891   6.607  13.869  0.3554 -1.1676  1.4160
 9907TIP3    H251213   5.896   6.458  13.841 -1.1856 -0.7852 -1.0837
 9908TIP3   OH251214   2.816   2.794   2.455 -0.3029  0.1423 -0.2581
 9908TIP3    H151215   2.882   2.738   2.414  0.4553 -0.5850  1.8873
 9908TIP3    H251216   2.786   2.744   2.531 -2.5186  0.9595 -0.5587
 9909TIP3   OH251217   0.524   3.772  12.047 -0.3962  0.8588 -0.1540
 9909TIP3    H151218   0.497   3.863  12.060 -0.9404  0.4254  2.0063
 9909TIP3    H251219   0.618   3.778  12.027 -0.8242  1.9919 -1.9929
 9910TIP3   OH251220   1.672   4.215  12.289 -0.2292 -0.3328  0.0861
 9910TIP3    H151221   1.740   4.280  12.308 -0.0418 -1.2261  2.7251
 9910TIP3    H251222   1.599   4.239  12.346 -1.6982 -0.0949 -1.8448
 9911TIP3   OH251223   1.152   5.273   1.695  0.2530  0.1836  0.0742
 9911TIP3    H151224   1.142   5.298   1.787 -2.4614 -2.9485  0.7402
 9911TIP3    H251225   1.067   5.292   1.655  0.3079 -1.5965 -0.9487
 9912TIP3   OH251226   2.718   6.171   1.749  0.2906  0.2332 -0.2181
 9912TIP3    H151227   2.645   6.135   1.698 -0.4604 -0.8535  1.5999
 9912TIP3    H251228   2.783   6.101   1.749 -0.8150 -0.8405  2.5823
 9913TIP3   OH251229   5.624   6.048  16.930  0.1205  0.0421  0.0455
 9913TIP3    H151230   5.652   5.970  16.882  3.4754  1.5320 -0.5836
 9913TIP3    H251231   5.561   6.091  16.873 -0.7662 -1.5255 -0.1713
 9914TIP3   OH251232   2.201   3.743  17.198  0.3819 -0.3955  0.2351
 9914TIP3    H151233   2.224   3.825  17.241  0.0536 -0.0144 -0.3086
 9914TIP3    H251234   2.281   3.690  17.202 -0.5393 -1.6325  4.1631
 9915TIP3   OH251235   6.640   2.281  17.173 -0.3010  0.1775  0.4408
 9915TIP3    H151236   6.566   2.224  17.196 -0.7108  0.5627  0.0918
 9915TIP3    H251237   6.694   2.284  17.252 -0.3999 -0.5014  0.5399
 9916TIP3   OH251238   5.463   2.080   5.774  0.4116  0.4380  0.5037
 9916TIP3    H151239   5.531   2.017   5.797 -0.5776  0.0941  2.6655
 9916TIP3    H251240   5.508   2.164   5.766  1.9916 -0.6814 -3.8439
 9917TIP3   OH251241   3.682   1.842  14.591 -0.1029  0.1605 -0.4574
 9917TIP3    H151242   3.705   1.931  14.618 -2.3165 -0.0847  2.3995
 9917TIP3    H251243   3.741   1.786  14.641 -1.3316 -0.1252  0.6829
 9918TIP3   OH251244   5.666   3.528   4.006  0.4901  0.9403  0.2915
 9918TIP3    H151245   5.627   3.560   4.087  0.4028  1.6927 -0.0323
 9918TIP3    H251246   5.600   3.548   3.939  0.6540  0.5305  0.0046
 9919TIP3   OH251247   2.504   6.679  15.649  0.4372  0.2113  0.3072
 9919TIP3    H151248   2.528   6.757  15.699 -0.0157  0.8976 -0.5332
 9919TIP3    H251249   2.437   6.709  15.588  1.5612 -0.4153 -1.2729
 9920TIP3   OH251250   0.568   5.033  12.124 -0.2509 -0.3192  0.4700
 9920TIP3    H151251   0.496   5.008  12.066  1.0090  0.7535 -1.6281
 9920TIP3    H251252   0.617   5.098  12.074  1.2229  0.2026  2.5307
 9921TIP3   OH251253   5.046   4.967  15.695  0.1451  0.2198 -0.2233
 9921TIP3    H151254   5.031   5.033  15.762 -2.2202 -0.6238  0.1298
 9921TIP3    H251255   5.099   5.012  15.629 -0.0095  1.9583  0.8015
 9922TIP3   OH251256   4.331   1.068  10.560 -0.2450 -0.4215  0.2187
 9922TIP3    H151257   4.270   1.066  10.634 -1.6242 -0.7842 -0.8928
 9922TIP3    H251258   4.350   0.976  10.541  1.3683 -0.2932  1.1101
 9923TIP3   OH251259   5.707   0.829   2.163 -1.3480  0.4476  0.5872
 9923TIP3    H151260   5.796   0.796   2.172 -1.7830 -1.0771 -0.6612
 9923TIP3    H251261   5.666   0.810   2.248 -0.7383  0.4087  0.8765
 9924TIP3   OH251262   0.369   6.205  13.693 -0.3139  0.3795  0.3353
 9924TIP3    H151263   0.292   6.249  13.731  0.5155  0.8323  1.5282
 9924TIP3    H251264   0.352   6.111  13.707 -0.4772  0.4957  0.9344
 9925TIP3   OH251265   4.070   3.082  14.162 -0.0637  0.1300 -0.7046
 9925TIP3    H151266   4.123   3.002  14.163  0.1505  0.2700 -0.3983
 9925TIP3    H251267   4.077   3.115  14.252 -1.5897 -0.4477 -0.3577
 9926TIP3   OH251268   1.052   1.701  11.136 -0.0007 -0.3171 -0.4350
 9926TIP3    H151269   0.982   1.766  11.135 -1.7616 -2.1873 -1.1115
 9926TIP3    H251270   1.121   1.742  11.189 -2.6449  0.5082  2.5877
 9927TIP3   OH251271   2.261   1.093  13.529 -0.0796 -0.0990 -0.0608
 9927TIP3    H151272   2.197   1.141  13.476 -1.7252 -1.7573  0.3807
 9927TIP3    H251273   2.208   1.042  13.591  1.7777  1.5612  3.0332
 9928TIP3   OH251274   2.515   0.455   4.586 -0.2906  0.1643 -0.2900
 9928TIP3    H151275   2.607   0.431   4.573  0.0180 -0.2304  2.4154
 9928TIP3    H251276   2.479   0.384   4.639 -1.0703  2.4221  2.2821
 9929TIP3   OH251277   0.874   0.228  12.510 -0.1938 -0.2917 -0.0100
 9929TIP3    H151278   0.789   0.215  12.469 -0.9625 -1.0766  1.7801
 9929TIP3    H251279   0.858   0.291  12.580  0.3331 -1.6546  1.3867
 9930TIP3   OH251280   0.785   5.711   2.342  0.4387  0.1513  0.3429
 9930TIP3    H151281   0.723   5.663   2.397 -1.0096  0.4418 -0.9991
 9930TIP3    H251282   0.769   5.803   2.363  0.8519  0.1963  0.4537
 9931TIP3   OH251283   4.693   4.983   1.329  0.1622  0.5926  0.5145
 9931TIP3    H151284   4.600   4.964   1.318  0.4873 -1.1805  0.6798
 9931TIP3    H251285   4.708   4.979   1.423  0.5923 -0.0773  0.4212
 9932TIP3   OH251286   0.049   5.258  16.388  0.2092  0.3309  0.1027
 9932TIP3    H151287  -0.021   5.305  16.342 -0.1387 -0.1106  0.1698
 9932TIP3    H251288   0.008   5.175  16.415  0.8780 -0.1124 -0.2260
 9933TIP3   OH251289   6.015   6.609  14.857 -0.0132 -0.4393  0.5333
 9933TIP3    H151290   5.949   6.598  14.925  1.0798  0.8722  1.8513
 9933TIP3    H251291   5.974   6.575  14.777 -1.4341 -1.6948  1.7735
 9934TIP3   OH251292   5.527   0.089   2.856 -0.5201  0.8922 -0.2538
 9934TIP3    H151293   5.504   0.020   2.919  0.5585 -0.3522 -1.1972
 9934TIP3    H251294   5.614   0.065   2.824  1.0490  4.1194  1.3217
 9935TIP3   OH251295   6.769   5.774   4.303 -0.7712  0.6523  0.3244
 9935TIP3    H151296   6.832   5.835   4.266 -1.3166  1.1409  0.2035
 9935TIP3    H251297   6.810   5.688   4.292  0.4981  1.0847  1.5042
 9936TIP3   OH251298   2.529   0.890   3.721  0.3289 -0.0184  0.0527
 9936TIP3    H151299   2.441   0.909   3.689  0.4385  0.5395  0.0760
 9936TIP3    H251300   2.558   0.972   3.762  1.1960  0.0825 -0.7356
 9937TIP3   OH251301   3.395   3.430   3.672  0.2066 -0.4624 -0.5623
 9937TIP3    H151302   3.470   3.385   3.633  1.2061  0.1831  0.6063
 9937TIP3    H251303   3.385   3.391   3.759 -2.4205 -2.3530 -1.6264
 9938TIP3   OH251304   5.811   5.097  16.810 -0.1174 -0.6183  0.0463
 9938TIP3    H151305   5.896   5.133  16.835 -1.2846  0.0787  3.1765
 9938TIP3    H251306   5.814   5.006  16.837 -0.2571 -0.6805 -0.1397
 9939TIP3   OH251307   5.165   5.331   2.892  0.1588 -0.5009  0.3331
 9939TIP3    H151308   5.214   5.281   2.958  0.2362 -1.7547 -0.6556
 9939TIP3    H251309   5.225   5.337   2.817  0.0798  0.9347  0.3722
 9940TIP3   OH251310   6.430   5.162   4.065  0.5540 -0.2930  0.3257
 9940TIP3    H151311   6.451   5.134   4.154 -1.0999  0.9667  1.1265
 9940TIP3    H251312   6.367   5.097   4.035  0.6292 -0.3512  0.2911
 9941TIP3   OH251313   0.114   4.985   1.746 -0.1654 -0.1603  0.6219
 9941TIP3    H151314   0.065   5.038   1.809 -2.5134  2.0464 -2.8830
 9941TIP3    H251315   0.078   4.897   1.755 -1.8827  0.5582  1.0458
 9942TIP3   OH251316   1.209   0.186  10.849  0.3762  0.0209 -0.3114
 9942TIP3    H151317   1.270   0.141  10.907 -0.6016 -0.3929  0.3921
 9942TIP3    H251318   1.168   0.116  10.798  0.5327  0.3021 -0.8232
 9943TIP3   OH251319   4.629   3.522  13.474  0.5015 -0.8293 -0.3386
 9943TIP3    H151320   4.724   3.517  13.462  0.7414  1.0061  0.6014
 9943TIP3    H251321   4.617   3.546  13.566 -0.8554 -0.6806 -0.5406
 9944TIP3   OH251322   0.621   3.764   2.149 -0.2503  0.9939 -0.0663
 9944TIP3    H151323   0.574   3.838   2.110  0.1171  0.1996 -2.0983
 9944TIP3    H251324   0.554   3.711   2.191 -0.3836  3.0968  2.5370
 9945TIP3   OH251325   5.771   4.223  15.573  0.6375 -0.0463  0.3423
 9945TIP3    H151326   5.735   4.136  15.588 -0.6249  0.2655 -0.8266
 9945TIP3    H251327   5.804   4.220  15.483 -0.5882  1.0839 -0.1453
 9946TIP3   OH251328   6.589   0.627  11.647  0.2282  0.1308 -0.2326
 9946TIP3    H151329   6.495   0.642  11.654  0.3982  0.5101  1.3865
 9946TIP3    H251330   6.617   0.684  11.575 -1.1557 -1.8407 -2.4122
 9947TIP3   OH251331   5.023   4.069   0.128 -0.3336 -0.2673  0.1031
 9947TIP3    H151332   5.038   4.063   0.034  1.8056  2.8751  0.1957
 9947TIP3    H251333   5.006   4.162   0.145 -1.1410 -0.8406  2.7741
 9948TIP3   OH251334   1.280   4.579  11.108  0.3693 -0.0157 -0.0351
 9948TIP3    H151335   1.206   4.555  11.164 -0.0184  2.1879  0.4161
 9948TIP3    H251336   1.240   4.624  11.034  1.1538 -0.1760 -0.5663
 9949TIP3   OH251337   2.784   6.195  15.882 -0.3933  0.4678 -0.5786
 9949TIP3    H151338   2.748   6.264  15.826  0.3938 -0.8165 -2.7102
 9949TIP3    H251339   2.709   6.137  15.899 -0.3894  0.2952 -1.1575
 9950TIP3   OH251340   0.081   1.864  13.436  0.2468  0.1908  0.4045
 9950TIP3    H151341   0.134   1.942  13.450  0.3330  0.1028  0.5775
 9950TIP3    H251342   0.104   1.806  13.509 -0.3548  0.2956  0.6786
 9951TIP3   OH251343   5.001   3.553  16.079 -0.3617  0.1238 -0.7183
 9951TIP3    H151344   5.045   3.607  16.145 -1.6927  1.1604 -0.6621
 9951TIP3    H251345   5.071   3.524  16.021  0.9032 -1.1470  1.3780
 9952TIP3   OH251346   1.286   1.298  15.786  0.0850  0.1236  0.4220
 9952TIP3    H151347   1.275   1.217  15.737 -0.3840  0.7704 -0.5692
 9952TIP3    H251348   1.316   1.362  15.721 -0.1483  0.9012  1.0623
 9953TIP3   OH251349   0.344   5.914  17.046  0.4068  0.4291 -0.1586
 9953TIP3    H151350   0.337   5.840  17.106  1.8941  1.0114  0.7483
 9953TIP3    H251351   0.276   5.975  17.075 -2.4013 -1.5208 -2.3404
 9954TIP3   OH251352   4.843   3.631  16.532 -0.1083 -0.1092  0.0353
 9954TIP3    H151353   4.812   3.542  16.513 -0.3285  0.0730 -0.4894
 9954TIP3    H251354   4.924   3.618  16.582 -1.0159 -0.5892  1.3957
 9955TIP3   OH251355   0.150   5.913  11.861 -0.4673 -0.1108  0.6717
 9955TIP3    H151356   0.155   5.818  11.871  0.6758 -0.2789 -1.3180
 9955TIP3    H251357   0.226   5.947  11.909 -0.7864 -0.2097  1.2476
 9956TIP3   OH251358   6.707   1.656  13.829  0.2911 -0.5703 -0.6243
 9956TIP3    H151359   6.639   1.620  13.886 -0.8515  0.2376 -1.4554
 9956TIP3    H251360   6.701   1.751  13.841  0.7312 -0.4529 -1.3207
 9957TIP3   OH251361   0.896   5.937   3.362 -0.3331 -0.8661 -0.1770
 9957TIP3    H151362   0.915   5.863   3.419  1.2854 -0.4353 -0.1554
 9957TIP3    H251363   0.848   5.998   3.418 -0.3622 -1.2402  0.2118
 9958TIP3   OH251364   1.174   2.813  16.061  0.2833  0.1254  0.4456
 9958TIP3    H151365   1.160   2.792  15.969 -1.2784 -0.3455  0.7650
 9958TIP3    H251366   1.108   2.760  16.107 -0.6418  2.2458  1.6305
 9959TIP3   OH251367   5.551   2.928   4.884 -0.0412 -0.6607  0.4387
 9959TIP3    H151368   5.509   2.957   4.965  0.8374  1.5734  0.1184
 9959TIP3    H251369   5.633   2.886   4.912 -0.1693 -0.7012  0.7458
 9960TIP3   OH251370   1.242   2.490  11.318  0.7410 -0.1965 -0.3091
 9960TIP3    H151371   1.202   2.430  11.381  0.0278  0.7639  0.1652
 9960TIP3    H251372   1.334   2.494  11.343  0.1832  1.2701  1.5535
 9961TIP3   OH251373   3.672   6.583  14.552 -0.3277  0.6571 -0.1402
 9961TIP3    H151374   3.685   6.525  14.627 -0.4117  1.5530  0.5776
 9961TIP3    H251375   3.678   6.671  14.589 -0.2584  1.1043 -1.2100
 9962TIP3   OH251376   2.538   4.171   3.131  0.4896  0.2778 -0.1276
 9962TIP3    H151377   2.540   4.250   3.077  2.3741 -0.2778 -0.8867
 9962TIP3    H251378   2.566   4.201   3.218  1.1139  0.4712 -0.3911
 9963TIP3   OH251379   1.224   5.301   1.176  0.3081  0.2164 -0.0413
 9963TIP3    H151380   1.198   5.389   1.147  1.2903  0.5987  0.2084
 9963TIP3    H251381   1.227   5.250   1.095  3.5141  1.4032 -0.7468
 9964TIP3   OH251382   1.773   1.737  15.015 -0.6313  0.0794 -0.4602
 9964TIP3    H151383   1.690   1.772  15.045 -1.5800 -1.3573 -1.3726
 9964TIP3    H251384   1.779   1.764  14.923  0.8970  1.9461  0.1437
 9965TIP3   OH251385   0.379   0.079  12.153 -0.1438  0.2757  0.5215
 9965TIP3    H151386   0.382   0.175  12.150  2.4436  0.2127  0.2625
 9965TIP3    H251387   0.381   0.051  12.062 -0.3945 -0.0632  0.6157
 9966TIP3   OH251388   1.224   1.897  11.777 -0.0975  0.2064  0.7012
 9966TIP3    H151389   1.222   1.900  11.872 -2.6831 -1.9784  0.7841
 9966TIP3    H251390   1.219   1.988  11.749  0.1028  0.8179  2.6293
 9967TIP3   OH251391   5.858   4.507  11.993  0.0955 -0.0607  0.6688
 9967TIP3    H151392   5.871   4.595  12.028  2.0215 -0.4595  1.0239
 9967TIP3    H251393   5.787   4.471  12.047  0.9125  0.4455  2.1273
 9968TIP3   OH251394   1.698   1.849   5.732 -0.4327  0.2824 -0.3134
 9968TIP3    H151395   1.615   1.801   5.731 -0.2375 -0.0506 -0.5828
 9968TIP3    H251396   1.757   1.793   5.782  0.0101 -0.1176 -1.2680
 9969TIP3   OH251397   6.502   5.016  13.810 -0.0333  0.1879 -0.6377
 9969TIP3    H151398   6.532   4.933  13.848  0.0644  0.7374  0.4898
 9969TIP3    H251399   6.424   5.038  13.860  1.4455  2.1436  0.8862
 9970TIP3   OH251400   5.805   3.561   2.030  0.8864  0.0179 -0.5916
 9970TIP3    H151401   5.881   3.616   2.009 -0.2110  0.9811 -2.2315
 9970TIP3    H251402   5.798   3.565   2.125  2.1110  0.9781 -0.5212
 9971TIP3   OH251403   6.493   5.355   0.863  0.3372  0.0133 -0.0953
 9971TIP3    H151404   6.420   5.369   0.803  0.4396  0.4209 -0.1233
 9971TIP3    H251405   6.453   5.343   0.949  0.2360  0.1269 -0.1284
 9972TIP3   OH251406   1.492   0.897  13.978  0.1685 -0.2480 -0.3588
 9972TIP3    H151407   1.431   0.836  14.021  0.3209 -0.5976 -0.6306
 9972TIP3    H251408   1.443   0.928  13.901  0.4601 -0.8011 -0.7714
 9973TIP3   OH251409   2.376   0.132  15.747  0.2963 -0.5652  0.0993
 9973TIP3    H151410   2.334   0.070  15.806  0.2042 -1.8945 -1.3188
 9973TIP3    H251411   2.304   0.171  15.697  0.2985  1.1591  1.3984
 9974TIP3   OH251412   1.361   4.815   0.599 -0.5958  0.0278 -0.5704
 9974TIP3    H151413   1.345   4.757   0.525 -2.5796  0.3950 -0.4359
 9974TIP3    H251414   1.388   4.757   0.670 -0.3273 -0.4813 -1.0780
 9975TIP3   OH251415   2.781   5.225  17.043 -0.5769  0.3316  0.3502
 9975TIP3    H151416   2.856   5.267  17.001 -0.2130  1.0083  1.6728
 9975TIP3    H251417   2.706   5.252  16.989 -0.1632  1.4889  0.3344
 9976TIP3   OH251418   3.766   4.085   2.665  0.4629  0.2158 -0.0712
 9976TIP3    H151419   3.750   4.055   2.575 -1.5411  0.4659  0.1665
 9976TIP3    H251420   3.679   4.112   2.697  1.2918  0.9510  1.6427
 9977TIP3   OH251421   5.381   5.514   2.733 -0.0517 -0.5069  0.2257
 9977TIP3    H151422   5.297   5.559   2.722  0.5385  0.5604  0.0463
 9977TIP3    H251423   5.396   5.514   2.828 -1.0791 -2.2561  0.4210
 9978TIP3   OH251424   3.477   2.206  16.700 -0.4806 -0.2556 -0.2555
 9978TIP3    H151425   3.465   2.265  16.625 -0.9572  0.3635  0.2968
 9978TIP3    H251426   3.388   2.190  16.732 -0.3427 -1.2110 -0.3494
 9979TIP3   OH251427   3.995   4.305  14.177 -0.2371  0.4100  0.4361
 9979TIP3    H151428   4.045   4.253  14.240  1.5984  2.3212  0.5916
 9979TIP3    H251429   3.920   4.337  14.227  0.3311  0.5569  1.1994
 9980TIP3   OH251430   3.501   4.148  16.423  0.1076  0.2866 -0.6338
 9980TIP3    H151431   3.562   4.090  16.471 -3.0728 -1.7670  1.1024
 9980TIP3    H251432   3.551   4.229  16.410  3.6696 -1.7576 -0.4612
 9981TIP3   OH251433   5.694   3.206   3.759  0.0756 -0.7458  1.1641
 9981TIP3    H151434   5.776   3.250   3.781  0.2098 -0.7644  0.7043
 9981TIP3    H251435   5.719   3.141   3.693 -0.6780  0.7833 -0.6689
 9982TIP3   OH251436   5.923   2.819  12.945  0.0167  0.1288  0.1186
 9982TIP3    H151437   5.849   2.804  12.886  0.6961  2.3395 -1.3363
 9982TIP3    H251438   5.950   2.909  12.928  2.6394 -0.4237  1.0882
 9983TIP3   OH251439   0.561   4.730   5.702 -0.0722 -0.1225 -0.2712
 9983TIP3    H151440   0.531   4.718   5.612 -1.3869 -0.7040  0.2228
 9983TIP3    H251441   0.545   4.645   5.744  0.1846  0.2521  0.6011
 9984TIP3   OH251442   6.009   5.771   4.827 -0.5029  0.1242  0.6190
 9984TIP3    H151443   5.931   5.788   4.774  0.1514  0.2236 -0.3244
 9984TIP3    H251444   6.060   5.852   4.823 -0.5316  0.2049  1.5721
 9985TIP3   OH251445   1.376   6.354  15.243  0.3144 -0.3190  0.0794
 9985TIP3    H151446   1.414   6.339  15.330  1.1202  0.9803 -0.0393
 9985TIP3    H251447   1.323   6.433  15.254  0.4972 -0.0958 -0.6257
 9986TIP3   OH251448   0.681   0.079  13.091  0.6032  0.3543 -0.2514
 9986TIP3    H151449   0.631   0.158  13.111  0.0456 -0.2665  0.9008
 9986TIP3    H251450   0.752   0.108  13.035  0.3242  1.6520  0.0573
 9987TIP3   OH251451   1.705   3.821   2.919 -0.2972  0.3832  0.2533
 9987TIP3    H151452   1.623   3.773   2.908  0.4316 -0.8676  0.1636
 9987TIP3    H251453   1.719   3.865   2.836 -1.2884  1.2520  0.5444
 9988TIP3   OH251454   6.320   4.404  14.761 -0.1706  0.5737 -0.1404
 9988TIP3    H151455   6.353   4.324  14.801 -0.3149 -0.1131 -1.3678
 9988TIP3    H251456   6.375   4.416  14.683 -1.4763  0.5281 -1.0867
 9989TIP3   OH251457   4.620   2.438  15.529 -0.1787  0.0325 -0.2214
 9989TIP3    H151458   4.559   2.366  15.512  0.2863 -0.3266 -0.4034
 9989TIP3    H251459   4.572   2.498  15.585 -1.5297  0.8973 -2.2411
 9990TIP3   OH251460   6.109   6.263   0.971  0.2327  0.2910  0.0461
 9990TIP3    H151461   6.115   6.170   0.993 -0.6695  0.1050 -0.4678
 9990TIP3    H251462   6.186   6.303   1.012  0.9757 -0.7891 -0.2751
 9991TIP3   OH251463   5.136   3.760  15.765 -0.2383 -0.2559  0.2212
 9991TIP3    H151464   5.201   3.710  15.816  1.3681 -0.5928 -2.0734
 9991TIP3    H251465   5.188   3.811  15.703 -2.0950  0.9883 -0.3586
 9992TIP3   OH251466   5.325   2.751  11.899  0.2154 -0.0326  0.6534
 9992TIP3    H151467   5.360   2.767  11.811 -1.2277 -0.3186  0.0224
 9992TIP3    H251468   5.316   2.839  11.937  2.6231 -0.0095  1.2314
 9993TIP3   OH251469   3.077   5.115  16.491  0.6411 -0.0707 -0.5747
 9993TIP3    H151470   3.000   5.157  16.530  0.9911 -0.8567  1.0323
 9993TIP3    H251471   3.042   5.057  16.424 -0.1863 -0.4591  0.1827
 9994TIP3   OH251472   4.388   4.638  16.328  0.0216 -0.1760 -0.1037
 9994TIP3    H151473   4.384   4.694  16.406 -0.6872  0.2317 -0.4249
 9994TIP3    H251474   4.403   4.550  16.362  0.5577  0.1250  0.4440
 9995TIP3   OH251475   1.737   2.127   0.697  0.1208  0.1280 -0.2808
 9995TIP3    H151476   1.672   2.122   0.627 -0.4023  0.3451  0.1833
 9995TIP3    H251477   1.687   2.155   0.774  0.9581  1.3484 -0.1718
 9996TIP3   OH251478   1.844   4.338  12.643  0.0438 -0.2031 -0.1442
 9996TIP3    H151479   1.859   4.373  12.731  1.1116 -1.1288  0.0507
 9996TIP3    H251480   1.862   4.412  12.585 -1.5703  0.6786  0.4428
 9997TIP3   OH251481   4.812   0.160   5.576 -0.7638  0.2613 -0.1415
 9997TIP3    H151482   4.851   0.183   5.491 -1.1644  0.1439 -0.3593
 9997TIP3    H251483   4.818   0.065   5.580 -0.1537  0.3137  0.2527
 9998TIP3   OH251484   4.364   4.963  12.726  0.3880  0.2306  0.8835
 9998TIP3    H151485   4.311   4.895  12.767 -1.0414  0.9161  0.2073
 9998TIP3    H251486   4.306   5.040  12.723  1.6290  1.1710  0.7014
 9999TIP3   OH251487   3.369   2.200   4.609  0.5531  0.6305  0.7084
 9999TIP3    H151488   3.320   2.181   4.689  1.8323  1.4216  1.7026
 9999TIP3    H251489   3.301   2.215   4.543 -0.5214 -0.0745  1.6198
10000TIP3   OH251490   5.983   2.967   3.906 -0.3673  0.7075 -0.4784
10000TIP3    H151491   5.985   2.876   3.875 -0.1260  0.1108  1.2244
10000TIP3    H251492   5.915   2.968   3.973 -0.6723  1.8905 -0.8005
10001TIP3   OH251493   1.608   3.580   0.432 -0.1307 -0.2333  0.7462
10001TIP3    H151494   1.543   3.530   0.383 -0.2056 -1.1979  1.7951
10001TIP3    H251495   1.575   3.670   0.430 -0.4715 -0.3770 -0.3930
10002TIP3   OH251496   4.616   0.315   0.926  0.4987 -0.2967  0.5216
10002TIP3    H151497   4.616   0.220   0.913 -3.3124 -0.3052 -0.1423
10002TIP3    H251498   4.607   0.326   1.020  1.4185 -0.5705  0.6485
10003TIP3   OH251499   0.862   4.630  14.577 -0.0916  0.1254  0.3186
10003TIP3    H151500   0.857   4.549  14.526 -1.1892  0.2712  0.1833
10003TIP3    H251501   0.799   4.618  14.648 -0.7985  1.1501 -0.1258
10004TIP3   OH251502   4.397   5.068  11.801 -0.4537  0.0207 -0.2389
10004TIP3    H151503   4.353   5.011  11.865  1.3035 -2.1166 -0.8772
10004TIP3    H251504   4.442   5.133  11.855  0.2465 -1.2111  0.7103
10005TIP3   OH251505   0.487   3.919   0.492 -0.7055  0.1245 -0.1747
10005TIP3    H151506   0.415   3.856   0.487 -0.6898  0.1312 -0.4842
10005TIP3    H251507   0.501   3.933   0.586 -1.5586  0.6383 -0.1181
10006TIP3   OH251508   0.105   0.756  12.111  0.7253  0.0868  0.0019
10006TIP3    H151509   0.075   0.791  12.027 -0.7308 -0.2595  0.3642
10006TIP3    H251510   0.200   0.768  12.109  0.3478  3.3998 -0.1650
10007TIP3   OH251511   5.324   4.752  13.364  0.0397 -0.2114 -0.0673
10007TIP3    H151512   5.376   4.832  13.372 -0.4305  0.1198 -0.3294
10007TIP3    H251513   5.321   4.734  13.270 -0.3444 -0.2164 -0.0541
10008TIP3   OH251514   0.406   5.866  11.525 -0.2487 -0.6834  0.2843
10008TIP3    H151515   0.324   5.819  11.541  1.1220 -3.7957 -1.3063
10008TIP3    H251516   0.398   5.899  11.435 -0.2525  0.0507  0.5553
10009TIP3   OH251517   2.974   2.481  13.311  0.0117  0.2249  0.7331
10009TIP3    H151518   2.930   2.424  13.374  0.2793 -1.2088 -0.3504
10009TIP3    H251519   2.913   2.554  13.299  0.2011  0.8125  3.0444
10010TIP3   OH251520   2.303   4.719   3.710  0.2466  0.0663 -0.3793
10010TIP3    H151521   2.381   4.754   3.752  0.7564  0.9305 -2.0335
10010TIP3    H251522   2.312   4.624   3.719  1.2725  0.1751 -0.1756
10011TIP3   OH251523   4.184   0.057   2.326  0.2938 -0.7014  0.1927
10011TIP3    H151524   4.260   0.020   2.282  0.5337  2.2869 -1.9764
10011TIP3    H251525   4.220   0.111   2.396  0.0485 -1.8074  1.1854
10012TIP3   OH251526   5.616   6.294  11.384  0.8784  0.4364  0.8609
10012TIP3    H151527   5.600   6.354  11.457 -0.3697 -2.7809  3.3930
10012TIP3    H251528   5.531   6.285  11.341  0.3556 -1.5263  2.2010
10013TIP3   OH251529   2.066   5.703  10.956  0.0098  0.2670 -0.6271
10013TIP3    H151530   2.151   5.691  10.999  0.3267 -0.0004 -1.3054
10013TIP3    H251531   2.062   5.796  10.935  0.3371  0.2026 -0.9896
10014TIP3   OH251532   1.851   3.842   1.810  0.0252  0.0798 -0.3057
10014TIP3    H151533   1.899   3.790   1.874 -1.2719 -0.9057 -0.0920
10014TIP3    H251534   1.890   3.820   1.726  0.1073 -0.5284 -0.1099
10015TIP3   OH251535   0.616   3.292  12.096  0.3073  0.4218  0.0921
10015TIP3    H151536   0.671   3.261  12.168  0.0112  1.2768  0.7054
10015TIP3    H251537   0.589   3.213  12.050  1.1825 -0.0736  0.4310
10016TIP3   OH251538   5.121   0.622   1.461  0.0715 -0.3571 -0.4135
10016TIP3    H151539   5.027   0.604   1.460 -0.0680  0.3926 -1.4911
10016TIP3    H251540   5.160   0.547   1.415 -0.0254 -0.5005 -0.2632
10017TIP3   OH251541   2.026   1.663   5.518  0.4167  0.3688 -0.2653
10017TIP3    H151542   1.965   1.650   5.445  0.7237  0.1913 -0.4927
10017TIP3    H251543   2.027   1.578   5.563  2.2343 -0.3560 -1.6054
10018TIP3   OH251544   6.446   4.881  15.502 -0.1520 -0.2676 -0.0516
10018TIP3    H151545   6.525   4.842  15.465  0.1674  1.2149 -1.0002
10018TIP3    H251546   6.477   4.961  15.545 -0.9430 -0.4399  0.8658
10019TIP3   OH251547   0.820   2.354   3.489  0.5593  0.9866  0.6374
10019TIP3    H151548   0.760   2.337   3.416 -1.1384 -1.4952  2.5342
10019TIP3    H251549   0.772   2.413   3.546 -0.3570 -1.3471  2.3743
10020TIP3   OH251550   2.320   1.326  17.153 -0.1163 -0.1611 -0.1672
10020TIP3    H151551   2.230   1.311  17.182 -0.5296  0.6225 -1.0328
10020TIP3    H251552   2.364   1.242  17.168 -0.5642 -0.0654  1.7878
10021TIP3   OH251553   4.459   2.025   2.131  1.2644 -0.3789  0.1432
10021TIP3    H151554   4.434   1.936   2.105 -1.0879  0.2187  0.1830
10021TIP3    H251555   4.478   2.069   2.049  1.1698 -0.5769  0.0139
10022TIP3   OH251556   6.077   1.822  16.427 -0.3402  0.1597  0.1910
10022TIP3    H151557   6.153   1.843  16.482 -0.8141  0.3956  0.7568
10022TIP3    H251558   6.115   1.797  16.343  0.3023  1.9753 -0.0820
10023TIP3   OH251559   1.355   3.791  14.390 -0.2087  0.6729 -0.1450
10023TIP3    H151560   1.392   3.811  14.476 -0.5852  0.9350 -0.0415
10023TIP3    H251561   1.261   3.781  14.406 -0.3888  1.4686 -0.6524
10024TIP3   OH251562   0.895   3.066   3.299  0.2137  0.7230  0.0936
10024TIP3    H151563   0.850   3.014   3.366  0.7176 -0.2737 -0.3305
10024TIP3    H251564   0.824   3.102   3.246 -0.1372  0.3960  0.3344
10025TIP3   OH251565   3.841   1.904   5.199  0.0655 -0.6328  0.5271
10025TIP3    H151566   3.767   1.902   5.260 -1.6204 -2.4325 -1.4987
10025TIP3    H251567   3.912   1.861   5.246 -1.1433 -1.7936  1.3187
10026TIP3   OH251568   2.763   3.903  12.933  0.2143 -0.2976  0.1590
10026TIP3    H151569   2.772   3.998  12.937  1.3846 -0.2918 -1.9333
10026TIP3    H251570   2.852   3.870  12.923 -0.3305 -1.4626 -1.1679
10027TIP3   OH251571   0.486   5.908   4.578 -0.5460  0.5424  0.3071
10027TIP3    H151572   0.470   5.992   4.535 -1.8278 -0.4903 -1.2733
10027TIP3    H251573   0.547   5.929   4.649 -1.3313  2.8940  0.3157
10028TIP3   OH251574   5.699   2.703  12.740  0.1087  0.0864 -0.9160
10028TIP3    H151575   5.777   2.646  12.743  0.1993  0.2561  0.5802
10028TIP3    H251576   5.647   2.667  12.669  1.4729 -0.1471 -1.8305
10029TIP3   OH251577   6.398   1.371  16.565  0.1509 -0.1538 -0.3244
10029TIP3    H151578   6.491   1.355  16.579  0.5964  2.0136 -0.6907
10029TIP3    H251579   6.394   1.420  16.483 -1.3805 -0.9631 -0.7514
10030TIP3   OH251580   2.088   2.324   3.565 -0.0068 -0.2399  0.9288
10030TIP3    H151581   2.154   2.336   3.633 -0.7613  3.4072  1.1120
10030TIP3    H251582   2.017   2.276   3.608  2.6587 -4.7467  0.5707
10031TIP3   OH251583   1.901   5.317   6.703  0.1290  0.2326  0.0517
10031TIP3    H151584   1.974   5.378   6.688 -0.0655  0.5276  0.3037
10031TIP3    H251585   1.920   5.277   6.787 -0.4750  0.9920  0.5588
10032TIP3   OH251586   5.529   1.916   1.572  0.0245  0.0116 -0.3729
10032TIP3    H151587   5.519   1.824   1.595 -2.4375 -0.4902 -3.1239
10032TIP3    H251588   5.595   1.916   1.502 -0.0400  0.3340 -0.4331
10033TIP3   OH251589   4.403   6.265  16.345  0.6768 -0.1707 -0.4459
10033TIP3    H151590   4.459   6.333  16.306  0.3561  0.6972  0.6132
10033TIP3    H251591   4.343   6.313  16.402 -1.3875 -1.0602 -1.8210
10034TIP3   OH251592   5.153   5.311   1.796  0.0266 -0.4433 -0.0666
10034TIP3    H151593   5.077   5.351   1.839 -0.4701  1.5475 -2.6683
10034TIP3    H251594   5.117   5.236   1.749  0.0245 -0.7214  0.3763
10035TIP3   OH251595   4.795   2.733  11.385 -0.2277 -0.0463  0.0433
10035TIP3    H151596   4.745   2.805  11.347 -0.5496 -0.6862 -0.7604
10035TIP3    H251597   4.729   2.678  11.428  0.0427  0.2600  0.8557
10036TIP3   OH251598   1.466   2.821   1.592 -0.2227  0.2072 -0.1298
10036TIP3    H151599   1.464   2.867   1.675 -0.0939  0.7545 -0.4255
10036TIP3    H251600   1.447   2.730   1.614 -1.0659  0.5107  0.3834
10037TIP3   OH251601   0.317   3.598  16.326  0.3332 -0.2550  1.0536
10037TIP3    H151602   0.366   3.548  16.260 -0.1994  0.1790  0.3177
10037TIP3    H251603   0.343   3.689  16.312 -0.3969 -0.0641  0.8884
10038TIP3   OH251604   2.377   1.226  12.495 -0.2106 -0.1162  0.2412
10038TIP3    H151605   2.301   1.266  12.453 -0.3822 -0.0772  0.5856
10038TIP3    H251606   2.346   1.141  12.526  0.0577 -0.3658 -0.1725
10039TIP3   OH251607   2.302   5.418  15.454 -0.1572  0.9670  0.3215
10039TIP3    H151608   2.246   5.344  15.479  0.0081  1.1927  1.3566
10039TIP3    H251609   2.385   5.402  15.498 -0.3231  2.0915  1.0484
10040TIP3   OH251610   0.878   5.516  11.790  0.2594  0.1537 -0.0162
10040TIP3    H151611   0.974   5.522  11.799  0.2117  1.3470 -0.1830
10040TIP3    H251612   0.845   5.517  11.880  0.2914  2.2286  0.0057
10041TIP3   OH251613   3.737   6.042   2.619  0.0935 -0.5200  0.0054
10041TIP3    H151614   3.676   6.073   2.686 -0.2866 -2.3337  0.5240
10041TIP3    H251615   3.816   6.095   2.632 -1.0628  1.2705 -0.1334
10042TIP3   OH251616   5.216   0.836  13.130 -0.3411  0.4290  0.3164
10042TIP3    H151617   5.212   0.803  13.220 -1.0857 -1.0455 -0.2300
10042TIP3    H251618   5.280   0.779  13.087  1.7083  2.5618  0.4648
10043TIP3   OH251619   4.522   2.667   4.497  0.1215  0.1854 -0.2203
10043TIP3    H151620   4.479   2.722   4.561  0.7354  0.4510 -0.0328
10043TIP3    H251621   4.506   2.710   4.413  2.1193  1.6559  0.1052
10044TIP3   OH251622   2.184   5.412   0.559  0.4559 -0.0578  0.2950
10044TIP3    H151623   2.164   5.391   0.650  1.8216 -2.3386  0.1110
10044TIP3    H251624   2.257   5.473   0.564  1.2202 -0.9856  0.7382
10045TIP3   OH251625   2.094   0.902   1.864 -0.2585 -0.3487 -0.1862
10045TIP3    H151626   2.184   0.920   1.839  0.3061 -1.9148  0.6467
10045TIP3    H251627   2.083   0.942   1.950 -0.1160 -0.8129  0.0507
10046TIP3   OH251628   2.910   3.823   1.669 -0.0936  0.3254  0.4991
10046TIP3    H151629   2.987   3.858   1.714  1.0334 -2.2981  0.6960
10046TIP3    H251630   2.945   3.784   1.589 -0.8609 -2.8718  1.6498
10047TIP3   OH251631   3.290   0.133  17.143 -0.9156  0.5604 -0.2786
10047TIP3    H151632   3.307   0.213  17.094 -2.3287  0.2922 -1.2708
10047TIP3    H251633   3.233   0.160  17.215 -1.2068  0.5008 -0.4814
10048TIP3   OH251634   5.358   3.142  14.385 -0.0620  0.5456  0.2310
10048TIP3    H151635   5.368   3.235  14.407 -1.2586  0.7686 -0.1545
10048TIP3    H251636   5.448   3.111  14.371  0.3229  1.7113  0.0720
10049TIP3   OH251637   5.917   2.866  12.502 -0.1399  0.0401  0.6955
10049TIP3    H151638   5.900   2.929  12.432  0.6015  1.0141  1.3786
10049TIP3    H251639   5.888   2.782  12.466  1.6999  0.2416 -1.3662
10050TIP3   OH251640   4.385   1.276  14.437 -0.3214 -0.4210  0.2927
10050TIP3    H151641   4.461   1.217  14.435 -0.0909 -0.0942 -0.5109
10050TIP3    H251642   4.311   1.219  14.415  0.1038 -0.1074 -2.0357
10051TIP3   OH251643   5.765   2.389  16.889 -0.4310  0.0148 -0.1331
10051TIP3    H151644   5.795   2.298  16.881  0.8344  0.4730 -0.7154
10051TIP3    H251645   5.709   2.389  16.967  0.7474 -0.9619  0.7321
10052TIP3   OH251646   1.000   4.790  11.863  0.6402  0.0743  0.0555
10052TIP3    H151647   0.957   4.837  11.935 -0.6616  1.3814 -1.5382
10052TIP3    H251648   1.092   4.783  11.891  0.5081  2.0917  1.1135
10053TIP3   OH251649   5.502   2.674  13.862 -0.0682 -0.1644 -0.0104
10053TIP3    H151650   5.454   2.638  13.936 -1.7036  2.4495  0.2859
10053TIP3    H251651   5.567   2.732  13.901  0.4360 -0.3489 -0.5624
10054TIP3   OH251652   1.627   1.674  14.489 -0.4776  0.3210 -0.2037
10054TIP3    H151653   1.710   1.711  14.456 -1.2689  2.9989  0.6255
10054TIP3    H251654   1.563   1.693  14.421 -0.7157 -0.3983 -0.1839
10055TIP3   OH251655   5.869   0.475   1.159 -0.0210 -0.2189 -0.2418
10055TIP3    H151656   5.962   0.464   1.140 -0.2707 -1.1814 -0.9282
10055TIP3    H251657   5.866   0.508   1.249  0.8714 -2.8778  0.7823
10056TIP3   OH251658   5.724   4.245  13.533  0.1273  0.4866 -0.3332
10056TIP3    H151659   5.730   4.259  13.627 -1.5894 -0.5908 -0.0454
10056TIP3    H251660   5.726   4.332  13.495 -0.8041  1.0189  0.8100
10057TIP3   OH251661   5.554   2.107   4.848 -0.0887  0.2955  0.3221
10057TIP3    H151662   5.537   2.150   4.764 -0.1802 -0.7432 -0.1936
10057TIP3    H251663   5.603   2.172   4.899  3.4372 -0.4856 -1.9362
10058TIP3   OH251664   3.515   6.016  11.400 -0.1505  0.4184 -0.7283
10058TIP3    H151665   3.566   5.961  11.459 -0.5079  1.2318  0.3590
10058TIP3    H251666   3.565   6.097  11.393 -0.4251  0.5625 -1.0514
10059TIP3   OH251667   2.293   2.281   3.785 -0.0073  0.4250 -0.4076
10059TIP3    H151668   2.209   2.283   3.832 -1.4136  0.9886 -2.8789
10059TIP3    H251669   2.346   2.219   3.835 -0.4030  3.0968  3.5861
10060TIP3   OH251670   5.278   6.474  14.060 -0.0980  0.3709 -0.3577
10060TIP3    H151671   5.261   6.499  13.969 -1.9823 -0.8006 -0.3547
10060TIP3    H251672   5.248   6.550  14.111  0.5914  0.8686 -0.6850
10061TIP3   OH251673   4.578   3.336  14.995  0.3182  0.2905  0.0528
10061TIP3    H151674   4.520   3.370  15.063 -0.1431 -1.3904  0.5042
10061TIP3    H251675   4.541   3.368  14.913 -0.8618 -0.2211  0.3871
10062TIP3   OH251676   5.225   4.114   0.326 -0.0172 -0.2498  0.3885
10062TIP3    H151677   5.165   4.096   0.254 -0.8972 -1.3019  1.3608
10062TIP3    H251678   5.168   4.140   0.399  0.7654 -0.3703  1.0562
10063TIP3   OH251679   5.261   6.166   5.435 -0.3514 -0.3220 -0.2589
10063TIP3    H151680   5.267   6.077   5.402  0.1380 -0.3477 -0.1053
10063TIP3    H251681   5.197   6.209   5.378 -0.1441 -0.6019 -0.6974
10064TIP3   OH251682   4.154   0.466  11.465 -0.0749  0.6830  0.3159
10064TIP3    H151683   4.132   0.471  11.558  0.9830 -0.0484  0.6268
10064TIP3    H251684   4.248   0.444  11.464  0.0897  1.3862 -0.9251
10065TIP3   OH251685   2.536   3.483  15.922  0.2853 -0.5013  0.0837
10065TIP3    H151686   2.441   3.477  15.910 -0.0017 -0.0211  1.9572
10065TIP3    H251687   2.564   3.393  15.942  0.1587 -0.5646 -0.0258
10066TIP3   OH251688   6.520   3.677   4.078  0.1138 -0.2046  0.2497
10066TIP3    H151689   6.582   3.669   4.150  0.7764  0.0231 -0.2948
10066TIP3    H251690   6.446   3.725   4.116  0.8655  0.7578  0.5291
10067TIP3   OH251691   2.583   0.498   0.820 -0.3819 -0.8320  0.1290
10067TIP3    H151692   2.519   0.546   0.768  0.0403 -0.1615  0.2240
10067TIP3    H251693   2.667   0.538   0.798 -0.1695 -0.6961  1.1357
10068TIP3   OH251694   3.127   0.625   4.562  0.0493 -0.1545 -0.5789
10068TIP3    H151695   3.202   0.600   4.508  0.1646  1.1764 -1.0562
10068TIP3    H251696   3.077   0.686   4.508 -1.2288 -0.7943 -0.1521
10069TIP3   OH251697   3.890   5.904  15.731  0.8516 -0.5104 -0.2484
10069TIP3    H151698   3.943   5.976  15.695 -0.2055 -0.7803 -2.3840
10069TIP3    H251699   3.917   5.827  15.681 -0.2618 -0.9981 -0.1047
10070TIP3   OH251700   0.724   0.286  13.385 -0.0901  0.1339 -0.0536
10070TIP3    H151701   0.810   0.327  13.380 -0.7883  1.7003  0.5046
10070TIP3    H251702   0.737   0.210  13.442  1.0880 -0.0695 -0.5884
10071TIP3   OH251703   5.819   5.335  14.470  0.3359  0.2224  0.2536
10071TIP3    H151704   5.908   5.369  14.468  1.2283 -1.8869  2.1793
10071TIP3    H251705   5.829   5.240  14.471 -1.9502 -0.0559 -0.1322
10072TIP3   OH251706   1.167   1.632   2.047 -0.1202 -0.2232 -0.1105
10072TIP3    H151707   1.154   1.726   2.034 -0.2761 -0.2136  0.1066
10072TIP3    H251708   1.151   1.593   1.961  1.9757  0.1492 -0.7067
10073TIP3   OH251709   0.298   2.670   4.428  0.1914 -0.3418 -0.2440
10073TIP3    H151710   0.296   2.725   4.349  1.4997 -1.3964 -1.0285
10073TIP3    H251711   0.323   2.731   4.498 -0.3749  0.4819 -0.7454
10074TIP3   OH251712   5.501   1.032  15.800 -0.2698  0.1651  0.2110
10074TIP3    H151713   5.445   1.012  15.875 -1.5371 -0.3948 -0.8496
10074TIP3    H251714   5.453   1.098  15.751  0.1228 -0.1251 -0.5764
10075TIP3   OH251715   0.861   6.130   3.941  0.4091 -0.6809  0.0459
10075TIP3    H151716   0.855   6.224   3.927 -0.6357 -0.8288 -0.5514
10075TIP3    H251717   0.773   6.104   3.969  0.3886 -1.6438 -0.8492
10076TIP3   OH251718   2.682   1.215   5.860  0.1060  0.0504  0.3435
10076TIP3    H151719   2.694   1.278   5.931  0.4241 -0.6086  0.8855
10076TIP3    H251720   2.668   1.132   5.904 -0.9371 -0.1520 -0.3631
10077TIP3   OH251721   3.220   4.633  14.846  0.3900 -0.2991  0.9140
10077TIP3    H151722   3.228   4.665  14.756  1.1287 -1.2081  0.6553
10077TIP3    H251723   3.246   4.708  14.900  0.0642  0.2116  0.3762
10078TIP3   OH251724   4.294   2.939  12.689  0.0846 -0.7428 -0.5423
10078TIP3    H151725   4.372   2.986  12.720 -0.2796 -0.4555 -0.0717
10078TIP3    H251726   4.329   2.877  12.624  0.5331  0.3806 -1.4008
10079TIP3   OH251727   3.998   4.398   2.146 -0.1399  0.5670 -0.5384
10079TIP3    H151728   4.090   4.379   2.127 -0.1649 -1.3015  1.0854
10079TIP3    H251729   3.999   4.443   2.230 -0.7378  0.2755 -0.3690
10080TIP3   OH251730   3.958   1.360  15.075  0.3489  0.2435  0.0812
10080TIP3    H151731   3.953   1.452  15.101  1.0181 -0.1073  1.4854
10080TIP3    H251732   3.879   1.320  15.112  0.3473  0.1443 -0.0298
10081TIP3   OH251733   4.242   1.062   2.956 -0.0315  0.2346  0.2744
10081TIP3    H151734   4.235   1.015   3.038  1.6168  1.5063  1.1627
10081TIP3    H251735   4.283   1.000   2.895  0.9326  0.0877  1.0719
10082TIP3   OH251736   5.962   6.517  11.429  0.1597 -0.2701  0.4457
10082TIP3    H151737   5.926   6.491  11.344 -1.7400  1.1771  0.7651
10082TIP3    H251738   5.938   6.445  11.488 -1.5329  0.2903  0.4721
10083TIP3   OH251739   0.022   4.126  13.521  1.1294  0.5554  0.6728
10083TIP3    H151740  -0.048   4.075  13.481  1.6457 -0.7866  1.4364
10083TIP3    H251741   0.090   4.130  13.454  1.4940 -0.6347  0.9590
10084TIP3   OH251742   1.622   3.394   1.742  0.1855 -0.1712  0.0614
10084TIP3    H151743   1.706   3.354   1.720  1.0124  1.8723 -0.6714
10084TIP3    H251744   1.557   3.327   1.720  1.4205 -0.6410 -2.4007
10085TIP3   OH251745   1.717   6.058  11.642  0.2853  0.1365 -0.3635
10085TIP3    H151746   1.796   6.110  11.655  1.5267 -0.8738 -3.2997
10085TIP3    H251747   1.648   6.107  11.686  1.9170  2.8509 -0.7327
10086TIP3   OH251748   1.089   0.782  11.677  0.4282 -0.5853  0.0795
10086TIP3    H151749   1.182   0.804  11.679  0.8338 -2.2751  1.5924
10086TIP3    H251750   1.045   0.865  11.659  2.2433  0.1715 -1.0071
10087TIP3   OH251751   3.067   5.380   1.191  0.7101  0.5084 -0.0628
10087TIP3    H151752   2.997   5.408   1.132 -0.5110  0.5193  1.3428
10087TIP3    H251753   3.050   5.427   1.272  2.8758  1.1680  0.0345
10088TIP3   OH251754   3.151   4.299  12.718  0.8867  0.4559 -0.2848
10088TIP3    H151755   3.153   4.394  12.730 -0.6630  0.2459  1.8929
10088TIP3    H251756   3.068   4.282  12.673  1.2889  0.1449 -0.9202
10089TIP3   OH251757   6.584   1.191  15.979  0.0982 -0.1604  0.0915
10089TIP3    H151758   6.562   1.190  15.886  1.9771  1.5287 -0.4094
10089TIP3    H251759   6.511   1.147  16.022 -1.3782  0.1307 -2.0705
10090TIP3   OH251760   0.028   0.286  15.716 -0.3177  0.2996  0.3080
10090TIP3    H151761   0.073   0.228  15.777  0.9257  0.4519 -0.4472
10090TIP3    H251762   0.073   0.274  15.632 -2.6977 -0.7400 -0.8960
10091TIP3   OH251763   3.557   3.552   5.122 -0.5075 -0.2022 -0.6818
10091TIP3    H151764   3.476   3.555   5.173 -0.3902 -1.2195 -0.4342
10091TIP3    H251765   3.534   3.592   5.038 -0.6033  1.8596  0.2948
10092TIP3   OH251766   4.320   6.759  14.196  0.2591 -0.0270 -0.3952
10092TIP3    H151767   4.249   6.820  14.176  0.4045  0.3365  0.1840
10092TIP3    H251768   4.318   6.696  14.124  1.6345  2.0258 -2.2840
10093TIP3   OH251769   4.236   2.859  12.947  0.0487  0.4315 -0.3384
10093TIP3    H151770   4.229   2.899  12.860  0.3075  3.8690  1.1374
10093TIP3    H251771   4.330   2.854  12.964 -0.0155  0.4113  0.0208
10094TIP3   OH251772   6.627   3.149   4.204  0.0214 -0.1089 -0.1633
10094TIP3    H151773   6.666   3.229   4.170  0.2437 -0.7038 -1.3455
10094TIP3    H251774   6.553   3.131   4.146 -0.8943 -0.0046  0.9365
10095TIP3   OH251775   3.649   5.104  14.715  0.3473  0.3067  0.0973
10095TIP3    H151776   3.632   5.059  14.797 -1.1627 -1.5456 -1.1831
10095TIP3    H251777   3.627   5.195  14.733  0.2056 -0.0445  1.7883
10096TIP3   OH251778   2.789   6.678  12.128 -0.6534  0.2439 -0.0755
10096TIP3    H151779   2.767   6.708  12.040 -0.8164 -0.2374 -0.2000
10096TIP3    H251780   2.795   6.583  12.120  1.9514  0.4026 -0.1391
10097TIP3   OH251781   0.817   3.971   0.990  0.4867  0.0094 -0.3544
10097TIP3    H151782   0.777   3.944   1.073 -0.1668  3.6967  0.6106
10097TIP3    H251783   0.898   3.920   0.986 -1.2758 -3.0019  0.6647
10098TIP3   OH251784   1.494   5.245  12.936  0.2319  0.3628 -0.1404
10098TIP3    H151785   1.405   5.267  12.908 -0.2307 -0.9226  0.2920
10098TIP3    H251786   1.493   5.258  13.030  0.0299 -1.2260  0.0843
10099TIP3   OH251787   4.065   1.430  10.426  0.6763 -0.0238 -0.6887
10099TIP3    H151788   4.148   1.385  10.408  0.1747 -1.2407 -0.0329
10099TIP3    H251789   3.998   1.370  10.394  0.0002  0.2585  0.1709
10100TIP3   OH251790   1.038   0.820   6.537 -0.3319 -0.6416 -0.1987
10100TIP3    H151791   0.983   0.870   6.597 -1.9089  0.3341 -2.3874
10100TIP3    H251792   0.991   0.738   6.524 -0.2378 -0.6578 -0.4555
10101TIP3   OH251793   5.933   3.352  13.696 -0.4725  0.1880 -0.0611
10101TIP3    H151794   5.923   3.431  13.748 -0.4872  0.7390 -0.8953
10101TIP3    H251795   5.843   3.322  13.681 -0.6099  1.5225 -2.0357
10102TIP3   OH251796   0.638   4.634   4.820 -0.1192 -0.1069 -0.0625
10102TIP3    H151797   0.627   4.553   4.771 -2.1635  0.7628 -1.0811
10102TIP3    H251798   0.715   4.618   4.874  0.8848 -1.8835 -1.9305
10103TIP3   OH251799   0.789   2.781   1.946  0.6567 -0.0232 -0.8759
10103TIP3    H151800   0.843   2.737   2.011  0.6327  1.3768  0.1119
10103TIP3    H251801   0.723   2.716   1.921 -0.5209  0.0210  1.9420
10104TIP3   OH251802   5.098   5.175  12.864  0.0670 -0.1682  0.4918
10104TIP3    H151803   5.056   5.092  12.843  0.9831 -0.0409 -1.9717
10104TIP3    H251804   5.185   5.169  12.825 -0.2724  2.3836 -0.7756
10105TIP3   OH251805   4.493   2.685  14.369 -0.3040  0.4053 -0.3748
10105TIP3    H151806   4.506   2.617  14.436  1.1504  1.0451  0.0188
10105TIP3    H251807   4.543   2.654  14.294 -2.9372 -0.9160 -1.6464
10106TIP3   OH251808   4.236   0.928   4.833 -0.0418 -0.2078  0.2925
10106TIP3    H151809   4.275   0.998   4.886  1.5238 -0.7012 -0.2040
10106TIP3    H251810   4.141   0.937   4.848  0.0325  2.7922 -0.6846
10107TIP3   OH251811   3.791   6.403   1.775 -0.1703 -0.0856  0.9128
10107TIP3    H151812   3.754   6.398   1.863 -1.1562  0.7405  0.5617
10107TIP3    H251813   3.867   6.461   1.784 -1.3350  1.4906  0.9010
10108TIP3   OH251814   6.787   6.002  12.210  0.4169 -0.5551  0.0711
10108TIP3    H151815   6.838   5.994  12.290 -0.9177  1.5615  1.1737
10108TIP3    H251816   6.829   6.074  12.162  0.8737 -1.4464 -0.9145
10109TIP3   OH251817   2.211   5.296  15.929  0.4400  0.5855  0.3724
10109TIP3    H151818   2.280   5.328  15.871  1.0055 -0.3261  0.5218
10109TIP3    H251819   2.129   5.321  15.886  0.8647  1.5761  0.1363
10110TIP3   OH251820   0.527   1.833  16.490 -0.1071  0.7030 -0.2414
10110TIP3    H151821   0.525   1.868  16.401  1.9521  0.9635 -0.1968
10110TIP3    H251822   0.577   1.752  16.483  1.1343  1.3610  0.8999
10111TIP3   OH251823   3.693   6.076   0.281  0.1599 -0.0164 -0.0952
10111TIP3    H151824   3.673   6.026   0.359 -0.1218 -0.7906 -0.6603
10111TIP3    H251825   3.774   6.038   0.247 -0.1551 -0.2202 -0.6304
10112TIP3   OH251826   0.916   2.678  13.467 -0.0194  0.1542 -0.3016
10112TIP3    H151827   0.885   2.713  13.550 -1.2602  1.5652 -1.3291
10112TIP3    H251828   0.836   2.665  13.415  0.9554  2.0372 -2.3052
10113TIP3   OH251829   1.052   2.232   4.287 -0.1852  0.3783 -0.8686
10113TIP3    H151830   1.056   2.142   4.255  0.0860 -0.5279  1.5739
10113TIP3    H251831   1.144   2.261   4.288 -0.0072 -0.1837  0.6037
10114TIP3   OH251832   6.538   5.974  10.994  0.3094  0.4895 -0.2962
10114TIP3    H151833   6.538   5.878  10.993  0.3858  0.4916 -1.1273
10114TIP3    H251834   6.619   5.997  11.039 -1.1213  0.1776  2.5908
10115TIP3   OH251835   1.966   6.749   0.666  0.1257  0.6702 -0.4610
10115TIP3    H151836   1.977   6.693   0.744  2.4151  0.3285 -1.0042
10115TIP3    H251837   2.051   6.745   0.622 -0.7473  1.9383 -2.2799
10116TIP3   OH251838   2.569   5.721  15.041  0.3313 -0.4459 -0.1043
10116TIP3    H151839   2.563   5.814  15.019  0.2399 -0.8861 -2.0203
10116TIP3    H251840   2.626   5.718  15.118  2.1724  1.0096 -1.3808
10117TIP3   OH251841   6.143   0.229  14.545 -0.0801  0.6225  0.0217
10117TIP3    H151842   6.105   0.167  14.483 -0.8264  0.3509  0.7523
10117TIP3    H251843   6.082   0.303  14.545  0.0263  0.7098  0.2734
10118TIP3   OH251844   1.083   5.265  10.615 -0.1559  0.2433 -0.2934
10118TIP3    H151845   1.154   5.286  10.676 -1.5954  2.8055  0.5842
10118TIP3    H251846   1.069   5.171  10.626  2.4004 -0.1073  0.2526
10119TIP3   OH251847   3.431   5.527  16.657  0.5628  0.0523  0.0088
10119TIP3    H151848   3.337   5.515  16.674  0.0932  1.5159 -1.4171
10119TIP3    H251849   3.474   5.467  16.718 -1.2911 -0.4912  0.8278
10120TIP3   OH251850   6.113   5.780  14.331  0.3365 -0.5300  0.2119
10120TIP3    H151851   6.155   5.843  14.389  0.3871 -0.3832  0.0181
10120TIP3    H251852   6.081   5.833  14.258 -2.0430 -0.3223  1.3497
10121TIP3   OH251853   3.009   0.662  15.523  0.3017  0.0290 -0.4342
10121TIP3    H151854   3.088   0.706  15.554 -0.7302  0.0435  2.3757
10121TIP3    H251855   2.987   0.601  15.593 -0.2428 -2.4897 -2.7563
10122TIP3   OH251856   0.572   0.643   0.831  0.3100  0.0032 -0.0526
10122TIP3    H151857   0.605   0.669   0.744  2.2120  1.4032  1.0540
10122TIP3    H251858   0.642   0.668   0.891 -0.9954 -0.9763  1.9012
10123TIP3   OH251859   6.789   6.115   6.720 -0.7173 -0.4531 -0.3048
10123TIP3    H151860   6.710   6.080   6.760 -1.3669  0.1243 -1.0620
10123TIP3    H251861   6.824   6.042   6.669 -0.5528 -0.8247  0.3416
10124TIP3   OH251862   1.858   2.647   0.145  0.0361  0.0337  0.0246
10124TIP3    H151863   1.795   2.588   0.105  0.5669  0.0789 -0.8768
10124TIP3    H251864   1.903   2.688   0.072  1.8711 -0.8075  0.6399
10125TIP3   OH251865   4.287   2.704   3.088  0.4563 -0.3697  0.6132
10125TIP3    H151866   4.381   2.685   3.097  0.3970 -0.9533  0.0795
10125TIP3    H251867   4.282   2.799   3.085  1.1548 -0.3578 -0.5515
10126TIP3   OH251868   4.602   4.872  16.795 -0.2480 -0.8497 -0.2598
10126TIP3    H151869   4.667   4.904  16.857 -1.4748 -0.0159  0.6099
10126TIP3    H251870   4.534   4.834  16.849 -1.3968  0.0044 -1.0882
10127TIP3   OH251871   3.547   4.460   1.449 -0.2367  0.9118  0.1864
10127TIP3    H151872   3.551   4.375   1.494 -0.1413  1.0249  0.3912
10127TIP3    H251873   3.468   4.454   1.396  0.7001  0.0315 -1.1382
10128TIP3   OH251874   0.795   5.113   0.443 -0.3876  0.1626 -0.1056
10128TIP3    H151875   0.874   5.138   0.490  0.7172 -1.3263 -1.1375
10128TIP3    H251876   0.784   5.020   0.463 -1.5248  0.2100 -0.4786
10129TIP3   OH251877   4.212   5.952   0.883  0.1489  0.0178  0.2834
10129TIP3    H151878   4.238   5.924   0.795  1.6369 -1.4019  1.1490
10129TIP3    H251879   4.225   6.046   0.883  3.8750 -0.4200  0.1520
10130TIP3   OH251880   2.847   6.695  10.526  0.2670  0.3927 -0.1985
10130TIP3    H151881   2.941   6.690  10.544  0.5153 -0.8221 -1.6708
10130TIP3    H251882   2.810   6.620  10.574  0.2516  0.0581 -0.7290
10131TIP3   OH251883   2.698   3.295   5.050 -0.6846  0.5186  0.5438
10131TIP3    H151884   2.741   3.353   5.113  0.2624  0.3962  0.0219
10131TIP3    H251885   2.682   3.352   4.974  1.8069 -0.2685 -0.6499
10132TIP3   OH251886   0.508   0.358   2.976 -0.0521  0.4919 -0.1976
10132TIP3    H151887   0.438   0.421   2.963  0.1892  0.7567 -0.2314
10132TIP3    H251888   0.471   0.291   3.033  0.3264  1.7279  1.5432
10133TIP3   OH251889   4.105   4.857   5.367  0.3587  0.2965 -0.0145
10133TIP3    H151890   4.036   4.920   5.347 -0.0225  0.1645  0.8915
10133TIP3    H251891   4.183   4.891   5.323 -0.1151  0.8097 -0.4583
10134TIP3   OH251892   1.004   3.906   4.130 -0.0148 -0.3331  0.6186
10134TIP3    H151893   1.008   3.951   4.046  0.5502  1.1076  1.3830
10134TIP3    H251894   1.075   3.842   4.127  1.2520  1.0437  0.7141
10135TIP3   OH251895   0.671   6.803  11.993  0.0955  0.0827  0.3937
10135TIP3    H151896   0.740   6.826  11.932  0.3551  0.7891  0.9369
10135TIP3    H251897   0.590   6.821  11.946  0.2826 -0.1829 -0.0356
10136TIP3   OH251898   4.930   4.374  11.007 -0.1145  0.5149 -0.1161
10136TIP3    H151899   5.012   4.403  10.967  1.2001 -3.2452 -0.3638
10136TIP3    H251900   4.917   4.285  10.972 -2.3244 -0.3871  2.8224
10137TIP3   OH251901   3.584   3.065   1.340  0.2409 -0.2716 -0.4649
10137TIP3    H151902   3.672   3.043   1.370  0.1546 -1.6086 -1.1439
10137TIP3    H251903   3.594   3.148   1.294  0.9758  0.0624  0.2784
10138TIP3   OH251904   4.690   1.958  12.537  0.1252 -0.1039  0.3451
10138TIP3    H151905   4.775   1.941  12.577  0.7039  1.7007 -0.0786
10138TIP3    H251906   4.689   1.905  12.458  1.7526  1.4676 -0.7723
10139TIP3   OH251907   4.864   2.694  15.794  0.3600 -0.4404 -0.5057
10139TIP3    H151908   4.800   2.641  15.841  0.0379  0.7370  0.4233
10139TIP3    H251909   4.922   2.631  15.752  1.7219 -1.6017  2.9336
10140TIP3   OH251910   1.660   0.580  13.414  0.3453  0.1980  0.5225
10140TIP3    H151911   1.669   0.667  13.452  0.5194 -0.0487  1.0549
10140TIP3    H251912   1.703   0.522  13.477 -0.5651 -0.3826  0.6164
10141TIP3   OH251913   2.228   2.793  12.892 -0.3663  0.0376  0.0987
10141TIP3    H151914   2.284   2.841  12.953 -0.6648  0.2359  0.2162
10141TIP3    H251915   2.234   2.702  12.920 -1.1220  0.2291  0.9139
10142TIP3   OH251916   5.435   3.596   0.187 -0.0419 -0.1170 -0.0457
10142TIP3    H151917   5.502   3.662   0.172  0.8541  0.1819  4.4522
10142TIP3    H251918   5.353   3.643   0.180  0.3909  0.4869 -1.1977
10143TIP3   OH251919   3.829   2.665  11.452 -0.7678  0.0874  0.1930
10143TIP3    H151920   3.793   2.701  11.533  0.0821 -0.1160  0.6608
10143TIP3    H251921   3.870   2.740  11.408 -1.9171  0.3602 -0.4360
10144TIP3   OH251922   0.651   3.516   5.855  0.2193 -0.8111  0.4266
10144TIP3    H151923   0.621   3.598   5.894  0.2645 -0.4820 -0.2275
10144TIP3    H251924   0.593   3.449   5.892 -1.6377 -0.1259 -1.1646
10145TIP3   OH251925   1.039   1.275   2.001 -0.1613  0.2473 -0.3553
10145TIP3    H151926   1.125   1.275   1.959 -0.3571  3.1623 -0.8997
10145TIP3    H251927   1.052   1.323   2.083 -0.9696 -0.5502  0.2571
10146TIP3   OH251928   6.126   1.458   0.012  0.0793  0.3215  0.3024
10146TIP3    H151929   6.169   1.521   0.069  1.4962 -0.8553  0.5659
10146TIP3    H251930   6.033   1.470   0.029  0.2852  2.8205 -0.1799
10147TIP3   OH251931   6.150   6.315  11.599  0.0874 -0.3182  0.0381
10147TIP3    H151932   6.182   6.381  11.538 -0.9093 -0.0228 -0.1662
10147TIP3    H251933   6.082   6.268  11.551 -0.6070 -0.1748  0.8605
10148TIP3   OH251934   2.872   2.522  14.419  0.4315  0.2472  0.3646
10148TIP3    H151935   2.856   2.613  14.446 -1.8638 -0.1386  0.4002
10148TIP3    H251936   2.804   2.472  14.463  0.1041 -1.1510 -1.6742
10149TIP3   OH251937   2.934   5.342   5.405 -0.1157 -0.1173 -0.1578
10149TIP3    H151938   3.026   5.347   5.379  0.5670  0.8147  2.3204
10149TIP3    H251939   2.899   5.430   5.390 -0.2062 -0.0736  0.3003
10150TIP3   OH251940   4.102   6.135  11.822 -0.1181  0.6906  0.3410
10150TIP3    H151941   4.089   6.040  11.823 -0.3459  0.7091 -0.1812
10150TIP3    H251942   4.114   6.159  11.914 -0.7643  0.2457  0.5526
10151TIP3   OH251943   6.149   2.819   2.562 -0.3422 -0.0540 -0.8141
10151TIP3    H151944   6.063   2.848   2.534 -0.3731 -0.2669 -0.9425
10151TIP3    H251945   6.201   2.817   2.482 -1.8979 -5.9910 -1.9632
10152TIP3   OH251946   1.525   4.692   2.106  0.6047  0.0228  0.6242
10152TIP3    H151947   1.554   4.603   2.126  2.1598  0.7020  1.5041
10152TIP3    H251948   1.500   4.728   2.191 -2.5935 -0.4301 -0.0631
10153TIP3   OH251949   2.437   5.075  11.729  0.3281  0.3997 -0.0814
10153TIP3    H151950   2.363   5.103  11.676  0.4140  1.0591  0.1365
10153TIP3    H251951   2.513   5.115  11.687  0.4945  0.2071  0.0342
10154TIP3   OH251952   1.131   3.414   5.474 -0.1368 -0.2292  0.0100
10154TIP3    H151953   1.223   3.392   5.457 -0.4439 -2.0149  0.4877
10154TIP3    H251954   1.116   3.384   5.564 -1.4464 -0.9158 -0.4193
10155TIP3   OH251955   0.039   1.354  11.101 -0.2800 -0.6393 -0.3270
10155TIP3    H151956  -0.026   1.414  11.064 -0.9915  0.1215  2.0563
10155TIP3    H251957   0.020   1.269  11.061 -1.2617  0.0780 -1.3925
10156TIP3   OH251958   5.699   6.468  14.100  0.1039  0.1161 -0.9040
10156TIP3    H151959   5.617   6.430  14.069  0.3917  0.0891 -1.6488
10156TIP3    H251960   5.740   6.504  14.021  0.4823  0.7496 -0.4274
10157TIP3   OH251961   0.710   4.868   3.074  0.2678 -0.1158 -0.5206
10157TIP3    H151962   0.619   4.893   3.084 -0.7019 -3.0519 -1.3737
10157TIP3    H251963   0.755   4.909   3.149 -2.2708 -1.0153  1.5805
10158TIP3   OH251964   4.440   1.616   0.176 -0.1523  0.3606  0.0371
10158TIP3    H151965   4.362   1.629   0.231 -0.6440  1.5491 -0.9144
10158TIP3    H251966   4.458   1.523   0.182 -1.2204  0.1948  0.8613
10159TIP3   OH251967   1.176   4.491   4.018  0.8854  0.4342 -0.0308
10159TIP3    H151968   1.126   4.471   4.097 -1.2017  0.6063 -1.2569
10159TIP3    H251969   1.263   4.455   4.034  0.5789  0.7130  2.4441
10160TIP3   OH251970   4.474   5.210   2.894 -0.1275  0.0326  0.1946
10160TIP3    H151971   4.410   5.241   2.829  0.2145 -2.0391 -1.1792
10160TIP3    H251972   4.422   5.194   2.973 -0.5696  2.4994  0.4516
10161TIP3   OH251973   5.057   5.642   0.206  0.9335  0.2697 -0.4214
10161TIP3    H151974   4.969   5.607   0.197  0.6984  0.7161  0.0924
10161TIP3    H251975   5.044   5.736   0.219  1.4423  0.2150  0.4996
10162TIP3   OH251976   4.810   0.100  13.446 -0.6974  0.3823  0.4938
10162TIP3    H151977   4.858   0.171  13.489  0.5470 -1.3057  2.0128
10162TIP3    H251978   4.731   0.090  13.498 -0.8947  0.6869  0.2516
10163TIP3   OH251979   6.568   1.258  10.911 -0.0998 -0.0036  0.1457
10163TIP3    H151980   6.515   1.285  10.836 -0.4311  1.7631  1.0010
10163TIP3    H251981   6.648   1.223  10.872 -0.0479  1.3637 -1.0340
10164TIP3   OH251982   4.291   2.097  13.885  0.1443 -0.0389  0.1005
10164TIP3    H151983   4.315   2.106  13.793 -0.2153 -0.7191 -0.0650
10164TIP3    H251984   4.204   2.057  13.883  0.2086 -0.2138  0.7381
10165TIP3   OH251985   4.575   4.693  17.195 -0.0768 -0.0194 -0.0185
10165TIP3    H151986   4.540   4.751  17.127  0.7443 -2.3329 -2.4971
10165TIP3    H251987   4.507   4.627  17.207 -0.2309  0.3932  1.4927
10166TIP3   OH251988   2.860   5.434   1.869 -0.2980 -0.1195  0.2649
10166TIP3    H151989   2.884   5.485   1.946 -1.0006  0.2653  0.2324
10166TIP3    H251990   2.893   5.346   1.887  2.1450  0.6492 -0.2728
10167TIP3   OH251991   6.300   5.974  10.853 -0.2065  0.2774  0.0359
10167TIP3    H151992   6.394   5.984  10.870 -0.0935 -1.5189  0.5049
10167TIP3    H251993   6.258   6.033  10.915  0.5847  0.7325  0.1502
10168TIP3   OH251994   5.971   6.631   1.720  0.7773 -0.2928  0.4438
10168TIP3    H151995   5.914   6.572   1.768  0.1775  0.6377  0.8883
10168TIP3    H251996   5.970   6.713   1.770  0.3608  0.6095 -0.9906
10169TIP3   OH251997   6.437   6.290   5.177 -0.2863  0.7759 -0.0636
10169TIP3    H151998   6.398   6.245   5.251  3.0892  0.3552  1.5480
10169TIP3    H251999   6.371   6.284   5.108 -1.9779 -2.1599  1.6980
10170TIP3   OH252000   4.250   2.037  14.226 -0.3833  0.1065  0.4984
10170TIP3    H152001   4.232   2.131  14.225 -0.5211  0.0818  0.6537
10170TIP3    H252002   4.164   1.995  14.224 -0.3572 -0.0058  1.3986
10171TIP3   OH252003   5.361   2.859   4.344 -0.2632 -0.2131  0.1031
10171TIP3    H152004   5.334   2.897   4.427 -1.0112 -1.5511  0.4762
10171TIP3    H252005   5.348   2.930   4.280  0.1923  0.7736  1.0904
10172TIP3   OH252006   3.525   3.318  15.533 -0.4242  0.3073 -0.8261
10172TIP3    H152007   3.608   3.332  15.487 -0.4279 -0.8628 -1.2002
10172TIP3    H252008   3.528   3.227  15.561 -1.1464  0.5456  0.0592
10173TIP3   OH252009   0.381   4.506  15.079 -0.2437  0.2723  0.3451
10173TIP3    H152010   0.338   4.517  14.994 -1.0007  1.6502  0.8787
10173TIP3    H252011   0.426   4.589  15.094 -1.4363  0.6469  2.0003
10174TIP3   OH252012   3.150   4.525   5.803  0.5349  0.1598  0.2472
10174TIP3    H152013   3.149   4.593   5.869 -1.8448 -1.3872  1.8800
10174TIP3    H252014   3.083   4.552   5.740  0.4638 -0.0508  0.2334
10175TIP3   OH252015   0.403   0.559  13.735 -0.0157  0.2021  0.0326
10175TIP3    H152016   0.358   0.643  13.745 -0.4718  0.3153 -2.5839
10175TIP3    H252017   0.489   0.582  13.699  0.5812 -0.3428  1.0719
10176TIP3   OH252018   1.214   5.918  12.630 -0.4008  0.3456 -0.5130
10176TIP3    H152019   1.248   5.922  12.720 -1.1010  1.5521 -0.2927
10176TIP3    H252020   1.235   6.003  12.593  0.4269 -0.3719 -1.7069
10177TIP3   OH252021   3.669   2.187   0.872 -0.1633 -0.4764 -0.1872
10177TIP3    H152022   3.642   2.274   0.844 -1.4211 -1.5033 -2.3467
10177TIP3    H252023   3.763   2.183   0.855 -0.0994  0.4837 -0.0378
10178TIP3   OH252024   0.483   1.854   1.256  0.2260  0.1469  0.4139
10178TIP3    H152025   0.576   1.853   1.277  0.6474 -1.2028 -1.3836
10178TIP3    H252026   0.479   1.878   1.163 -1.0776 -1.7512 -0.0647
10179TIP3   OH252027   2.371   3.073   1.519  0.4245  0.5872  0.0039
10179TIP3    H152028   2.307   3.009   1.489  0.5332  1.2807 -1.7908
10179TIP3    H252029   2.404   3.037   1.602 -1.4383 -0.3283  0.3772
10180TIP3   OH252030   6.615   2.443   1.851  0.2886 -0.5623  0.0652
10180TIP3    H152031   6.640   2.522   1.899 -1.1239 -0.2932  0.3905
10180TIP3    H252032   6.521   2.454   1.834  0.2142 -1.8807 -0.4407
10181TIP3   OH252033   2.323   6.566  12.731 -0.1495 -0.1619 -0.0041
10181TIP3    H152034   2.365   6.517  12.661 -0.6467  0.0958 -0.4848
10181TIP3    H252035   2.308   6.502  12.800 -0.3024 -0.5707 -0.4124
10182TIP3   OH252036   0.352   0.214   0.119 -0.1335  0.6049  0.5634
10182TIP3    H152037   0.371   0.187   0.029 -0.6470  0.4335  0.5077
10182TIP3    H252038   0.357   0.133   0.170  0.2331  0.7137  0.7042
10183TIP3   OH252039   3.394   2.392   5.447  0.3391  0.4262  0.4149
10183TIP3    H152040   3.441   2.363   5.369 -1.4852 -0.5790 -0.3368
10183TIP3    H252041   3.394   2.487   5.440  2.2214  0.4598  0.4262
10184TIP3   OH252042   4.302   2.387  15.099 -0.2735  0.4052  0.2537
10184TIP3    H152043   4.305   2.331  15.021  1.0581 -0.8879  1.2048
10184TIP3    H252044   4.227   2.354  15.148 -0.8906  0.9833 -0.2755
10185TIP3   OH252045   1.395   6.059  11.531  0.1107 -0.2486 -0.7278
10185TIP3    H152046   1.388   5.964  11.536 -0.3086 -0.2129 -0.6422
10185TIP3    H252047   1.421   6.086  11.619  1.3442 -0.3803 -1.0450
10186TIP3   OH252048   6.687   6.127   2.264 -0.3611  0.6657  0.6966
10186TIP3    H152049   6.707   6.209   2.219 -2.1166 -0.3004 -2.0062
10186TIP3    H252050   6.602   6.142   2.305  0.7855  1.2142  2.9536
10187TIP3   OH252051   6.783   6.715   0.619 -0.1763 -0.0081 -0.5057
10187TIP3    H152052   6.865   6.723   0.669 -0.4805  2.1373 -0.3275
10187TIP3    H252053   6.742   6.801   0.625 -1.9490 -0.7511 -1.5000
10188TIP3   OH252054   1.191   4.108   0.846  0.0842 -0.1436 -0.3424
10188TIP3    H152055   1.231   4.049   0.909 -0.5890  0.3369  0.5602
10188TIP3    H252056   1.187   4.193   0.891 -0.0029  0.3113 -1.1889
10189TIP3   OH252057   4.515   1.849  10.923  0.2850  0.1831  0.3970
10189TIP3    H152058   4.520   1.785  10.853  2.2348 -0.2051  0.8729
10189TIP3    H252059   4.502   1.933  10.879 -0.6379 -0.3207 -0.3016
10190TIP3   OH252060   5.762   4.109   0.225  0.2643  0.2456 -0.0633
10190TIP3    H152061   5.773   4.098   0.320 -1.6464 -0.2000  0.1170
10190TIP3    H252062   5.668   4.105   0.211  0.5592 -0.2077 -2.0632
10191TIP3   OH252063   1.006   6.420  14.592  0.1909 -0.0158  0.3527
10191TIP3    H152064   0.927   6.394  14.544  0.9888 -0.3426 -0.7983
10191TIP3    H252065   1.017   6.513  14.572 -1.5369  0.8182  2.8812
10192TIP3   OH252066   2.447   5.181   5.653  0.0482 -1.0232 -0.0524
10192TIP3    H152067   2.528   5.159   5.699 -0.3208 -1.2126  0.5250
10192TIP3    H252068   2.464   5.266   5.612  0.2378 -0.6295  0.8290
10193TIP3   OH252069   6.619   1.190  14.708 -0.6649 -0.2408  0.4132
10193TIP3    H152070   6.658   1.154  14.788 -0.6738  0.7723  0.8822
10193TIP3    H252071   6.528   1.206  14.730 -0.9230 -0.9365 -0.1320
10194TIP3   OH252072   0.396   2.599  12.131  0.5558 -0.1014 -0.0566
10194TIP3    H152073   0.317   2.547  12.118 -0.0893  0.3088  2.0103
10194TIP3    H252074   0.430   2.571  12.217  1.5845  1.0989 -0.0509
10195TIP3   OH252075   4.266   0.301  14.821  0.0094  0.0078  0.1076
10195TIP3    H152076   4.356   0.333  14.820  0.0068  0.0144 -1.5817
10195TIP3    H252077   4.231   0.326  14.736 -1.2787 -0.8883  0.3599
10196TIP3   OH252078   0.391   5.463   2.517 -0.6788  0.2616 -0.5516
10196TIP3    H152079   0.435   5.535   2.471 -0.2831  0.8151  0.6720
10196TIP3    H252080   0.313   5.503   2.555 -0.9132 -0.1489 -0.6006
10197TIP3   OH252081   1.390   5.250   4.518 -0.1332  0.0634  0.5721
10197TIP3    H152082   1.348   5.173   4.480 -1.2313  0.7321  0.4084
10197TIP3    H252083   1.402   5.228   4.610  0.2398 -0.5891  0.3707
10198TIP3   OH252084   1.621   1.140  16.873 -0.4383 -0.7588  0.4199
10198TIP3    H152085   1.531   1.114  16.896 -0.7123  0.4757  0.8194
10198TIP3    H252086   1.618   1.236  16.873  0.9470 -0.7101  0.6903
10199TIP3   OH252087   3.653   5.670   5.977 -0.1941 -0.3147  0.1981
10199TIP3    H152088   3.715   5.654   5.906  0.1471  1.3021  0.0978
10199TIP3    H252089   3.647   5.587   6.024  0.4508 -1.0708 -1.0375
10200TIP3   OH252090   6.668   6.481   2.672 -0.0471  0.2573  0.8745
10200TIP3    H152091   6.630   6.419   2.734 -0.8050  1.5258  1.7191
10200TIP3    H252092   6.592   6.526   2.635  0.4418 -0.0225 -0.4683
10201TIP3   OH252093   1.239   4.957  15.691 -0.2871  0.0166  0.0571
10201TIP3    H152094   1.225   5.026  15.626  0.7968  0.8953  0.7423
10201TIP3    H252095   1.265   5.004  15.771  0.1370 -1.1560  0.6184
10202TIP3   OH252096   4.512   2.218   3.134  0.0175  0.0873 -0.7555
10202TIP3    H152097   4.450   2.162   3.087  0.9019 -3.4234  2.0545
10202TIP3    H252098   4.466   2.241   3.215  0.8155  0.9449 -0.5396
10203TIP3   OH252099   0.900   2.580  14.913 -0.2500 -1.0539 -0.4909
10203TIP3    H152100   0.988   2.590  14.875 -0.8513  1.8270 -1.2686
10203TIP3    H252101   0.859   2.666  14.901 -3.2299 -2.3728 -0.2184
10204TIP3   OH252102   5.906   6.005   1.279  0.0078 -0.5265  0.1092
10204TIP3    H152103   5.909   6.071   1.349 -0.7970 -0.8926  0.4954
10204TIP3    H252104   5.997   5.993   1.253  0.0474  1.6810 -0.8635
10205TIP3   OH252105   6.167   5.947   6.060  0.0178  0.4872 -0.0848
10205TIP3    H152106   6.176   5.993   5.977 -2.3401  1.7812  0.3340
10205TIP3    H252107   6.189   5.856   6.040  0.0035  0.8937 -2.0043
10206TIP3   OH252108   1.288   6.577   2.569  0.1912  0.2506  0.1973
10206TIP3    H152109   1.376   6.578   2.607  0.7762  0.0887 -1.1156
10206TIP3    H252110   1.291   6.507   2.503 -1.7943 -1.7249  2.1228
10207TIP3   OH252111   2.131   5.657  17.285  0.4424  0.1213  0.0499
10207TIP3    H152112   2.215   5.642  17.328  1.0110  2.0151 -0.3527
10207TIP3    H252113   2.137   5.609  17.203  0.3500 -1.3812  0.9083
10208TIP3   OH252114   0.135   4.913  12.382 -0.3331 -0.3320  0.5519
10208TIP3    H152115   0.166   4.853  12.314  3.4233  1.1916  0.7561
10208TIP3    H252116   0.129   4.998  12.338  0.2354  0.2737  1.6249
10209TIP3   OH252117   5.758   5.035  14.822  0.5454  0.1710 -0.4504
10209TIP3    H152118   5.849   5.014  14.804  0.7633 -0.7072  1.4693
10209TIP3    H252119   5.748   5.127  14.797  2.0117  0.3179 -0.5027
10210TIP3   OH252120   2.720   2.497  17.073 -0.1669  0.3651  0.1789
10210TIP3    H152121   2.731   2.420  17.128  2.1324  0.1824 -0.4776
10210TIP3    H252122   2.660   2.553  17.121  0.1615 -0.7112  1.8729
10211TIP3   OH252123   5.091   5.870  17.269  0.1756  0.0577  0.0353
10211TIP3    H152124   5.055   5.893  17.355  0.3741 -0.7685  0.3463
10211TIP3    H252125   5.014   5.849  17.216  0.2145 -2.8329  1.0299
10212TIP3   OH252126   1.805   2.142   0.094  0.7018 -0.0227 -0.2497
10212TIP3    H152127   1.806   2.195   0.173 -0.3856 -0.1980 -0.1059
10212TIP3    H252128   1.887   2.163   0.049  0.2153  1.8660 -0.2634
10213TIP3   OH252129   2.518   1.321  16.300  0.4366 -0.0932  0.0975
10213TIP3    H152130   2.463   1.336  16.222 -0.6053 -1.2510  0.5884
10213TIP3    H252131   2.552   1.233  16.289 -1.1462 -0.9411  1.8011
10214TIP3   OH252132   2.695   5.211  13.773  0.7480  0.3357 -0.6911
10214TIP3    H152133   2.641   5.140  13.807  0.9414  1.0636  1.1773
10214TIP3    H252134   2.711   5.187  13.682  0.4996 -1.8066 -0.1967
10215TIP3   OH252135   3.099   1.680   0.023 -0.0653  0.3488 -0.2690
10215TIP3    H152136   3.172   1.741   0.011 -0.4605  0.4117 -2.4810
10215TIP3    H252137   3.036   1.703  -0.045 -0.0838 -2.7630 -1.3739
10216TIP3   OH252138   1.015   6.819  15.744  0.2353  0.2443 -0.6397
10216TIP3    H152139   0.986   6.870  15.669  1.4056 -0.8070 -1.8298
10216TIP3    H252140   0.935   6.780  15.779 -0.1681 -0.4029 -2.2176
10217TIP3   OH252141   3.155   6.411  14.719 -0.3099  0.4128 -0.1200
10217TIP3    H152142   3.084   6.385  14.660 -0.4850  1.2411 -0.2885
10217TIP3    H252143   3.137   6.364  14.800  1.4520 -2.8902 -1.5258
10218TIP3   OH252144   5.455   0.841  10.904  0.1883  0.0553 -0.1105
10218TIP3    H152145   5.442   0.877  10.816 -3.2620 -0.3048  0.1750
10218TIP3    H252146   5.391   0.888  10.958  3.0085  1.0858  2.4933
10219TIP3   OH252147   6.672   0.623   1.115 -0.1276  0.1403  0.0014
10219TIP3    H152148   6.669   0.668   1.031 -0.6270  0.0983 -0.0043
10219TIP3    H252149   6.687   0.531   1.093  1.2976  0.3465  0.0296
10220TIP3   OH252150   4.289   4.683  12.112  0.1930 -0.5140  0.0517
10220TIP3    H152151   4.244   4.706  12.194 -0.4932  1.4093 -0.8336
10220TIP3    H252152   4.352   4.616  12.137 -0.7878 -0.7657  1.9545
10221TIP3   OH252153   3.159   3.439  14.595 -0.6726 -0.4207  0.1553
10221TIP3    H152154   3.181   3.361  14.545 -1.4106 -0.9398  0.6201
10221TIP3    H252155   3.065   3.451  14.580 -1.3881 -1.8452  3.0879
10222TIP3   OH252156   3.012   2.696  17.274 -0.3968  0.2846 -0.4007
10222TIP3    H152157   3.012   2.600  17.272  1.2330  0.2858 -1.3319
10222TIP3    H252158   3.005   2.722  17.182 -1.3465  1.0768 -0.1137
10223TIP3   OH252159   4.150   1.246  11.259 -0.1463 -0.1371  0.0311
10223TIP3    H152160   4.119   1.187  11.328  1.2483 -0.8818  0.0317
10223TIP3    H252161   4.087   1.318  11.259 -0.6817 -0.5921  1.4413
10224TIP3   OH252162   5.247   1.821   6.770 -0.0334  0.1513 -0.6045
10224TIP3    H152163   5.243   1.914   6.790  0.4999 -0.0695  0.5703
10224TIP3    H252164   5.314   1.814   6.702  0.7896  0.4916  0.1617
10225TIP3   OH252165   4.825   0.822  16.667  0.3521  0.0214  0.2768
10225TIP3    H152166   4.877   0.871  16.603  1.8190 -0.7146  0.8805
10225TIP3    H252167   4.853   0.731  16.656  0.3928 -0.1497  1.7443
10226TIP3   OH252168   5.923   1.946   5.310 -0.1301 -0.0677  0.7443
10226TIP3    H152169   5.837   1.911   5.331 -0.7308  1.7304  1.4204
10226TIP3    H252170   5.913   1.981   5.221 -0.2949  0.6783  1.0467
10227TIP3   OH252171   1.755   5.833   1.823 -0.1626 -0.5126  0.0475
10227TIP3    H152172   1.721   5.917   1.854  1.7979 -0.1397  1.2717
10227TIP3    H252173   1.692   5.768   1.855 -0.4301  0.2790  1.1548
10228TIP3   OH252174   2.700   3.491  11.764 -0.4047 -0.1076 -0.0140
10228TIP3    H152175   2.639   3.554  11.725 -1.7274 -1.4365 -0.1612
10228TIP3    H252176   2.756   3.543  11.821 -0.5723  1.3912 -1.1917
10229TIP3   OH252177   1.309   4.033   6.382  0.1776 -0.5413  0.0843
10229TIP3    H152178   1.318   4.004   6.291 -0.6456 -1.3324  0.2542
10229TIP3    H252179   1.367   3.974   6.431  0.0986 -0.5506  0.1648
10230TIP3   OH252180   1.685   0.365  13.639 -0.1807 -0.4840 -0.2363
10230TIP3    H152181   1.773   0.399  13.652 -0.5883  0.0419  1.2370
10230TIP3    H252182   1.670   0.307  13.714 -0.5249 -1.7653 -1.2802
10231TIP3   OH252183   3.246   2.734  12.687 -0.1994 -0.1753  0.1362
10231TIP3    H152184   3.227   2.790  12.611 -0.2934 -0.9287 -0.4049
10231TIP3    H252185   3.218   2.785  12.762  0.6972  0.9561 -0.2693
10232TIP3   OH252186   6.315   5.697   0.496  0.0228 -0.2615  0.3918
10232TIP3    H152187   6.229   5.718   0.533  0.7751  1.0544  1.4707
10232TIP3    H252188   6.296   5.656   0.412 -1.6526  0.6201  0.3104
10233TIP3   OH252189   2.843   1.508   4.613  0.9415 -0.4605 -0.6520
10233TIP3    H152190   2.826   1.548   4.528 -0.8273  0.0912 -0.0596
10233TIP3    H252191   2.765   1.527   4.665  2.6531  0.6417  1.6279
10234TIP3   OH252192   0.427   0.013   4.836  0.0788 -0.2826 -0.0227
10234TIP3    H152193   0.522   0.011   4.851  0.7325 -0.9642 -3.6336
10234TIP3    H252194   0.412   0.096   4.789 -1.4344  0.7416  2.2029
10235TIP3   OH252195   0.136   3.343   1.800 -0.7876  0.2076  0.6187
10235TIP3    H152196   0.228   3.366   1.783 -0.9798  1.1916  0.8638
10235TIP3    H252197   0.141   3.259   1.844 -0.0609 -0.3031 -0.4129
10236TIP3   OH252198   6.547   2.079  14.885  0.3688 -0.3755  0.3890
10236TIP3    H152199   6.586   2.060  14.970 -0.9633 -1.3110  0.8030
10236TIP3    H252200   6.522   2.172  14.891  0.9005 -0.2549  0.7617
10237TIP3   OH252201   4.876   5.519   4.971  0.0914 -0.2071  0.0521
10237TIP3    H152202   4.785   5.500   4.952  0.0742  0.7210 -0.8510
10237TIP3    H252203   4.879   5.531   5.066 -0.7320 -0.1898  0.0798
10238TIP3   OH252204   2.794   3.758  16.099 -0.5173 -0.1997  0.0692
10238TIP3    H152205   2.826   3.779  16.187  1.1877  0.7905 -0.7625
10238TIP3    H252206   2.811   3.664  16.089  1.7031  0.2162 -0.1759
10239TIP3   OH252207   4.174   5.328   4.716  0.1237  0.3309 -0.7058
10239TIP3    H152208   4.173   5.313   4.621  1.2979  0.8565 -0.7976
10239TIP3    H252209   4.113   5.401   4.729  1.0942  1.2361 -1.2203
10240TIP3   OH252210   3.819   4.860   2.032 -0.1666 -0.0096 -0.1542
10240TIP3    H152211   3.858   4.796   1.972  0.9328  0.0695  0.4712
10240TIP3    H252212   3.778   4.807   2.100 -1.4183 -0.0994 -0.9635
10241TIP3   OH252213   0.847   3.802  12.042  0.5130  0.1954  0.8308
10241TIP3    H152214   0.906   3.864  11.998  1.2470 -2.3485 -1.8927
10241TIP3    H252215   0.900   3.763  12.111  1.3889 -0.5539 -0.2553
10242TIP3   OH252216   4.985   0.632  11.633 -0.2515  0.2276  0.1329
10242TIP3    H152217   4.970   0.574  11.708 -0.4876  0.2710  0.1209
10242TIP3    H252218   5.078   0.622  11.613  0.3113  1.8629  1.7878
10243TIP3   OH252219   0.806   0.697   0.365  0.0397 -0.0860  0.4170
10243TIP3    H152220   0.822   0.693   0.271 -0.8944  3.1879  0.0423
10243TIP3    H252221   0.889   0.670   0.405  0.2212 -2.1441 -1.3124
10244TIP3   OH252222   2.055   5.462   3.132 -0.2374 -0.2129 -0.1488
10244TIP3    H152223   2.146   5.476   3.108 -0.0935  2.1634  1.7320
10244TIP3    H252224   2.057   5.390   3.195  0.3614  0.1375  0.2251
10245TIP3   OH252225   1.637   0.498   3.379  0.1481 -0.5126 -0.1674
10245TIP3    H152226   1.567   0.505   3.443 -2.5477  0.6422 -3.0880
10245TIP3    H252227   1.631   0.408   3.346  2.6067 -1.6336  2.2822
10246TIP3   OH252228   2.585   1.551  15.422  0.2104  0.1809  0.1852
10246TIP3    H152229   2.604   1.493  15.496  1.5026  1.2486  0.7051
10246TIP3    H252230   2.558   1.633  15.462  0.6284  0.6697 -0.5263
10247TIP3   OH252231   6.142   0.233   4.497 -0.1764  0.1072 -0.3634
10247TIP3    H152232   6.066   0.264   4.449  0.0794  0.4076 -0.5780
10247TIP3    H252233   6.217   0.264   4.446  0.0914 -2.8376 -1.8355
10248TIP3   OH252234   2.127   1.396   3.407  0.0516  0.3433 -0.5510
10248TIP3    H152235   2.057   1.341   3.442  0.5023  1.0879  1.5755
10248TIP3    H252236   2.166   1.343   3.337  0.0812 -1.8065  1.0425
10249TIP3   OH252237   0.636   4.878   5.942 -0.2808 -0.9113  0.1641
10249TIP3    H152238   0.649   4.873   5.847 -0.5962  1.0285 -0.0114
10249TIP3    H252239   0.555   4.829   5.957 -0.1693 -1.3276 -0.5505
10250TIP3   OH252240   1.272   3.238  13.166 -0.2095 -0.2250  0.0548
10250TIP3    H152241   1.242   3.151  13.141 -0.8145 -0.4335  1.4283
10250TIP3    H252242   1.193   3.285  13.191  0.4410 -0.4280  2.6665
10251TIP3   OH252243   6.751   2.516   3.478 -0.2380  0.2041  0.0336
10251TIP3    H152244   6.738   2.490   3.387  1.2604  1.3618 -0.5145
10251TIP3    H252245   6.677   2.476   3.524 -1.0795 -0.2905 -1.6924
10252TIP3   OH252246   0.462   5.568   1.653 -0.2834  0.0555 -0.0590
10252TIP3    H152247   0.393   5.506   1.629  0.3059 -0.5376 -0.2416
10252TIP3    H252248   0.421   5.625   1.718 -0.4686 -1.3402  1.0845
10253TIP3   OH252249   0.044   3.967   5.475 -0.2278 -0.0149 -0.0163
10253TIP3    H152250   0.117   3.928   5.522  0.6538 -0.8579 -2.0127
10253TIP3    H252251   0.078   4.048   5.439  0.0129 -0.7917 -1.6194
10254TIP3   OH252252   2.846   2.343   3.249 -0.5111  0.1477  0.3770
10254TIP3    H152253   2.911   2.390   3.302 -0.5384 -2.5761  2.9283
10254TIP3    H252254   2.762   2.365   3.290 -0.6720 -0.7347  0.5326
10255TIP3   OH252255   4.415   5.127  13.030  0.2344 -0.1656 -0.2331
10255TIP3    H152256   4.501   5.084  13.035  0.6537  0.5715 -0.9191
10255TIP3    H252257   4.432   5.206  12.979 -0.6632  0.4836  0.4900
10256TIP3   OH252258   0.032   2.331  15.984  0.0922 -0.2123  0.5002
10256TIP3    H152259   0.000   2.279  15.910 -2.0532  1.7858 -0.0502
10256TIP3    H252260  -0.047   2.370  16.022  1.5020  1.6927  1.5969
10257TIP3   OH252261   6.811   2.235   5.834  0.0021 -0.3887 -0.0117
10257TIP3    H152262   6.900   2.236   5.868  1.2191  1.9786 -3.0435
10257TIP3    H252263   6.809   2.306   5.769 -3.7267 -1.1888 -0.8913
10258TIP3   OH252264   0.321   2.426  11.028 -0.5153  0.0759  0.0669
10258TIP3    H152265   0.252   2.367  10.999 -1.6007  1.9409 -1.3160
10258TIP3    H252266   0.382   2.431  10.954 -1.7674  2.6107 -0.8448
10259TIP3   OH252267   3.021   3.074   1.811 -0.0306  0.4937 -0.2309
10259TIP3    H152268   3.105   3.086   1.766 -0.1498  1.3993 -0.2169
10259TIP3    H252269   2.969   3.151   1.786 -0.8999 -0.1121 -0.3249
10260TIP3   OH252270   0.173   0.300  11.590  0.2329  0.7426 -0.2500
10260TIP3    H152271   0.237   0.364  11.558  1.4796 -0.3234  0.0392
10260TIP3    H252272   0.188   0.296  11.684  0.0555  0.1627 -0.2409
10261TIP3   OH252273   4.369   3.105  13.128 -0.1642  0.0744 -0.7168
10261TIP3    H152274   4.294   3.160  13.105 -1.6455 -1.4252  0.4964
10261TIP3    H252275   4.343   3.061  13.209  0.7090 -3.0135 -2.0730
10262TIP3   OH252276   4.722   5.414   6.578 -0.0242 -0.2906 -0.7211
10262TIP3    H152277   4.796   5.458   6.619 -0.3265  1.2281 -1.7967
10262TIP3    H252278   4.744   5.321   6.584  0.5200 -0.0428  1.7165
10263TIP3   OH252279   5.773   4.076   2.735 -0.4902  0.1264 -0.1193
10263TIP3    H152280   5.755   4.068   2.641  0.6866  1.4654 -0.4645
10263TIP3    H252281   5.687   4.087   2.775 -0.8360  1.5562 -1.2521
10264TIP3   OH252282   0.667   1.503  11.971 -0.2048 -0.6155  0.1338
10264TIP3    H152283   0.690   1.541  11.886  1.0294 -0.1223  0.6762
10264TIP3    H252284   0.572   1.490  11.966 -0.1873 -0.3408 -1.2158
10265TIP3   OH252285   3.371   3.991  15.715  0.0395 -0.0535  0.2918
10265TIP3    H152286   3.431   4.062  15.736  0.5060 -0.3118 -0.1746
10265TIP3    H252287   3.334   3.964  15.800  1.3097 -0.5525  0.6949
10266TIP3   OH252288   2.534   0.072   4.894 -0.2564  0.3743 -0.1984
10266TIP3    H152289   2.530   0.042   4.804  1.4065 -0.7752  0.0846
10266TIP3    H252290   2.613   0.126   4.898  0.0006 -0.0546  0.6903
10267TIP3   OH252291   6.705   1.868   2.000 -0.3391 -0.3593  0.0591
10267TIP3    H152292   6.682   1.849   1.909  1.3782  1.3369 -0.7697
10267TIP3    H252293   6.706   1.782   2.043  1.5458 -1.5111 -2.1671
10268TIP3   OH252294   3.725   4.133  10.944 -0.3927 -0.0539 -0.5011
10268TIP3    H152295   3.631   4.118  10.933 -0.2798 -0.1488 -1.4173
10268TIP3    H252296   3.732   4.194  11.017 -1.2261  0.7196 -1.0590
10269TIP3   OH252297   1.719   6.802  14.229  0.3704  0.0113  0.3287
10269TIP3    H152298   1.663   6.795  14.306 -1.6893 -1.9501 -1.2602
10269TIP3    H252299   1.686   6.879  14.182 -0.9412 -1.0477 -0.5227
10270TIP3   OH252300   0.520   2.779   6.090  0.3668 -0.0155  0.0900
10270TIP3    H152301   0.445   2.815   6.137  0.0136  0.0017 -0.4865
10270TIP3    H252302   0.558   2.715   6.150 -0.9556 -1.0759 -0.1783
10271TIP3   OH252303   2.596   5.722  13.293  0.6592  0.0369 -0.3090
10271TIP3    H152304   2.689   5.712  13.272  0.6768  0.0668 -0.2436
10271TIP3    H252305   2.555   5.744  13.209  0.3078 -2.5847 -0.8605
10272TIP3   OH252306   1.949   3.311   3.317 -0.6970  0.8779 -0.6328
10272TIP3    H152307   2.042   3.317   3.338 -0.7068 -0.1552 -0.2636
10272TIP3    H252308   1.910   3.390   3.353  0.1513  1.6352 -1.3733
10273TIP3   OH252309   3.255   6.620   3.461 -0.7492 -0.1162  0.0647
10273TIP3    H152310   3.266   6.619   3.556 -0.0028 -0.5956 -0.0204
10273TIP3    H252311   3.171   6.663   3.447 -1.8236 -1.8032  1.0458
10274TIP3   OH252312   1.839   2.407   1.261 -0.1982 -0.0113 -0.5187
10274TIP3    H152313   1.817   2.383   1.351  0.4788 -0.2399 -0.4105
10274TIP3    H252314   1.816   2.329   1.209 -1.7406  0.5549 -0.7264
10275TIP3   OH252315   1.482   1.695   5.866  0.1385 -0.4507  0.4797
10275TIP3    H152316   1.547   1.661   5.929  0.7465  1.1780  0.7561
10275TIP3    H252317   1.448   1.774   5.907 -1.1122 -0.5946 -0.2564
10276TIP3   OH252318   4.311   2.814  15.424 -0.2773  0.1591  0.6092
10276TIP3    H152319   4.258   2.891  15.408 -0.3624  0.4875  2.3097
10276TIP3    H252320   4.289   2.753  15.354 -1.2954  1.1170  0.0955
10277TIP3   OH252321   5.462   2.397   3.669 -0.0635 -0.8108 -0.1596
10277TIP3    H152322   5.406   2.320   3.660 -0.5288 -0.3908 -0.8750
10277TIP3    H252323   5.532   2.368   3.728 -0.3840 -1.6980 -0.2009
10278TIP3   OH252324   4.621   3.498   2.769  0.4258  0.0719 -0.3271
10278TIP3    H152325   4.629   3.579   2.820 -2.7024 -0.3673  0.9494
10278TIP3    H252326   4.650   3.522   2.681 -0.9038  2.7162 -0.0867
10279TIP3   OH252327   2.264   2.468  15.655  0.0886  0.1131  0.5300
10279TIP3    H152328   2.184   2.445  15.607 -0.5289 -1.2540  2.1862
10279TIP3    H252329   2.314   2.521  15.593 -0.6071 -1.7560 -1.7055
10280TIP3   OH252330   2.849   5.886  13.251  0.6716  0.1160  0.2003
10280TIP3    H152331   2.877   5.973  13.279 -2.9590  0.5070  2.9782
10280TIP3    H252332   2.820   5.898  13.161  0.4047  1.7351  0.4941
10281TIP3   OH252333   5.382   1.907   2.408 -0.5617 -0.6372  0.2350
10281TIP3    H152334   5.336   1.920   2.325  0.3495 -0.2169 -0.2122
10281TIP3    H252335   5.365   1.816   2.431 -2.1392 -0.3084  0.3972
10282TIP3   OH252336   4.740   0.876   3.718  0.5157 -0.2015 -0.6385
10282TIP3    H152337   4.672   0.932   3.680 -0.2814  0.1858  1.2710
10282TIP3    H252338   4.722   0.789   3.681 -0.8933 -0.0553 -0.3318
10283TIP3   OH252339   4.770   4.287  14.831 -0.2962 -0.2628  0.5164
10283TIP3    H152340   4.848   4.326  14.869 -0.8141  0.0457  1.2952
10283TIP3    H252341   4.798   4.201  14.801  0.0858 -0.6079  1.8149
10284TIP3   OH252342   6.707   0.167   0.056  0.4326  0.0304  0.1436
10284TIP3    H152343   6.717   0.086   0.107  1.7904 -0.3209 -0.6804
10284TIP3    H252344   6.620   0.159   0.017  0.2796 -0.7170  0.6153
10285TIP3   OH252345   2.502   4.287   4.497  0.2057  0.2916  0.2588
10285TIP3    H152346   2.480   4.234   4.574  1.3270  0.4392  0.6845
10285TIP3    H252347   2.553   4.228   4.441 -0.4793  0.2300 -0.3085
10286TIP3   OH252348   1.069   3.816   0.581 -0.3624  0.2735  0.2070
10286TIP3    H152349   0.979   3.816   0.547 -0.2718  0.6299 -0.0241
10286TIP3    H252350   1.058   3.812   0.676 -0.6587  3.2752  0.3176
10287TIP3   OH252351   0.514   5.398  16.491  0.2134  0.0211 -0.1729
10287TIP3    H152352   0.472   5.400  16.577  0.3149  2.2089 -0.1556
10287TIP3    H252353   0.470   5.326  16.445 -2.3737  1.1367  0.4439
10288TIP3   OH252354   3.908   0.477  16.850  0.3848 -0.7599  0.3655
10288TIP3    H152355   3.896   0.383  16.863  0.0077 -0.6837  0.5777
10288TIP3    H252356   3.820   0.510  16.834  0.3002 -0.2045  1.8837
10289TIP3   OH252357   4.671   1.704   1.141  1.1030  0.7109 -0.0390
10289TIP3    H152358   4.740   1.729   1.079  1.4602  0.8831  0.4217
10289TIP3    H252359   4.713   1.642   1.200  1.0270  1.2745  0.6087
10290TIP3   OH252360   5.810   4.932   3.757  0.2313  0.4221  0.2343
10290TIP3    H152361   5.765   4.896   3.833  0.2586 -1.9766 -0.8379
10290TIP3    H252362   5.743   4.934   3.689  0.6451  0.8741 -0.1591
10291TIP3   OH252363   6.072   2.933   5.467 -0.9445 -0.1158 -0.2801
10291TIP3    H152364   6.025   2.854   5.492  0.6912 -0.8352  0.6227
10291TIP3    H252365   6.111   2.912   5.382 -0.9517 -0.0735 -0.2944
10292TIP3   OH252366   0.807   1.492  11.606 -0.0004 -0.4297 -0.4478
10292TIP3    H152367   0.782   1.467  11.517 -0.0822 -1.4320 -0.1535
10292TIP3    H252368   0.762   1.575  11.621 -0.1353 -0.3448 -1.2709
10293TIP3   OH252369   2.438   1.241   5.372  0.1341 -0.6692 -1.1299
10293TIP3    H152370   2.411   1.270   5.284  1.1028 -0.2814 -1.3019
10293TIP3    H252371   2.394   1.157   5.384 -2.6213  0.7662 -0.6928
10294TIP3   OH252372   5.257   0.274   2.275 -0.5277 -0.3179 -0.2204
10294TIP3    H152373   5.202   0.210   2.320  0.5739 -0.3661  1.0871
10294TIP3    H252374   5.308   0.314   2.345 -0.3259  1.1309 -1.1783
10295TIP3   OH252375   5.693   3.306   5.782  0.3675 -0.1624  0.5009
10295TIP3    H152376   5.760   3.356   5.735 -0.5069  2.4361  1.9119
10295TIP3    H252377   5.624   3.370   5.799 -1.3984 -2.2247  1.1939
10296TIP3   OH252378   1.973   3.468  15.174 -0.2678 -0.4215 -0.1267
10296TIP3    H152379   1.957   3.439  15.264 -0.0589  0.0443  0.0603
10296TIP3    H252380   2.068   3.477  15.168 -0.3350  0.2875 -0.1640
10297TIP3   OH252381   4.714   1.174  17.181 -0.0288 -0.4487  0.2663
10297TIP3    H152382   4.779   1.134  17.239  1.4157 -0.1000 -1.0786
10297TIP3    H252383   4.703   1.112  17.110 -1.5118 -0.7003  0.7037
10298TIP3   OH252384   3.603   0.831   4.706  0.1447  0.2697  0.3121
10298TIP3    H152385   3.591   0.881   4.625 -2.4017 -0.0606  0.4454
10298TIP3    H252386   3.626   0.897   4.771 -0.9348  0.9779 -0.0096
10299TIP3   OH252387   4.820   6.304   1.505 -0.4842 -0.0820  0.1126
10299TIP3    H152388   4.740   6.271   1.464 -0.0676 -0.1793 -0.6443
10299TIP3    H252389   4.870   6.342   1.432 -0.5753  1.4557  0.8187
10300TIP3   OH252390   1.937   4.509  15.339 -0.2148  0.3202 -0.0461
10300TIP3    H152391   2.030   4.517  15.317  0.0357 -0.2827  0.7271
10300TIP3    H252392   1.932   4.533  15.431 -0.8687  0.5974 -0.1505
10301TIP3   OH252393   0.723   3.490  14.375 -0.2933 -0.4468 -0.2012
10301TIP3    H152394   0.677   3.574  14.385  0.4635  0.3890 -3.2867
10301TIP3    H252395   0.803   3.512  14.328  0.3736 -2.7725 -0.2023
10302TIP3   OH252396   4.185   5.803   3.409  0.1654  0.1088  0.3038
10302TIP3    H152397   4.279   5.801   3.389  0.0101  0.5602 -0.5022
10302TIP3    H252398   4.172   5.886   3.455  0.2420 -0.1872  0.8721
10303TIP3   OH252399   3.929   4.122   1.259 -0.1273  0.0924 -0.5272
10303TIP3    H152400   3.965   4.198   1.214 -2.0822  2.2330  1.4152
10303TIP3    H252401   3.835   4.126   1.242 -0.4286 -1.1174  0.7498
10304TIP3   OH252402   0.442   6.167   0.021  0.0659 -0.4625  0.5044
10304TIP3    H152403   0.360   6.186  -0.025  0.2328 -0.5349  0.1744
10304TIP3    H252404   0.509   6.165  -0.048  0.2936 -0.7145  0.7308
10305TIP3   OH252405   2.950   0.295  11.762 -0.3210  0.3164  0.0304
10305TIP3    H152406   2.943   0.373  11.706 -1.7016  0.1510 -0.0324
10305TIP3    H252407   2.860   0.267  11.776  0.0936 -0.4410  1.2421
10306TIP3   OH252408   5.213   5.889   4.479  0.1207 -0.1760 -0.3641
10306TIP3    H152409   5.146   5.908   4.545  1.6763 -1.0901  1.5295
10306TIP3    H252410   5.291   5.934   4.511  0.5993  0.3698 -2.2286
10307TIP3   OH252411   6.364   6.708  11.392 -0.2853 -0.3527  0.7024
10307TIP3    H152412   6.312   6.679  11.317  2.4359  0.1719 -1.4520
10307TIP3    H252413   6.432   6.641  11.402 -0.0213  0.0992  2.0951
10308TIP3   OH252414   6.102   6.151   6.541  0.1565 -0.6301  0.4590
10308TIP3    H152415   6.166   6.169   6.472 -0.5088  0.1394  0.0399
10308TIP3    H252416   6.025   6.119   6.495  0.1780 -1.4282  0.9551
10309TIP3   OH252417   5.157   3.788   2.132  0.1264  0.8409 -0.0934
10309TIP3    H152418   5.070   3.801   2.170  0.3628  0.3180  0.6511
10309TIP3    H252419   5.177   3.696   2.150  0.6759  0.8631 -0.5875
10310TIP3   OH252420   2.283   1.661   4.162 -0.1282 -0.1502 -0.0382
10310TIP3    H152421   2.191   1.638   4.165 -0.1666  0.0571  0.3890
10310TIP3    H252422   2.317   1.638   4.248  0.2384 -0.3025 -0.2189
10311TIP3   OH252423   6.359   0.285  15.446 -0.1991  0.1340 -0.1757
10311TIP3    H152424   6.446   0.310  15.415 -0.8617  1.3539 -1.0987
10311TIP3    H252425   6.299   0.339  15.395 -1.4750 -0.3451  0.7906
10312TIP3   OH252426   1.530   3.841  16.173  0.1710 -0.0895  0.0260
10312TIP3    H152427   1.469   3.914  16.185 -1.0034 -1.1515  0.6483
10312TIP3    H252428   1.543   3.836  16.078 -0.8908 -0.0102 -0.1266
10313TIP3   OH252429   4.876   1.349  17.063 -0.0630 -0.3435  0.0159
10313TIP3    H152430   4.830   1.290  17.122  0.2108 -1.3649 -0.7667
10313TIP3    H252431   4.808   1.382  17.004 -0.0941 -0.4993 -0.0362
10314TIP3   OH252432   5.891   3.225  11.322 -0.3193 -0.0598  0.1474
10314TIP3    H152433   5.919   3.249  11.411  0.4427 -1.8789  0.4200
10314TIP3    H252434   5.966   3.178  11.286 -0.1150  1.7971 -1.9499
10315TIP3   OH252435   6.455   3.587  12.804 -0.1433  0.0701 -0.2189
10315TIP3    H152436   6.372   3.581  12.757  0.3398 -0.7024 -0.9882
10315TIP3    H252437   6.449   3.520  12.872  0.2637 -0.6950 -0.9324
10316TIP3   OH252438   0.925   2.443   0.947 -0.2590 -0.1416  0.0087
10316TIP3    H152439   0.987   2.508   0.914 -0.4821 -0.5976 -1.3796
10316TIP3    H252440   0.889   2.481   1.026  0.3965  0.9571 -0.2146
10317TIP3   OH252441   0.506   2.543   1.208  0.1540  0.0731 -0.1603
10317TIP3    H152442   0.567   2.582   1.145 -0.5129  1.0900 -0.1831
10317TIP3    H252443   0.490   2.612   1.272 -2.0942  0.3097 -0.9434
10318TIP3   OH252444   5.170   2.083  16.256 -0.4166 -0.5622  0.4788
10318TIP3    H152445   5.087   2.035  16.250 -0.6529 -0.1241  0.2282
10318TIP3    H252446   5.147   2.166  16.296 -0.2944  0.0339 -0.6778
10319TIP3   OH252447   4.842   1.791  16.546 -0.0519 -0.0163  0.3298
10319TIP3    H152448   4.850   1.879  16.511  0.5974  0.2086  1.0187
10319TIP3    H252449   4.931   1.755  16.542 -0.2535 -0.5238  0.3347
10320TIP3   OH252450   6.270   4.325   1.946  0.4182  0.3353 -0.4147
10320TIP3    H152451   6.365   4.311   1.940  0.4958  0.2579  0.7788
10320TIP3    H252452   6.257   4.413   1.911  0.5998 -0.5892 -2.9300
10321TIP3   OH252453   3.983   5.225   6.156  0.4056 -0.3311 -0.2613
10321TIP3    H152454   4.077   5.219   6.172  0.5079  0.6123 -0.4726
10321TIP3    H252455   3.976   5.270   6.072 -0.2362 -0.5274 -0.3204
10322TIP3   OH252456   5.324   6.682   0.762 -0.0303  0.2401 -0.6558
10322TIP3    H152457   5.407   6.718   0.793  0.8541 -0.8706 -1.6757
10322TIP3    H252458   5.299   6.738   0.689 -0.6823  1.1565  0.2546
10323TIP3   OH252459   3.801   0.824   2.936 -0.1056 -0.3948  0.1237
10323TIP3    H152460   3.847   0.887   2.992 -1.5736 -0.1334  1.0620
10323TIP3    H252461   3.733   0.787   2.993 -0.7650 -1.0905 -1.1097
10324TIP3   OH252462   1.935   1.328   1.178  0.3343  0.0002 -0.2248
10324TIP3    H152463   2.007   1.306   1.119  0.5750  0.1167  0.0252
10324TIP3    H252464   1.864   1.354   1.120  0.1679 -1.0636 -0.5212
10325TIP3   OH252465   0.196   6.501  16.078 -0.3503  0.0285  0.2994
10325TIP3    H152466   0.213   6.410  16.104 -1.1265  0.3047  1.8643
10325TIP3    H252467   0.113   6.497  16.032  0.8111 -0.3990 -1.8139
10326TIP3   OH252468   5.684   1.562  11.029  0.5256 -0.2040  0.0229
10326TIP3    H152469   5.627   1.601  10.962  0.4836 -1.0825 -0.4613
10326TIP3    H252470   5.738   1.500  10.981 -0.8900 -2.3376  1.0899
10327TIP3   OH252471   2.986   4.973  12.828 -0.6030 -0.3226 -0.2699
10327TIP3    H152472   2.979   5.012  12.741 -0.2355 -0.7720 -0.5051
10327TIP3    H252473   3.068   4.924  12.825 -0.0688  0.5044  0.6665
10328TIP3   OH252474   5.057   4.739   3.048  0.5507 -0.2816  0.4271
10328TIP3    H152475   4.981   4.797   3.048  0.8476  0.1093  0.9607
10328TIP3    H252476   5.082   4.733   3.140  0.1360 -1.7670  0.4560
10329TIP3   OH252477   3.249   6.337  16.189 -0.2760 -0.6740  0.1319
10329TIP3    H152478   3.256   6.289  16.271  0.9358  1.1171  1.0944
10329TIP3    H252479   3.186   6.407  16.207  2.0744  1.4442  0.4192
10330TIP3   OH252480   0.267   0.210  13.819  0.3183 -0.1267 -0.0231
10330TIP3    H152481   0.341   0.153  13.798  0.9206 -0.1301  1.9983
10330TIP3    H252482   0.304   0.279  13.874 -0.8337  0.9667 -0.5829
10331TIP3   OH252483   0.764   4.529  13.609 -0.5614 -0.6586  0.0925
10331TIP3    H152484   0.844   4.546  13.561 -0.5014 -0.5210  0.2414
10331TIP3    H252485   0.694   4.565  13.554 -0.4934 -0.5054  0.1067
10332TIP3   OH252486   4.917   0.138   3.537 -0.5572 -0.1210 -0.4395
10332TIP3    H152487   4.960   0.187   3.468 -0.0546  0.2513  0.1299
10332TIP3    H252488   4.987   0.090   3.580 -0.7822  0.0451  0.1259
10333TIP3   OH252489   3.737   2.777   1.584 -0.2144  0.2089  0.1335
10333TIP3    H152490   3.671   2.716   1.551 -1.5230  1.5034  0.3512
10333TIP3    H252491   3.776   2.732   1.658 -1.4346 -0.2136  0.5272
10334TIP3   OH252492   2.746   6.737  11.206  0.2459  0.3007 -0.1243
10334TIP3    H152493   2.743   6.754  11.112  2.2592 -2.3820 -0.7560
10334TIP3    H252494   2.801   6.807  11.241  1.2752  0.1105 -1.3024
10335TIP3   OH252495   3.364   2.186  14.293 -0.1859 -0.5973 -0.5503
10335TIP3    H152496   3.407   2.272  14.293  1.2420 -1.2982  1.1658
10335TIP3    H252497   3.435   2.124  14.307 -1.1362 -2.1313 -2.2936
10336TIP3   OH252498   4.088   0.158   4.935 -0.7088 -0.3654  0.0326
10336TIP3    H152499   4.095   0.210   4.855  1.2433 -0.1622  0.3258
10336TIP3    H252500   4.057   0.072   4.905 -2.0780  0.3585 -0.6702
10337TIP3   OH252501   4.327   6.569   0.195 -0.2819  0.3499  0.1795
10337TIP3    H152502   4.270   6.506   0.150  1.7641 -0.9264 -0.7487
10337TIP3    H252503   4.394   6.515   0.236  1.1707  1.8953 -0.1077
10338TIP3   OH252504   5.029   4.083   0.530 -0.3393  0.8859  0.4409
10338TIP3    H152505   4.988   4.049   0.609 -0.0597 -0.9258 -0.1704
10338TIP3    H252506   4.958   4.086   0.465  0.3238 -1.8438 -0.4914
10339TIP3   OH252507   1.435   4.932  12.580  0.3236 -0.5925  0.0283
10339TIP3    H152508   1.415   4.838  12.586 -1.7244 -0.2100 -0.4864
10339TIP3    H252509   1.471   4.954  12.666  0.2598 -1.7359  0.3603
10340TIP3   OH252510   0.678   0.758   4.161  0.4386 -0.4337 -0.2961
10340TIP3    H152511   0.717   0.690   4.216 -1.5216 -1.4674 -0.1509
10340TIP3    H252512   0.627   0.811   4.222  0.1415 -0.1807 -0.7632
10341TIP3   OH252513   5.781   0.777   5.540 -0.0978  0.3075  0.0056
10341TIP3    H152514   5.772   0.735   5.454  0.3380  0.2849 -0.0265
10341TIP3    H252515   5.788   0.704   5.601 -0.9154  0.3186  0.1135
10342TIP3   OH252516   2.073   4.726   5.286 -0.2565 -0.1404 -0.2002
10342TIP3    H152517   2.003   4.663   5.302  0.0265 -0.0097  1.6736
10342TIP3    H252518   2.055   4.761   5.199 -1.6714 -1.1857 -0.3388
10343TIP3   OH252519   6.814   4.639   4.922  0.7098  0.2044 -0.2218
10343TIP3    H152520   6.728   4.620   4.885  0.4707  0.0559  0.3999
10343TIP3    H252521   6.828   4.732   4.904 -0.4034  0.6934  1.2971
10344TIP3   OH252522   6.564   0.489  12.562  0.1309 -0.6884 -0.0842
10344TIP3    H152523   6.500   0.425  12.594  1.0511 -2.6665 -2.0211
10344TIP3    H252524   6.518   0.536  12.492  0.5318 -1.5916 -0.9655
10345TIP3   OH252525   2.417   2.901   6.508  0.4596  0.0134 -0.1261
10345TIP3    H152526   2.431   2.818   6.554 -2.0151 -1.7118 -2.3534
10345TIP3    H252527   2.326   2.897   6.478 -0.1830  4.2259  1.0192
10346TIP3   OH252528   5.495   3.923   0.553 -0.2018  0.1096  0.2784
10346TIP3    H152529   5.438   3.877   0.492 -0.6008 -0.7581  1.2978
10346TIP3    H252530   5.456   3.909   0.639  0.8310  0.5738  0.8402
10347TIP3   OH252531   3.611   6.325  15.021 -0.0229  0.1373  0.6326
10347TIP3    H152532   3.533   6.350  14.972  1.0762  0.7087 -0.8695
10347TIP3    H252533   3.605   6.374  15.103 -2.3457 -1.5220  1.5332
10348TIP3   OH252534   5.665   3.662   0.978 -0.2649 -0.2380 -0.3572
10348TIP3    H152535   5.733   3.728   0.969 -0.0153 -0.6531 -1.5715
10348TIP3    H252536   5.711   3.584   1.011 -0.4123 -0.0745  0.2455
10349TIP3   OH252537   1.991   5.287  12.589  0.2346  0.1614 -0.4637
10349TIP3    H152538   1.947   5.253  12.668  0.7065  0.1639 -0.1970
10349TIP3    H252539   2.036   5.366  12.619 -1.6932  1.6159 -1.3026
10350TIP3   OH252540   0.337   1.671  13.966 -0.2128 -0.4266 -0.1313
10350TIP3    H152541   0.282   1.674  14.044 -1.2134  0.7895 -0.8684
10350TIP3    H252542   0.310   1.747  13.914  2.7290  0.6917 -0.1412
10351TIP3   OH252543   0.804   6.395   3.914 -0.0573 -0.0942 -0.1422
10351TIP3    H152544   0.843   6.483   3.919 -0.9178  0.2453  0.7952
10351TIP3    H252545   0.783   6.383   3.822  0.0469  0.6987 -0.2741
10352TIP3   OH252546   2.078   3.101  13.674 -0.4366  0.0925 -0.4833
10352TIP3    H152547   2.008   3.078  13.613  0.0751 -1.3201 -0.5735
10352TIP3    H252548   2.096   3.193  13.657 -2.1538  0.4336 -0.5727
10353TIP3   OH252549   3.980   5.887  12.488  0.7545 -0.3018  0.7017
10353TIP3    H152550   4.012   5.965  12.442  0.5954 -0.5549  0.1572
10353TIP3    H252551   3.894   5.912  12.520  0.9271 -0.0753  0.9960
10354TIP3   OH252552   5.509   5.810  16.247  0.0485 -0.1571  0.2203
10354TIP3    H152553   5.480   5.770  16.165  1.6760 -1.7482  0.3905
10354TIP3    H252554   5.434   5.801  16.306  0.1075 -2.2897  0.0074
10355TIP3   OH252555   1.775   4.267  15.384  0.2734 -0.0818 -0.3151
10355TIP3    H152556   1.758   4.358  15.358  2.3047  0.5736  0.5364
10355TIP3    H252557   1.868   4.255  15.368  0.3493 -1.5125  1.0964
10356TIP3   OH252558   0.637   5.837  15.551  0.0255  0.1487  0.4769
10356TIP3    H152559   0.724   5.815  15.518 -0.1622  1.8406 -1.1857
10356TIP3    H252560   0.585   5.758  15.537  1.4527 -1.1649  2.2156
10357TIP3   OH252561   0.866   5.135  12.405  0.7556 -0.1998 -0.3543
10357TIP3    H152562   0.934   5.080  12.367  1.1194 -0.0949  0.1423
10357TIP3    H252563   0.802   5.073  12.440  0.7609 -0.3001 -0.5213
10358TIP3   OH252564   1.470   2.505   3.808 -0.3396  0.1438  0.6297
10358TIP3    H152565   1.458   2.422   3.761 -2.5110  0.0897  1.1947
10358TIP3    H252566   1.380   2.536   3.823  0.3917  4.6226 -3.1266
10359TIP3   OH252567   1.101   2.911   5.329 -0.2960  0.0462 -1.0581
10359TIP3    H152568   1.100   2.840   5.264  1.4504 -0.9953  0.0118
10359TIP3    H252569   1.066   2.871   5.408  3.6761 -0.6238  0.4719
10360TIP3   OH252570   3.119   1.962   2.387  0.0633  0.2657  0.7979
10360TIP3    H152571   3.171   1.974   2.467  0.6415  0.9965  0.3141
10360TIP3    H252572   3.106   2.050   2.354  1.3374 -0.1641 -0.8885
10361TIP3   OH252573   1.036   1.227   5.612 -0.3180 -0.2034 -0.4901
10361TIP3    H152574   1.069   1.138   5.605 -0.2015 -0.1114 -1.0869
10361TIP3    H252575   0.948   1.218   5.649  0.2935 -0.4610  0.9322
10362TIP3   OH252576   1.961   4.005   4.419  0.2290 -0.1806  0.2749
10362TIP3    H152577   1.998   3.945   4.355  1.0202  0.0476  0.5138
10362TIP3    H252578   2.034   4.061   4.444 -0.8267  1.8705 -1.0599
10363TIP3   OH252579   0.056   6.540  16.862  0.2239  0.8173 -0.6590
10363TIP3    H152580   0.073   6.610  16.925  1.8798  0.7775 -1.0582
10363TIP3    H252581   0.142   6.514  16.830 -0.2679 -2.3418  0.4559
10364TIP3   OH252582   0.024   4.256   3.856 -0.0909 -0.8223 -0.1711
10364TIP3    H152583   0.058   4.172   3.826 -0.8933 -0.7255 -1.3807
10364TIP3    H252584   0.076   4.321   3.809 -0.8637 -0.6659 -0.8246
10365TIP3   OH252585   0.202   0.957   0.536 -0.2615 -0.0889 -0.0764
10365TIP3    H152586   0.122   1.010   0.540 -0.9955 -1.1192 -0.9189
10365TIP3    H252587   0.180   0.877   0.583  0.6796  0.1147  0.7322
10366TIP3   OH252588   1.567   4.232   5.781 -0.1987 -0.4797 -0.2217
10366TIP3    H152589   1.489   4.186   5.812 -0.3186 -0.7046 -0.8528
10366TIP3    H252590   1.600   4.177   5.710  0.3704 -0.2362 -0.1468
10367TIP3   OH252591   0.759   0.560   4.314 -0.4031  0.4996 -0.0755
10367TIP3    H152592   0.840   0.512   4.300  0.4465  1.8547  0.1288
10367TIP3    H252593   0.736   0.541   4.405  0.0990  0.7496  0.1014
10368TIP3   OH252594   6.204   6.431  14.224 -0.1573  0.2342 -0.3111
10368TIP3    H152595   6.199   6.498  14.292  1.4292  0.3066 -0.2600
10368TIP3    H252596   6.113   6.401  14.214 -0.5487  0.8824  1.1616
10369TIP3   OH252597   3.204   1.276   4.816  0.3534  0.1596 -0.1415
10369TIP3    H152598   3.147   1.350   4.795  1.3259  0.1993 -2.8867
10369TIP3    H252599   3.157   1.199   4.783 -0.0331 -0.3195  1.4738
10370TIP3   OH252600   6.367   6.714   0.714 -0.3084  0.3210 -0.3164
10370TIP3    H152601   6.388   6.709   0.620 -3.3899  1.1059 -1.1002
10370TIP3    H252602   6.422   6.786   0.746 -2.1488  2.7771 -2.4326
10371TIP3   OH252603   1.005   6.354   6.527 -0.3914  0.5453 -0.0077
10371TIP3    H152604   1.055   6.305   6.592 -1.1815  1.6479  1.4627
10371TIP3    H252605   0.916   6.320   6.533 -0.7983  1.6611  0.5488
10372TIP3   OH252606   1.980   3.744   2.973  0.5045 -0.2366  0.6235
10372TIP3    H152607   1.886   3.756   2.981  0.3743 -0.9110  0.1702
10372TIP3    H252608   1.990   3.656   2.937  1.2369  0.6878 -1.4834
10373TIP3   OH252609   4.909   3.238   3.525  0.4090  0.0498  0.1089
10373TIP3    H152610   4.902   3.150   3.560 -0.3827  0.2556  0.4700
10373TIP3    H252611   4.931   3.293   3.600 -2.0862  0.6113  0.4580
10374TIP3   OH252612   6.552   6.114  15.701  0.8241 -0.7087 -0.0334
10374TIP3    H152613   6.647   6.122  15.688  0.8482 -0.6143  0.1968
10374TIP3    H252614   6.530   6.187  15.758  0.4734 -0.2171 -0.7908
10375TIP3   OH252615   2.297   1.171   4.334 -0.3040  0.1546 -0.3089
10375TIP3    H152616   2.260   1.172   4.422  0.1057  1.6060 -0.1364
10375TIP3    H252617   2.356   1.246   4.333  1.9825 -1.6229 -0.8600
10376TIP3   OH252618   0.995   2.035  11.594 -0.0484 -0.2405 -0.0923
10376TIP3    H152619   0.927   2.102  11.599  0.5080  0.4380 -1.3821
10376TIP3    H252620   1.076   2.082  11.614  0.3375 -0.5443 -0.9317
10377TIP3   OH252621   4.545   5.146   5.826  0.0129 -0.2684  0.0743
10377TIP3    H152622   4.527   5.179   5.914 -0.9125 -1.7807  0.4640
10377TIP3    H252623   4.516   5.217   5.768  2.1254  1.4056  1.0036
10378TIP3   OH252624   6.237   5.480  15.825 -0.2522 -0.4338  0.0298
10378TIP3    H152625   6.157   5.493  15.773  0.7564 -0.5734 -1.5656
10378TIP3    H252626   6.255   5.386  15.817  2.0131  0.1593 -2.5155
10379TIP3   OH252627   4.260   3.014  11.924 -0.1653  0.1042  0.0330
10379TIP3    H152628   4.195   2.993  11.991 -1.4911  0.7462 -1.0261
10379TIP3    H252629   4.229   2.969  11.845  0.0935  1.2724 -0.7527
10380TIP3   OH252630   3.256   3.538  13.773 -1.0127 -0.0855  0.5085
10380TIP3    H152631   3.326   3.590  13.734 -1.0551  0.2280  0.8463
10380TIP3    H252632   3.264   3.451  13.733 -2.1423  0.7147 -1.4936
10381TIP3   OH252633   4.985   4.137   0.891 -0.2627 -0.5621 -0.5814
10381TIP3    H152634   5.064   4.161   0.844  0.7429 -0.7070  0.9819
10381TIP3    H252635   4.952   4.220   0.927 -1.0458 -0.4447 -1.5389
10382TIP3   OH252636   3.871   6.035  11.355 -0.4013 -0.2667  0.4025
10382TIP3    H152637   3.867   5.940  11.344  0.5741 -0.1894 -0.7265
10382TIP3    H252638   3.779   6.062  11.365 -0.7263 -1.2506  0.0844
10383TIP3   OH252639   2.732   4.128  14.143  0.2918  0.5679 -0.4931
10383TIP3    H152640   2.796   4.124  14.215 -0.0346 -0.6134 -0.2556
10383TIP3    H252641   2.783   4.109  14.065  0.5171  1.1456 -0.4856
10384TIP3   OH252642   3.194   2.272  15.043  0.0038  0.2240 -0.5395
10384TIP3    H152643   3.151   2.286  14.958 -1.3963  2.5868  0.4997
10384TIP3    H252644   3.226   2.358  15.068  1.7594 -0.7481  0.6572
10385TIP3   OH252645   3.075   5.603  13.560  1.1246 -0.3622  0.3578
10385TIP3    H152646   3.052   5.528  13.506  0.3591 -1.1086  1.7118
10385TIP3    H252647   3.171   5.605  13.559  1.1637 -1.7974  0.9157
10386TIP3   OH252648   2.938   5.912   6.064  0.5287  0.0042 -0.6283
10386TIP3    H152649   3.011   5.973   6.076  0.2719  0.2465 -0.2767
10386TIP3    H252650   2.967   5.832   6.107 -0.4558  0.9254  1.8535
10387TIP3   OH252651   2.953   0.557   3.626  0.2096 -0.1280  0.8205
10387TIP3    H152652   2.877   0.568   3.684  0.8860 -1.3261  1.9634
10387TIP3    H252653   3.001   0.483   3.664  1.2181 -0.2586 -0.6871
10388TIP3   OH252654   0.605   5.317   0.432  0.1057 -0.2710  0.3342
10388TIP3    H152655   0.681   5.372   0.449 -0.1351 -0.0750  0.7949
10388TIP3    H252656   0.639   5.227   0.433  0.4514 -0.1497 -0.1584
10389TIP3   OH252657   6.040   6.811   2.304 -0.2678  0.4017  0.3473
10389TIP3    H152658   5.979   6.867   2.256  1.6084  0.3709 -2.2052
10389TIP3    H252659   5.993   6.729   2.317 -1.1208  0.7263 -0.6845
10390TIP3   OH252660   0.079   5.408  13.229  0.1239  0.1391  0.3725
10390TIP3    H152661   0.142   5.469  13.189  0.1406 -0.4327 -0.4890
10390TIP3    H252662   0.059   5.447  13.314 -1.7196  2.6383 -1.1339
10391TIP3   OH252663   2.260   4.942  12.228 -0.6198 -1.1170 -0.1151
10391TIP3    H152664   2.268   4.893  12.310 -1.2065 -1.4524 -0.2567
10391TIP3    H252665   2.194   4.894  12.178 -0.9520 -0.3716 -0.3919
10392TIP3   OH252666   0.606   0.672   5.175 -0.3783  0.4231 -0.4659
10392TIP3    H152667   0.523   0.708   5.145  0.2017  0.0886 -2.5869
10392TIP3    H252668   0.643   0.629   5.097  0.7344 -1.3649  1.0038
10393TIP3   OH252669   2.009   2.336   5.355 -0.2733  0.4378  0.2457
10393TIP3    H152670   2.042   2.423   5.332 -0.1565  0.1511 -0.6807
10393TIP3    H252671   1.988   2.295   5.271 -0.3325 -0.4284  0.6766
10394TIP3   OH252672   4.547   4.592  14.194  0.4163 -0.1099 -0.0421
10394TIP3    H152673   4.526   4.650  14.120  0.3687  2.3717  1.8700
10394TIP3    H252674   4.586   4.649  14.259 -0.5740 -2.0635  2.3474
10395TIP3   OH252675   6.025   3.166  16.102 -0.3326  0.1263 -0.4836
10395TIP3    H152676   5.944   3.138  16.058 -0.5215 -2.0304  1.1757
10395TIP3    H252677   6.094   3.149  16.038 -1.0259  0.6193 -1.3736
10396TIP3   OH252678   2.839   4.718  14.882  0.1669  0.1098 -0.4915
10396TIP3    H152679   2.899   4.643  14.881  0.1688  0.1118 -1.1418
10396TIP3    H252680   2.861   4.766  14.962  1.0794  0.1373 -0.7452
10397TIP3   OH252681   6.571   0.971  12.138 -0.1258 -0.1252 -0.0869
10397TIP3    H152682   6.482   0.999  12.117 -1.3279 -1.8437  2.4239
10397TIP3    H252683   6.602   0.928  12.059 -2.4419 -1.6205 -0.2257
10398TIP3   OH252684   2.989   5.027   1.019 -0.1192 -0.0376  0.3748
10398TIP3    H152685   2.933   5.087   1.069  1.2227  2.3294 -0.8251
10398TIP3    H252686   3.036   4.977   1.086  0.7285  2.1873  1.5015
10399TIP3   OH252687   3.695   4.768  15.054  0.0352  0.4319 -0.2975
10399TIP3    H152688   3.744   4.694  15.018  1.3935  1.1680  0.0041
10399TIP3    H252689   3.615   4.729  15.088  0.7814 -0.9141 -0.0433
10400TIP3   OH252690   6.352   1.776   1.754  0.4748 -0.4025  0.0412
10400TIP3    H152691   6.420   1.824   1.801 -0.3262 -0.0915  0.8857
10400TIP3    H252692   6.298   1.737   1.822  0.8177 -2.0963 -0.6413
10401TIP3   OH252693   3.438   3.966  14.647  0.2811 -0.4147 -0.6805
10401TIP3    H152694   3.413   4.045  14.694 -0.2335 -0.6931 -0.4878
10401TIP3    H252695   3.458   3.996  14.558  1.8942  0.2089 -0.1244
10402TIP3   OH252696   1.513   2.417  11.447 -0.3309  0.3230  0.2186
10402TIP3    H152697   1.560   2.361  11.384 -0.3330  1.5120 -0.8640
10402TIP3    H252698   1.501   2.361  11.524 -2.1436 -1.8530 -1.5831
10403TIP3   OH252699   4.802   2.840   5.196  0.7588  0.1029  0.2436
10403TIP3    H152700   4.828   2.930   5.216  0.0035  0.0125  1.7553
10403TIP3    H252701   4.884   2.790   5.198  0.9411  0.4225  1.4158
10404TIP3   OH252702   2.019   2.704   2.665  0.0314 -0.4501  0.0284
10404TIP3    H152703   1.978   2.625   2.701  0.0316 -1.5738 -2.3756
10404TIP3    H252704   2.113   2.691   2.677  0.0601 -1.0618 -0.8577
10405TIP3   OH252705   3.371   4.675  12.008  0.2125  0.0915  0.0550
10405TIP3    H152706   3.318   4.597  11.993  0.7867 -0.5942  1.4728
10405TIP3    H252707   3.356   4.697  12.100  1.2067  0.7756  0.0622
10406TIP3   OH252708   6.623   2.343  13.657  0.1849  0.4582  0.6329
10406TIP3    H152709   6.548   2.357  13.600 -1.1368 -0.7854  2.0482
10406TIP3    H252710   6.699   2.358  13.600 -1.0916 -0.6127 -1.4191
10407TIP3   OH252711   6.412   3.340   0.524  0.0858 -0.5575 -0.8007
10407TIP3    H152712   6.449   3.427   0.507 -2.3202  0.4082 -1.2945
10407TIP3    H252713   6.434   3.322   0.616  4.3923 -1.3899 -1.8815
10408TIP3   OH252714   1.787   3.112   4.746 -0.5401  0.1952  0.0252
10408TIP3    H152715   1.787   3.021   4.715 -2.1110 -0.5572  2.0661
10408TIP3    H252716   1.768   3.164   4.668  2.6991 -0.9743 -1.6778
10409TIP3   OH252717   2.176   5.465   1.482 -0.1737 -0.2965  0.2099
10409TIP3    H152718   2.219   5.385   1.452  1.7779  0.9400 -0.3590
10409TIP3    H252719   2.109   5.482   1.416 -0.5427 -1.3953  0.2889
10410TIP3   OH252720   5.285   4.074  14.955 -0.1371  0.3946  0.6696
10410TIP3    H152721   5.345   4.120  14.896  1.9175 -1.0262  1.5798
10410TIP3    H252722   5.201   4.073  14.908  0.9999  0.8291 -1.4477
10411TIP3   OH252723   4.711   5.161  15.764  0.2998 -0.1361  0.4196
10411TIP3    H152724   4.777   5.099  15.797  0.5205 -0.4988 -0.6805
10411TIP3    H252725   4.635   5.148  15.820  1.0271  0.0157  1.4649
10412TIP3   OH252726   1.231   3.019  17.005 -0.5331  0.1157 -0.2576
10412TIP3    H152727   1.191   3.033  16.919 -1.0551 -0.8559 -0.1776
10412TIP3    H252728   1.303   3.082  17.008 -0.0242 -0.3695 -1.7180
10413TIP3   OH252729   5.758   6.597   3.833 -0.3378  0.0984  0.2657
10413TIP3    H152730   5.759   6.501   3.831 -2.1735  0.0600  0.3817
10413TIP3    H252731   5.677   6.619   3.879  2.1154  1.7146  3.9963
10414TIP3   OH252732   5.842   4.966  15.812 -0.3001 -0.1280  0.0617
10414TIP3    H152733   5.860   5.016  15.732  0.2659 -0.9458 -0.3293
10414TIP3    H252734   5.757   4.925  15.796 -1.7342  2.2921  1.1902
10415TIP3   OH252735   6.002   2.558  11.701  0.1388  0.1397  0.5135
10415TIP3    H152736   6.073   2.503  11.734 -0.7631 -1.8512 -0.7609
10415TIP3    H252737   6.025   2.575  11.610 -0.9251 -0.3906  0.1369
10416TIP3   OH252738   0.388   0.712   4.301  0.0594 -0.4355 -0.3252
10416TIP3    H152739   0.438   0.794   4.296 -0.7428  0.1607  1.2273
10416TIP3    H252740   0.343   0.716   4.385 -0.8516 -1.9865 -0.7199
10417TIP3   OH252741   0.637   2.321  10.973 -0.2188 -0.6618 -0.5405
10417TIP3    H152742   0.580   2.369  10.914 -1.1594  0.5997  1.3430
10417TIP3    H252743   0.649   2.379  11.048  0.1797 -2.5898  0.9365
10418TIP3   OH252744   1.973   1.889   1.056  0.4935 -0.2978 -0.3347
10418TIP3    H152745   2.067   1.907   1.043  0.7841  0.0611  2.1099
10418TIP3    H252746   1.970   1.819   1.120 -0.9418  0.7616  0.7865
10419TIP3   OH252747   6.592   3.817  16.444 -0.5420  0.4686 -0.0938
10419TIP3    H152748   6.588   3.757  16.519  1.1450  1.2085  0.6281
10419TIP3    H252749   6.522   3.789  16.386 -0.9835 -0.9979  1.1318
10420TIP3   OH252750   1.991   0.014  14.211 -0.2894  0.3453 -0.6731
10420TIP3    H152751   2.021  -0.005  14.300 -1.4522  0.4251 -0.2676
10420TIP3    H252752   1.898  -0.005  14.212  0.0742 -1.5953 -2.4272
10421TIP3   OH252753   1.342   3.050   5.964 -0.2376  0.1672 -0.6011
10421TIP3    H152754   1.247   3.044   5.958 -0.1740 -0.9890 -0.6463
10421TIP3    H252755   1.358   3.125   6.022 -1.1997 -0.3206  0.3209
10422TIP3   OH252756   0.135   5.556   1.199  0.1899 -0.1629 -0.9745
10422TIP3    H152757   0.188   5.627   1.162  0.2129 -0.0608 -0.7474
10422TIP3    H252758   0.151   5.482   1.141  1.4346 -0.4426 -0.2873
10423TIP3   OH252759   5.177   3.469   5.930 -0.4607 -0.0353 -0.4908
10423TIP3    H152760   5.148   3.560   5.933 -2.1496 -0.5773  0.7287
10423TIP3    H252761   5.204   3.449   6.020 -1.8630 -1.2669 -0.3180
10424TIP3   OH252762   3.988   1.970  11.968  0.1010  0.0313  0.4555
10424TIP3    H152763   3.929   1.951  11.896 -0.6663  0.9086  0.8567
10424TIP3    H252764   4.029   1.885  11.988 -0.9535 -0.5644  0.1281
10425TIP3   OH252765   1.234   1.908   0.259  0.1387 -0.4675 -0.5761
10425TIP3    H152766   1.281   1.856   0.194 -0.4100 -1.0763 -0.4958
10425TIP3    H252767   1.145   1.873   0.258  0.2389 -0.8363  0.8533
10426TIP3   OH252768   1.044   5.324  11.586 -0.9259 -0.2254  0.2224
10426TIP3    H152769   1.020   5.252  11.528 -1.7742  0.6520 -0.5217
10426TIP3    H252770   1.123   5.294  11.630  0.3267 -0.4897 -2.1493
10427TIP3   OH252771   0.398   1.587  15.106  0.7055 -0.2307 -0.6658
10427TIP3    H152772   0.459   1.519  15.134  0.2565  0.2358  1.5741
10427TIP3    H252773   0.326   1.581  15.168  0.1956  1.6355 -1.0554
10428TIP3   OH252774   4.339   2.187  14.909  0.0649 -0.1121 -1.0958
10428TIP3    H152775   4.413   2.128  14.927 -0.0518  0.2331  0.5633
10428TIP3    H252776   4.376   2.255  14.853  0.8740 -0.2512 -0.7412
10429TIP3   OH252777   0.188   6.701   0.811  0.2226 -0.2608  0.6740
10429TIP3    H152778   0.283   6.698   0.820  0.3120 -0.2801 -0.2137
10429TIP3    H252779   0.155   6.669   0.895  1.0071 -2.9115  0.0191
10430TIP3   OH252780   2.038   3.269   0.826  0.4503 -0.3222 -0.2116
10430TIP3    H152781   1.950   3.303   0.813  0.2492 -1.9818 -3.4399
10430TIP3    H252782   2.091   3.311   0.758  2.2458  0.7964  1.7949
10431TIP3   OH252783   0.936   0.072  13.282  0.3134 -0.3913 -0.0183
10431TIP3    H152784   0.847   0.071  13.317  0.8924  0.0321  1.5309
10431TIP3    H252785   0.967   0.162  13.298  0.5379 -0.1268 -1.8197
10432TIP3   OH252786   1.922   1.703   6.324 -0.0910  0.2869  0.6564
10432TIP3    H152787   1.930   1.609   6.306  0.7332  0.0526  2.1684
10432TIP3    H252788   1.995   1.723   6.382 -0.9581  1.6164  1.3211
10433TIP3   OH252789   5.867   4.005  11.056 -0.6014  0.1378  0.1875
10433TIP3    H152790   5.946   4.059  11.060 -0.9799  0.5879  3.5427
10433TIP3    H252791   5.898   3.915  11.068 -0.6001  0.3796  2.2240
10434TIP3   OH252792   2.909   1.679   3.838  0.4215  0.2253  0.7187
10434TIP3    H152793   2.827   1.648   3.801  1.6785 -1.5695 -0.6721
10434TIP3    H252794   2.884   1.751   3.897 -2.1708 -0.6946  0.7896
10435TIP3   OH252795   4.551   3.068  13.868  0.3912 -0.0105 -0.0937
10435TIP3    H152796   4.512   2.997  13.919  1.0840 -0.3783 -0.0721
10435TIP3    H252797   4.520   3.053  13.779  0.1596 -0.0731 -0.0031
10436TIP3   OH252798   3.080   4.680   0.967 -0.0934  0.2971 -0.0911
10436TIP3    H152799   3.051   4.718   1.050 -1.1713 -1.8763  0.5507
10436TIP3    H252800   3.000   4.651   0.924  0.6812 -0.9781 -0.7014
10437TIP3   OH252801   4.337   6.074  10.813  0.3959 -0.2248 -0.0644
10437TIP3    H152802   4.369   6.135  10.746  1.6182  0.3038  0.9738
10437TIP3    H252803   4.353   6.120  10.896 -0.1324 -1.3083  0.6393
10438TIP3   OH252804   5.949   5.598   4.581 -0.0732 -0.1198 -0.3420
10438TIP3    H152805   5.858   5.590   4.609 -1.1080  2.9424 -2.4955
10438TIP3    H252806   5.973   5.511   4.549 -2.3688 -0.8614 -0.1218
10439TIP3   OH252807   1.810   2.665  15.124  0.1830  0.0906 -0.1877
10439TIP3    H152808   1.890   2.635  15.083  0.5754  0.7320  0.0912
10439TIP3    H252809   1.763   2.711  15.055 -0.3791 -1.0797 -0.5923
10440TIP3   OH252810   2.178   2.027   5.242  0.2901 -0.3891  0.4314
10440TIP3    H152811   2.190   1.942   5.284  1.0152 -1.2161 -1.3995
10440TIP3    H252812   2.084   2.033   5.226  0.2670 -0.9775  0.3288
10441TIP3   OH252813   1.899   6.401  11.997  0.1977  0.0991 -0.7603
10441TIP3    H152814   1.864   6.434  12.080 -1.1538 -0.4942 -1.0840
10441TIP3    H252815   1.857   6.456  11.930 -0.7399 -1.1150 -1.1949
10442TIP3   OH252816   4.086   1.948   3.712  0.3541  0.1650  0.2768
10442TIP3    H152817   4.059   1.881   3.649 -1.7513  0.7829  0.4695
10442TIP3    H252818   4.104   2.025   3.658  0.1551  0.2139  0.2784
10443TIP3   OH252819   0.669   5.832   4.255 -0.3360  0.5408 -0.2562
10443TIP3    H152820   0.609   5.897   4.291  0.2208 -0.4191  2.5645
10443TIP3    H252821   0.613   5.767   4.213 -1.0500  1.4212 -0.6751
10444TIP3   OH252822   6.514   2.306  15.771 -0.2527 -0.3234 -0.2787
10444TIP3    H152823   6.467   2.369  15.717  0.9427  1.0265  0.2377
10444TIP3    H252824   6.461   2.226  15.766 -2.5774  1.1437  0.2978
10445TIP3   OH252825   3.879   5.009  13.919 -0.1754 -0.0338  0.1146
10445TIP3    H152826   3.817   4.937  13.910 -0.6814  0.2623  1.1794
10445TIP3    H252827   3.915   4.999  14.008  1.4139 -0.2947 -0.5312
10446TIP3   OH252828   5.204   2.825   5.760 -0.2319  0.7314  0.1106
10446TIP3    H152829   5.175   2.762   5.826  0.7834  0.9664  0.7822
10446TIP3    H252830   5.291   2.794   5.734 -0.0205  1.4610 -0.0601
10447TIP3   OH252831   2.939   2.017  12.489 -0.4284 -0.4788 -0.5875
10447TIP3    H152832   2.908   1.940  12.442 -0.8966  0.2337 -1.4599
10447TIP3    H252833   2.870   2.036  12.552 -0.2712 -0.8216 -0.3106
10448TIP3   OH252834   6.448   5.990   5.854  0.2313  0.3214  0.1671
10448TIP3    H152835   6.400   6.064   5.893  0.5795  0.9769 -0.6143
10448TIP3    H252836   6.397   5.968   5.776 -0.1470 -0.5992  0.6693
10449TIP3   OH252837   3.729   2.730  12.522 -0.1866  0.2708  0.1533
10449TIP3    H152838   3.746   2.773  12.438 -0.6080  0.1184 -0.0101
10449TIP3    H252839   3.788   2.655  12.521 -0.3837  0.1160 -0.1267
10450TIP3   OH252840   0.582   0.637  16.155 -0.2172  0.1322 -0.0788
10450TIP3    H152841   0.644   0.666  16.221 -1.1391  1.8397  0.0528
10450TIP3    H252842   0.514   0.591  16.205  0.8082 -1.5593 -0.2063
10451TIP3   OH252843   3.828   6.344   4.825 -0.1010  0.2144 -0.1008
10451TIP3    H152844   3.902   6.405   4.833  0.6263 -0.7977  1.0788
10451TIP3    H252845   3.827   6.297   4.908 -1.4304 -0.5167 -0.5220
10452TIP3   OH252846   6.705   3.824  12.860  0.4155  0.5361 -0.1718
10452TIP3    H152847   6.759   3.749  12.884  0.1969 -0.2123 -1.9119
10452TIP3    H252848   6.621   3.808  12.904  0.3744 -0.2349 -0.5197
10453TIP3   OH252849   2.520   1.199  15.242 -0.3188  0.1301  0.0543
10453TIP3    H152850   2.497   1.291  15.252 -0.2581  0.0324  1.1969
10453TIP3    H252851   2.451   1.151  15.290  1.4781 -0.2244  2.3949
10454TIP3   OH252852   3.433   5.417  10.783 -0.4507  0.1003  0.2725
10454TIP3    H152853   3.481   5.482  10.730 -0.1578 -0.0353  0.3674
10454TIP3    H252854   3.389   5.469  10.850 -0.5044  0.2366  0.1297
10455TIP3   OH252855   3.378   0.460  12.681  0.2841  0.2035  0.2617
10455TIP3    H152856   3.369   0.555  12.676 -0.1925  0.1528  0.1279
10455TIP3    H252857   3.296   0.429  12.719 -0.0104 -0.2429 -0.7128
10456TIP3   OH252858   3.205   5.893   0.164 -0.0915  0.0758  0.1669
10456TIP3    H152859   3.240   5.930   0.245 -0.9843  1.5081 -0.0726
10456TIP3    H252860   3.276   5.839   0.129  1.3830  1.8235  0.3935
10457TIP3   OH252861   3.391   2.979   2.229 -0.0491  0.0533 -0.0755
10457TIP3    H152862   3.311   2.967   2.280  0.0016 -0.5940 -0.1433
10457TIP3    H252863   3.361   3.005   2.142 -0.1975 -0.4248 -0.1691
10458TIP3   OH252864   2.113   2.390   2.119  0.3651 -0.1817  0.2127
10458TIP3    H152865   2.199   2.393   2.162  1.9876  0.3985 -2.9248
10458TIP3    H252866   2.100   2.297   2.098  1.1423 -0.0219 -1.0238
10459TIP3   OH252867   4.773   4.972  11.431 -0.0143 -0.2178  0.8051
10459TIP3    H152868   4.825   4.975  11.351 -1.4116 -1.3728 -0.1656
10459TIP3    H252869   4.683   4.956  11.402 -0.3578 -1.9430  2.6582
10460TIP3   OH252870   3.338   2.116   5.498  0.0980 -0.5720 -0.6840
10460TIP3    H152871   3.334   2.211   5.504  0.7496 -0.6169  0.7316
10460TIP3    H252872   3.428   2.094   5.521  0.1559 -1.4789 -1.7487
10461TIP3   OH252873   1.395   4.968   2.099 -0.7888  0.1414 -0.9137
10461TIP3    H152874   1.461   4.994   2.164 -1.7040  0.5982 -0.1539
10461TIP3    H252875   1.443   4.912   2.038  0.0896 -0.3220  0.1699
10462TIP3   OH252876   4.829   1.715   0.726  0.1139 -0.3006 -0.0396
10462TIP3    H152877   4.863   1.649   0.786 -2.7626 -2.4159 -0.6006
10462TIP3    H252878   4.844   1.677   0.639 -1.5638 -0.2277 -0.3666
10463TIP3   OH252879   4.261   2.860  15.068  0.7062 -0.0690 -0.1631
10463TIP3    H152880   4.178   2.908  15.070  0.0069 -1.2696  1.5946
10463TIP3    H252881   4.267   2.825  14.980 -0.1189  0.9522 -0.6287
10464TIP3   OH252882   5.242   5.343  14.779 -0.0739  0.3319  0.3181
10464TIP3    H152883   5.208   5.421  14.734  2.1787  1.9868  1.4001
10464TIP3    H252884   5.228   5.361  14.872 -0.0861 -0.8324  0.5525
10465TIP3   OH252885   2.313   2.081   2.216 -0.3571  0.5862 -0.0270
10465TIP3    H152886   2.386   2.038   2.260 -0.0716  1.3587  0.2562
10465TIP3    H252887   2.266   2.126   2.286 -0.0837  1.5489 -0.4543
10466TIP3   OH252888   6.430   3.112   4.020 -0.4082 -0.1639 -0.0821
10466TIP3    H152889   6.368   3.046   3.989 -0.8252  0.7853 -1.3057
10466TIP3    H252890   6.382   3.195   4.014  1.4066  0.7638 -2.3265
10467TIP3   OH252891   1.956   6.673   4.538  0.3577 -0.5542  0.4755
10467TIP3    H152892   2.004   6.691   4.457  0.8002 -0.9130  0.6547
10467TIP3    H252893   1.979   6.746   4.596  0.7342 -0.7544  0.5805
10468TIP3   OH252894   0.707   1.452  15.219  0.4313  0.0431 -0.1575
10468TIP3    H152895   0.797   1.426  15.241  0.2938  0.4567  0.9218
10468TIP3    H252896   0.684   1.517  15.286 -0.2749  0.7638 -1.0844
10469TIP3   OH252897   2.364   3.530  13.916 -0.3664 -0.0373  0.2940
10469TIP3    H152898   2.448   3.494  13.944 -0.6956 -1.0207  0.0639
10469TIP3    H252899   2.374   3.543  13.822 -1.4260 -2.9801 -0.2955
10470TIP3   OH252900   1.334   4.143  12.052 -0.1491  0.0638  0.3969
10470TIP3    H152901   1.375   4.062  12.084 -1.1584 -1.0043 -0.8926
10470TIP3    H252902   1.269   4.165  12.118  2.5327  1.8743  2.5538
10471TIP3   OH252903   0.672   3.728  15.795 -1.0355  0.1692 -0.4772
10471TIP3    H152904   0.646   3.638  15.777  0.3342 -0.8264  2.1769
10471TIP3    H252905   0.600   3.763  15.848 -1.1490  0.3317 -0.7396
10472TIP3   OH252906   1.069   1.271  14.584  0.5714  0.2559  0.3564
10472TIP3    H152907   1.051   1.180  14.610 -1.2047  0.7312  0.8477
10472TIP3    H252908   1.164   1.274  14.573  0.5647 -1.9363 -0.6859
10473TIP3   OH252909   3.621   0.180   2.888  0.6776  0.4908  0.1077
10473TIP3    H152910   3.706   0.168   2.844  0.0636  1.4986 -1.3689
10473TIP3    H252911   3.636   0.253   2.948  1.5359 -0.9282  1.6707
10474TIP3   OH252912   4.905   4.975   1.842  0.0590  0.0313 -0.3968
10474TIP3    H152913   4.965   4.998   1.771  0.5415 -1.5521 -0.5095
10474TIP3    H252914   4.871   5.060   1.872  1.0010  0.8234 -1.4977
10475TIP3   OH252915   0.061   5.497  16.877  0.1747  0.3937  0.2754
10475TIP3    H152916   0.079   5.576  16.827 -1.1523  0.7033  0.2931
10475TIP3    H252917   0.015   5.440  16.816  1.3923 -0.5059  0.1638
10476TIP3   OH252918   4.348   0.139   4.446 -0.2944 -0.4559  0.1925
10476TIP3    H152919   4.433   0.097   4.431  0.5017  1.6465 -1.3356
10476TIP3    H252920   4.368   0.215   4.499 -1.4599 -0.8137  1.1705
10477TIP3   OH252921   2.793   2.366  16.272  0.5145  0.2828 -0.3930
10477TIP3    H152922   2.857   2.300  16.245  0.3686  0.0567 -0.1934
10477TIP3    H252923   2.814   2.382  16.364 -0.9858 -1.2853  0.2614
10478TIP3   OH252924   1.466   0.847   4.674  0.1022  0.0970  0.6415
10478TIP3    H152925   1.391   0.799   4.641 -0.6577  1.6140  0.0854
10478TIP3    H252926   1.520   0.782   4.719 -1.9350 -0.8530  1.7443
10479TIP3   OH252927   0.790   0.589   3.236 -0.6845 -0.1783  0.1494
10479TIP3    H152928   0.796   0.582   3.331  1.9716  1.4148  0.1176
10479TIP3    H252929   0.832   0.509   3.204 -2.4133 -1.1807  0.2675
10480TIP3   OH252930   1.539   1.746   4.370  0.0398  0.2246 -0.0025
10480TIP3    H152931   1.534   1.799   4.291  1.3007 -0.9185 -0.8951
10480TIP3    H252932   1.485   1.670   4.352 -0.2170  0.2832  0.5066
10481TIP3   OH252933   0.628   2.177  13.945 -0.0648 -0.4191  0.1214
10481TIP3    H152934   0.539   2.143  13.937  0.3929 -1.3195 -1.2946
10481TIP3    H252935   0.666   2.165  13.858  1.8606 -1.2486  1.0501
10482TIP3   OH252936   2.302   0.642  11.072  0.1081  0.5548 -0.4164
10482TIP3    H152937   2.340   0.563  11.032 -0.8870 -0.2434  0.1880
10482TIP3    H252938   2.320   0.632  11.166 -1.3757  0.2722 -0.1457
10483TIP3   OH252939   0.123   2.376   3.726 -0.3434 -0.4801  0.3293
10483TIP3    H152940   0.204   2.325   3.738 -0.2039 -0.2488  0.3733
10483TIP3    H252941   0.081   2.336   3.650  0.3801  0.1388 -0.4089
10484TIP3   OH252942   0.632   0.494  15.927  0.3718 -0.6055 -0.5116
10484TIP3    H152943   0.623   0.538  16.012  0.8877 -1.2743 -0.1046
10484TIP3    H252944   0.572   0.420  15.933  1.6606 -1.6381 -0.0678
10485TIP3   OH252945   2.312   1.507  15.789  0.0430 -0.4818  0.4448
10485TIP3    H152946   2.239   1.464  15.744  0.7824 -1.0064 -0.2591
10485TIP3    H252947   2.307   1.598  15.760  0.1147 -0.6735 -0.1793
10486TIP3   OH252948   0.931   6.149  12.024 -0.2020  0.0199  0.1639
10486TIP3    H152949   0.926   6.054  12.038 -0.9590 -0.1527 -1.1511
10486TIP3    H252950   0.840   6.176  12.014  0.0408  0.8008  0.0600
10487TIP3   OH252951   0.878   3.301  15.720 -0.1142 -0.3006 -0.1391
10487TIP3    H152952   0.914   3.354  15.792 -0.8409  0.4886 -0.3499
10487TIP3    H252953   0.829   3.231  15.764  0.3001 -0.4168  0.1382
10488TIP3   OH252954   2.008   3.087   2.936 -0.0132 -0.0173 -0.1385
10488TIP3    H152955   1.932   3.134   2.970  0.8300  1.6518 -0.4690
10488TIP3    H252956   2.071   3.088   3.008 -0.1918 -1.1360  0.0352
10489TIP3   OH252957   0.846   2.922  16.842  0.0224 -0.2928  0.0236
10489TIP3    H152958   0.893   2.994  16.799  3.6423 -2.5665 -0.0757
10489TIP3    H252959   0.812   2.870  16.770 -0.2196 -0.1570  0.0422
10490TIP3   OH252960   1.738   0.123   1.533 -0.0543  0.1948 -0.1930
10490TIP3    H152961   1.799   0.195   1.515 -0.8965  1.0725  0.4054
10490TIP3    H252962   1.654   0.166   1.547 -0.3826 -0.8396  1.1086
10491TIP3   OH252963   4.927   0.577   3.197 -0.8925 -0.0758 -0.5057
10491TIP3    H152964   4.900   0.552   3.286  1.3188 -2.7628 -0.4957
10491TIP3    H252965   5.006   0.628   3.210 -1.2788  0.6216 -0.8887
10492TIP3   OH252966   6.577   4.106   3.788 -0.3894  0.7749  0.7411
10492TIP3    H152967   6.638   4.064   3.728 -0.3496  2.2989 -0.3050
10492TIP3    H252968   6.625   4.112   3.871  1.8471  4.1290 -0.6778
10493TIP3   OH252969   5.309   1.961  12.806  0.9957  0.1888  0.0813
10493TIP3    H152970   5.289   2.018  12.732 -1.2083  1.5607  1.6568
10493TIP3    H252971   5.333   1.877  12.766 -0.8295  0.6782 -2.1700
10494TIP3   OH252972   3.811   5.151  15.277 -0.0042 -0.2479 -0.1574
10494TIP3    H152973   3.861   5.070  15.269 -3.7173 -2.5100 -2.2569
10494TIP3    H252974   3.837   5.204  15.202 -0.1675 -1.0659 -0.7909
10495TIP3   OH252975   3.926   6.244  17.028  0.2768  0.1199  0.6712
10495TIP3    H152976   3.843   6.205  17.055  0.0869  0.9065  1.2307
10495TIP3    H252977   3.926   6.332  17.066  1.6277 -0.0787  1.1806
10496TIP3   OH252978   6.020   3.312  11.543 -0.6129 -0.6663  0.5650
10496TIP3    H152979   6.115   3.306  11.558 -0.4303  2.5512  1.0799
10496TIP3    H252980   5.991   3.380  11.604 -2.6131  1.0802 -2.2341
10497TIP3   OH252981   4.098   0.597  13.467 -0.3940  0.1375 -0.0811
10497TIP3    H152982   4.126   0.550  13.388 -1.3074  1.1333 -1.0181
10497TIP3    H252983   4.025   0.545  13.500  1.6624 -1.7475  1.6383
10498TIP3   OH252984   3.757   3.072  16.721  0.5604  0.1668 -0.3179
10498TIP3    H152985   3.842   3.082  16.765  0.2444  2.0696 -0.1284
10498TIP3    H252986   3.750   3.147  16.663 -0.3567 -0.7703 -1.4516
10499TIP3   OH252987   2.721   0.396   0.534  0.1008  0.0414 -0.2793
10499TIP3    H152988   2.808   0.368   0.564  0.0955  0.2340 -0.0835
10499TIP3    H252989   2.664   0.385   0.611 -0.3117 -1.2706 -0.7605
10500TIP3   OH252990   5.822   5.504  17.263  0.0935  0.1489 -0.1506
10500TIP3    H152991   5.823   5.409  17.251  0.4438 -0.0638  1.3799
10500TIP3    H252992   5.847   5.540  17.178  1.2268 -1.1699 -0.3939
10501TIP3   OH252993   0.155   0.948   3.690  0.3214  0.3717  0.7821
10501TIP3    H152994   0.144   0.919   3.599 -0.1117  0.2579  0.8722
10501TIP3    H252995   0.165   0.867   3.740 -0.1172  0.4028  0.9270
10502TIP3   OH252996   4.138   2.213  15.815  0.3472 -0.5952 -0.7172
10502TIP3    H152997   4.233   2.199  15.821  0.3296 -0.9488 -1.2564
10502TIP3    H252998   4.130   2.292  15.761  0.3775  0.3268  0.5865
10503TIP3   OH252999   4.510   0.207   3.382  0.5208 -0.0358 -0.1499
10503TIP3    H153000   4.563   0.163   3.317  0.9705 -1.2550  1.0228
10503TIP3    H253001   4.424   0.217   3.341  0.4960 -1.7398 -0.5287
10504TIP3   OH253002   2.002   2.668  12.762  0.4472 -0.2078 -0.0425
10504TIP3    H153003   2.006   2.742  12.823  0.6347 -0.1381 -0.1402
10504TIP3    H253004   1.937   2.609  12.801  0.0655  0.1502 -0.1263
10505TIP3   OH253005   1.215   6.751  16.705  0.5973  0.2045 -0.5325
10505TIP3    H153006   1.162   6.748  16.785  1.2341  2.4651  0.0317
10505TIP3    H253007   1.159   6.796  16.641  2.2176  3.9053  0.4806
10506TIP3   OH253008   6.109   4.946  13.791  0.5971  0.5526 -0.2087
10506TIP3    H153009   6.107   5.037  13.822  0.9466  0.7479 -0.7512
10506TIP3    H253010   6.133   4.953  13.699 -2.3694  0.0940 -1.0468
10507TIP3   OH253011   5.484   4.714  16.019 -0.3310  0.3978 -0.5165
10507TIP3    H153012   5.511   4.664  15.942  1.2699  0.3981  0.0062
10507TIP3    H253013   5.425   4.655  16.066  2.1969 -1.4158  0.5289
10508TIP3   OH253014   0.638   3.906  12.734 -0.7638 -0.6231 -0.4439
10508TIP3    H153015   0.679   3.992  12.748 -1.0372 -0.5084 -0.3459
10508TIP3    H253016   0.593   3.914  12.650  0.3855 -1.1259 -1.1205
10509TIP3   OH253017   3.979   3.786  14.159 -0.2626 -0.7836 -0.0642
10509TIP3    H153018   3.914   3.771  14.228 -1.3677  0.7348 -0.7315
10509TIP3    H253019   4.058   3.814  14.206 -0.6799 -0.8034  0.6584
10510TIP3   OH253020   3.564   6.625   3.141 -0.6137 -0.6902  0.4939
10510TIP3    H153021   3.550   6.648   3.049  1.3000  2.7802  0.9800
10510TIP3    H253022   3.645   6.573   3.140 -0.7986 -0.9749  0.1861
10511TIP3   OH253023   1.773   5.496   3.411 -0.0474 -0.5406 -0.6065
10511TIP3    H153024   1.795   5.451   3.493  1.0735 -1.2834 -1.2972
10511TIP3    H253025   1.851   5.547   3.390 -1.5898  2.4048  0.5643
10512TIP3   OH253026   2.091   5.895   0.214 -0.8425  0.1796 -0.2782
10512TIP3    H153027   2.059   5.870   0.128 -3.0622 -0.1620  0.6007
10512TIP3    H253028   2.030   5.963   0.243  0.5475  1.0986  0.5579
10513TIP3   OH253029   0.159   3.462   1.375 -0.2901 -0.3630 -0.6469
10513TIP3    H153030   0.236   3.482   1.323  0.7482 -1.7562  0.3365
10513TIP3    H253031   0.176   3.502   1.460 -0.8933 -0.1906 -0.6062
10514TIP3   OH253032   6.218   3.869   4.941  0.0973  0.3020  0.4114
10514TIP3    H153033   6.260   3.822   5.013 -0.1700  0.0276  0.3887
10514TIP3    H253034   6.147   3.917   4.982  0.8447  1.3006  0.5516
10515TIP3   OH253035   0.315   5.963   3.012  0.0454  0.5523 -0.0071
10515TIP3    H153036   0.405   5.974   2.980  0.5384 -0.6386  0.8868
10515TIP3    H253037   0.262   5.952   2.933  1.0415 -1.0842 -0.4773
10516TIP3   OH253038   1.696   3.784   2.387 -0.2465  0.0097  0.2507
10516TIP3    H153039   1.608   3.747   2.378  0.5511 -2.4793  2.3953
10516TIP3    H253040   1.755   3.712   2.367  1.3377  0.7879  1.9657
10517TIP3   OH253041   0.863   0.258   3.291 -0.2273  0.5861 -0.1764
10517TIP3    H153042   0.938   0.290   3.343 -1.3167 -0.7684  2.3042
10517TIP3    H253043   0.892   0.174   3.257 -0.7294 -0.0903  1.0561
10518TIP3   OH253044   0.036   3.350  15.295  0.2300 -0.5683 -0.4063
10518TIP3    H153045   0.001   3.317  15.378 -1.4353  0.4376 -0.6913
10518TIP3    H253046   0.124   3.382  15.317 -0.4237  0.2577  1.0941
10519TIP3   OH253047   3.977   3.502   1.156 -0.1720 -0.2910 -0.1102
10519TIP3    H153048   4.003   3.410   1.159 -1.1831 -0.5877 -0.1125
10519TIP3    H253049   3.911   3.506   1.087 -0.7561  0.2712  0.4724
10520TIP3   OH253050   1.986   4.648   5.820  0.1006 -0.1022 -0.2187
10520TIP3    H153051   1.992   4.734   5.778 -1.7661 -0.6876 -1.7565
10520TIP3    H253052   2.015   4.664   5.910 -0.1069  2.1194 -0.5018
10521TIP3   OH253053   4.549   2.705   3.245  0.6465 -0.2950  0.1265
10521TIP3    H153054   4.581   2.752   3.322  2.4258 -0.9830 -0.1828
10521TIP3    H253055   4.596   2.745   3.172  1.5917 -2.0173 -0.2169
10522TIP3   OH253056   5.705   0.449  16.782 -0.0304 -0.1175  0.1745
10522TIP3    H153057   5.741   0.374  16.831 -0.4356  0.8586  2.0256
10522TIP3    H253058   5.772   0.517  16.791 -0.0532  0.0371 -0.7665
10523TIP3   OH253059   4.757   1.443  15.712  0.1207 -0.3294 -0.1236
10523TIP3    H153060   4.674   1.404  15.685  0.8985 -0.6996 -1.9977
10523TIP3    H253061   4.776   1.509  15.646  1.5411 -0.5400  0.0525
10524TIP3   OH253062   5.762   3.543   1.581 -0.0666  0.1775 -0.0880
10524TIP3    H153063   5.802   3.627   1.600  0.0749  0.0602  0.1423
10524TIP3    H253064   5.752   3.501   1.667 -1.3969  0.5282 -0.0611
10525TIP3   OH253065   3.481   0.785   3.544 -0.0573 -0.0344 -0.3935
10525TIP3    H153066   3.405   0.729   3.560  0.0986 -0.6390 -1.6965
10525TIP3    H253067   3.556   0.728   3.560  0.1505  0.6423  1.1827
10526TIP3   OH253068   4.866   3.932   4.451  0.2918  0.1693  0.5197
10526TIP3    H153069   4.837   3.883   4.529  0.8187 -0.4977  0.2995
10526TIP3    H253070   4.825   4.018   4.461 -1.7295 -0.7257  0.2398
10527TIP3   OH253071   6.661   6.442  14.541 -0.5250 -0.3199  0.6793
10527TIP3    H153072   6.732   6.467  14.600 -0.6283  1.1455  0.2232
10527TIP3    H253073   6.675   6.349  14.524  2.5851  0.4064 -1.1031
10528TIP3   OH253074   2.046   4.544  13.535 -0.3080  0.3338 -0.2149
10528TIP3    H153075   2.071   4.614  13.595 -1.3796  0.1289  0.4874
10528TIP3    H253076   1.980   4.584  13.479 -0.6971 -0.0277 -0.0133
10529TIP3   OH253077   0.109   1.573  16.986  0.2593 -0.2687 -0.1222
10529TIP3    H153078   0.175   1.507  17.011 -0.4013 -1.0787 -0.4779
10529TIP3    H253079   0.030   1.522  16.970 -0.8865  0.8577  1.7754
10530TIP3   OH253080   5.732   5.805  14.252  0.4250  0.0346  0.0250
10530TIP3    H153081   5.745   5.828  14.160 -1.5913  1.0550 -0.0371
10530TIP3    H253082   5.759   5.883  14.300 -0.5946  0.3126  0.1602
10531TIP3   OH253083   3.759   4.363  15.576 -0.5776  0.2554 -0.3254
10531TIP3    H153084   3.833   4.342  15.519 -0.4335  1.5509 -0.6422
10531TIP3    H253085   3.786   4.335  15.663 -0.0999 -0.1493 -0.6007
10532TIP3   OH253086   0.510   1.153   2.215  0.1108 -0.7994  0.2721
10532TIP3    H153087   0.443   1.087   2.197 -0.6888 -0.1188  0.7059
10532TIP3    H253088   0.467   1.236   2.196  1.4908 -0.4517 -1.3873
10533TIP3   OH253089   0.988   5.075   5.735 -0.0833  0.3367  0.3336
10533TIP3    H153090   1.002   5.082   5.641 -1.3617  1.3457  0.2039
10533TIP3    H253091   0.976   5.166   5.764 -2.5282 -0.1589  0.9953
10534TIP3   OH253092   0.410   6.073  12.473  0.1484 -0.0796 -0.0134
10534TIP3    H153093   0.495   6.074  12.429  0.6191  0.7405  0.8655
10534TIP3    H253094   0.366   6.152  12.442  1.3730  1.7260  2.5768
10535TIP3   OH253095   2.550   2.691   1.762  0.0161 -0.3544  0.0506
10535TIP3    H153096   2.531   2.765   1.703 -3.2147 -0.2538  1.0957
10535TIP3    H253097   2.645   2.681   1.758  0.0716  0.8676 -3.6866
10536TIP3   OH253098   0.474   0.719  12.474 -0.1681  0.3006  0.4479
10536TIP3    H153099   0.559   0.741  12.511  1.0363 -1.6438 -1.0416
10536TIP3    H253100   0.439   0.652  12.533  0.3919 -0.5640 -0.1735
10537TIP3   OH253101   0.731   5.129  15.052  0.3078 -0.0203 -0.1748
10537TIP3    H153102   0.774   5.060  15.103  1.9538  1.9239  1.2008
10537TIP3    H253103   0.640   5.126  15.080  0.4559 -1.3444  0.2002
10538TIP3   OH253104   3.332   5.576  15.237 -0.1781  0.0142  0.3408
10538TIP3    H153105   3.300   5.534  15.157  0.5143  0.5212 -0.2094
10538TIP3    H253106   3.302   5.518  15.308 -2.5482  0.6053 -0.1142
10539TIP3   OH253107   3.723   3.133   2.164 -0.2762 -0.0231  0.1942
10539TIP3    H153108   3.695   3.225   2.163  0.6937  0.2781  0.7557
10539TIP3    H253109   3.747   3.115   2.073  2.0391  1.0558  0.5680
10540TIP3   OH253110   1.848   5.652   3.144  0.0652 -0.1625 -0.1450
10540TIP3    H153111   1.907   5.728   3.150  0.4644 -0.4159 -0.8795
10540TIP3    H253112   1.906   5.576   3.152  0.1163 -0.4607 -3.0099
10541TIP3   OH253113   2.610   0.774   0.289 -0.3672 -0.1558 -0.3825
10541TIP3    H153114   2.675   0.706   0.308  1.2242  1.6422  0.7450
10541TIP3    H253115   2.619   0.790   0.195 -0.0711 -0.7995 -0.4705
10542TIP3   OH253116   1.049   2.318   0.098 -0.0955  0.1636  0.1615
10542TIP3    H153117   1.084   2.255   0.035  2.6732  1.6937  0.0806
10542TIP3    H253118   1.031   2.396   0.047  1.9244  1.3324  1.1622
10543TIP3   OH253119   2.247   3.329   1.016 -0.3201  0.1446  0.7887
10543TIP3    H153120   2.318   3.265   1.025  0.1683  0.5907  0.1294
10543TIP3    H253121   2.178   3.282   0.970  0.3423  0.3213 -0.3962
10544TIP3   OH253122   5.689   2.944   4.486  0.3136 -0.1732  0.4567
10544TIP3    H153123   5.711   2.862   4.442  0.0431  0.4474 -0.8752
10544TIP3    H253124   5.759   3.005   4.461  0.5565 -0.0150  1.4990
10545TIP3   OH253125   0.537   2.762   1.374  0.2154  0.0008 -0.2934
10545TIP3    H153126   0.632   2.773   1.364  0.5248 -1.2625  1.2398
10545TIP3    H253127   0.521   2.779   1.467 -1.2624  1.5776 -0.8221
10546TIP3   OH253128   5.068   1.969  13.457  0.1092 -0.4524  0.7483
10546TIP3    H153129   5.038   2.021  13.382 -0.2400  1.0078  1.8656
10546TIP3    H253130   5.105   2.034  13.518  1.7897 -1.7713  1.1839
10547TIP3   OH253131   0.193   2.506  16.640 -0.1450 -0.3257  0.4933
10547TIP3    H153132   0.220   2.421  16.605 -1.0240 -0.3368 -0.1832
10547TIP3    H253133   0.254   2.569  16.601 -0.5288 -0.4518 -0.3233
10548TIP3   OH253134   2.798   4.181  16.123 -0.2377  0.0626  0.3373
10548TIP3    H153135   2.891   4.198  16.110 -0.3506  0.5208  0.1404
10548TIP3    H253136   2.790   4.169  16.218 -0.0963  0.7113  0.4322
10549TIP3   OH253137   4.890   2.129  11.404  0.2006 -0.0885 -0.2754
10549TIP3    H153138   4.944   2.120  11.483  1.0886  2.2615 -0.5825
10549TIP3    H253139   4.949   2.168  11.339 -1.4552  1.1910 -1.0498
10550TIP3   OH253140   1.121   3.655   2.462  0.1206  0.1685 -0.0331
10550TIP3    H153141   1.163   3.575   2.495 -1.9237 -0.7240  0.5208
10550TIP3    H253142   1.040   3.624   2.421 -0.3788  1.9107 -0.4029
10551TIP3   OH253143   0.912   3.632   4.693 -0.0302  0.3499 -0.7652
10551TIP3    H153144   0.868   3.551   4.721  1.8939 -1.1976 -2.0759
10551TIP3    H253145   0.844   3.682   4.649 -1.6418  0.1736  1.4452
10552TIP3   OH253146   5.054   3.223   1.884 -0.5698  0.2528 -0.2733
10552TIP3    H153147   5.141   3.244   1.919 -0.4958 -0.8840  0.2505
10552TIP3    H253148   5.002   3.301   1.901  0.0013  0.4497  0.6005
10553TIP3   OH253149   6.239   4.499  15.478 -0.0358  0.2488 -0.0199
10553TIP3    H153150   6.211   4.512  15.387 -1.5063  1.0859  0.5346
10553TIP3    H253151   6.175   4.438  15.514 -0.5119  1.3267  0.9615
10554TIP3   OH253152   1.783   3.090  15.917 -0.1254  0.0628 -0.2383
10554TIP3    H153153   1.855   3.137  15.959 -1.3802  1.6555  0.1658
10554TIP3    H253154   1.719   3.077  15.987 -0.3260 -1.1964 -0.6364
10555TIP3   OH253155   6.277   5.741   3.188 -0.3992  0.3857 -0.4338
10555TIP3    H153156   6.221   5.665   3.174  0.8076 -0.3805 -1.2653
10555TIP3    H253157   6.356   5.706   3.229 -0.8728  1.5785  1.5765
10556TIP3   OH253158   4.735   4.227  16.425  0.0164 -0.3221 -0.1912
10556TIP3    H153159   4.827   4.238  16.401  0.0413  0.9524  0.4238
10556TIP3    H253160   4.689   4.294  16.374 -0.7296 -1.7482 -1.4114
10557TIP3   OH253161   0.565   2.050  11.268 -0.5054  0.0308 -0.5292
10557TIP3    H153162   0.487   2.061  11.214  0.1547 -0.0116 -1.5080
10557TIP3    H253163   0.618   1.986  11.221  0.1783  0.1620  0.0554
10558TIP3   OH253164   2.470   5.759  13.067 -0.0281 -0.7174  0.2911
10558TIP3    H153165   2.429   5.803  12.992  1.6979  0.9281  0.2696
10558TIP3    H253166   2.477   5.667  13.040 -1.3872 -0.5498 -0.6828
10559TIP3   OH253167   2.321   1.777  15.678  0.1837 -0.2715 -0.1032
10559TIP3    H153168   2.404   1.761  15.634  0.0559  0.1127 -0.5004
10559TIP3    H253169   2.344   1.825  15.757  0.5504 -2.2813  1.0261
10560TIP3   OH253170   0.272   3.878   5.584 -0.4033  0.2641  0.0366
10560TIP3    H153171   0.351   3.913   5.626  2.0036 -1.2481 -2.9982
10560TIP3    H253172   0.273   3.785   5.608 -3.2612  0.8712  2.8327
10561TIP3   OH253173   4.630   0.051   0.892  0.3660 -0.1189 -0.2367
10561TIP3    H153174   4.604  -0.003   0.817  0.3610  1.2505 -1.2400
10561TIP3    H253175   4.725   0.057   0.885  0.3579  0.0761 -0.1785
10562TIP3   OH253176   5.597   4.755  10.495 -0.1336 -0.0393  0.2265
10562TIP3    H153177   5.680   4.720  10.526 -0.6441 -0.6010  0.9964
10562TIP3    H253178   5.535   4.683  10.507 -1.2466  1.1966  2.0283
10563TIP3   OH253179   5.127   3.840  15.379 -0.4961  0.0194  1.0655
10563TIP3    H153180   5.139   3.928  15.344  0.2180 -0.2293  0.6820
10563TIP3    H253181   5.044   3.810  15.341 -1.2928  0.9338  2.0450
10564TIP3   OH253182   6.213   3.047  16.575  0.2175 -0.7626  0.0932
10564TIP3    H153183   6.209   3.090  16.489 -0.6618  2.5526  1.7110
10564TIP3    H253184   6.164   2.966  16.563 -1.3131  0.4300 -2.1176
10565TIP3   OH253185   6.220   0.387  12.292 -0.6957 -0.3540 -0.4074
10565TIP3    H153186   6.231   0.456  12.227 -0.4829  0.1181  0.1254
10565TIP3    H253187   6.164   0.426  12.359  1.4102  0.1539  1.0976
10566TIP3   OH253188   3.066   2.072   2.721 -0.3340 -0.4167 -0.1863
10566TIP3    H153189   3.079   2.147   2.663  0.1089 -1.3345 -1.3093
10566TIP3    H253190   3.107   2.097   2.803  1.4299 -0.1200 -1.1261
10567TIP3   OH253191   4.067   5.256   5.389 -0.0436 -0.1113 -0.4595
10567TIP3    H153192   4.105   5.336   5.423 -1.3029  1.4651 -2.6257
10567TIP3    H253193   4.075   5.264   5.294 -3.0086 -1.0817 -0.8609
10568TIP3   OH253194   5.802   3.996   4.545  0.6101  0.3190 -0.2423
10568TIP3    H153195   5.769   4.056   4.478 -0.0018 -0.1606 -0.3790
10568TIP3    H253196   5.814   3.913   4.499  1.1947  0.2616  0.0046
10569TIP3   OH253197   2.621   5.841   4.281 -0.5815 -0.7241  0.0249
10569TIP3    H153198   2.558   5.779   4.244  0.8868 -1.9178 -0.4886
10569TIP3    H253199   2.614   5.919   4.225 -2.0234 -0.6237  0.3313
10570TIP3   OH253200   1.617   4.770   3.636  0.9824 -0.0473  0.1858
10570TIP3    H153201   1.610   4.714   3.558  2.7456 -0.6383  0.4421
10570TIP3    H253202   1.663   4.716   3.700 -0.5962  0.3702  1.7282
10571TIP3   OH253203   3.261   6.205   0.149 -0.2272 -0.3805  0.0901
10571TIP3    H153204   3.330   6.184   0.085 -0.6933 -2.5464  0.2605
10571TIP3    H253205   3.286   6.158   0.228 -2.2333 -1.7064 -0.0436
10572TIP3   OH253206   4.315   1.930   4.868 -0.2908 -0.3910 -0.2235
10572TIP3    H153207   4.356   1.962   4.787  0.2456  0.2238  0.2757
10572TIP3    H253208   4.315   2.007   4.926 -0.9660 -0.7394  0.2470
10573TIP3   OH253209   2.278   6.508  15.841 -0.2629  0.0225 -0.1790
10573TIP3    H153210   2.313   6.435  15.789 -1.9719 -0.5964 -0.4723
10573TIP3    H253211   2.302   6.487  15.931 -1.3745 -1.2649 -0.1777
10574TIP3   OH253212   1.861   4.981  13.782 -0.2310  0.4421 -0.2116
10574TIP3    H153213   1.913   5.040  13.838  0.6203 -0.1941 -0.3235
10574TIP3    H253214   1.811   5.040  13.726 -0.6038  1.0858  0.7815
10575TIP3   OH253215   5.243   3.144   4.105 -0.0591 -0.4675 -0.3005
10575TIP3    H153216   5.295   3.142   4.186 -0.0025 -0.8525 -0.3458
10575TIP3    H253217   5.307   3.158   4.036 -0.0602 -0.5458 -0.3183
10576TIP3   OH253218   6.176   1.747   2.811 -0.2546  0.6600  0.0663
10576TIP3    H153219   6.221   1.801   2.747  0.1794  0.2342  0.0100
10576TIP3    H253220   6.090   1.788   2.821  0.1725  1.5229  0.2346
10577TIP3   OH253221   0.820   6.466   2.059  0.5394  0.7068 -0.0332
10577TIP3    H153222   0.789   6.556   2.068 -0.1870  0.3715  0.9116
10577TIP3    H253223   0.763   6.426   1.994 -0.6303  0.2800  1.2248
10578TIP3   OH253224   4.946   6.478  15.904  0.2752 -0.4667 -0.5823
10578TIP3    H153225   4.872   6.438  15.859 -2.2118  0.5195  2.4980
10578TIP3    H253226   4.922   6.570  15.912  2.2350  0.0456 -0.2486
10579TIP3   OH253227   2.788   0.546  15.693  0.8702  0.2941 -0.4020
10579TIP3    H153228   2.789   0.523  15.786 -1.1810 -1.3018 -0.7296
10579TIP3    H253229   2.706   0.593  15.681  0.6924 -0.2786 -1.5547
10580TIP3   OH253230   2.107   6.085   3.116  0.3649 -0.2765  0.6102
10580TIP3    H153231   2.122   5.993   3.137  1.9379  0.0794  1.0769
10580TIP3    H253232   2.060   6.119   3.192 -1.7083 -1.0604 -0.2708
10581TIP3   OH253233   1.631   2.314   2.679 -0.3292 -0.9006  0.6293
10581TIP3    H153234   1.723   2.288   2.677 -0.4128 -1.1347 -1.6892
10581TIP3    H253235   1.583   2.231   2.670 -0.6687 -0.4494 -2.2400
10582TIP3   OH253236   1.299   4.560  17.165 -0.0318  0.4200  0.2653
10582TIP3    H153237   1.369   4.541  17.103 -0.6406  0.4193 -0.4336
10582TIP3    H253238   1.277   4.475  17.204 -0.5499  0.1974 -0.4991
10583TIP3   OH253239   0.673   0.482  14.702 -0.3734 -0.0365  0.5763
10583TIP3    H153240   0.588   0.441  14.721 -0.3708 -0.9163 -1.1969
10583TIP3    H253241   0.667   0.569  14.740 -2.5004  0.2993 -0.4415
10584TIP3   OH253242   4.023   5.810  11.614  0.4270 -0.2863  0.6038
10584TIP3    H153243   4.105   5.858  11.601  1.0243 -1.3768  0.2507
10584TIP3    H253244   3.967   5.839  11.542 -0.0973  1.6669  1.7482
10585TIP3   OH253245   5.903   6.230  16.263  0.2887  0.1123  0.4448
10585TIP3    H153246   5.895   6.203  16.171 -1.9699  0.1873  0.5808
10585TIP3    H253247   5.938   6.319  16.258  0.3843  0.0383 -0.3303
10586TIP3   OH253248   1.310   4.829   4.885  0.1247  0.0440 -0.2675
10586TIP3    H153249   1.238   4.882   4.853  0.5234 -0.1323 -1.4690
10586TIP3    H253250   1.343   4.783   4.808  2.0668  0.7802  0.0669
10587TIP3   OH253251   0.293   4.859   5.048 -0.2076  0.0704  0.1511
10587TIP3    H153252   0.205   4.866   5.011  0.0718 -2.4188 -1.0785
10587TIP3    H253253   0.346   4.919   4.996 -1.1159  1.4508  0.7855
10588TIP3   OH253254   3.542   4.558  11.216 -0.2052 -0.1763 -0.8606
10588TIP3    H153255   3.611   4.616  11.181 -0.2263  1.8711  2.2893
10588TIP3    H253256   3.460   4.602  11.192 -0.2691  0.0916 -0.1630
10589TIP3   OH253257   2.851   0.611  12.393  0.0909 -0.1295 -0.3016
10589TIP3    H153258   2.872   0.640  12.482  0.7427 -0.8220 -0.2227
10589TIP3    H253259   2.934   0.617  12.346 -0.5987  1.8524 -1.3305
10590TIP3   OH253260   0.177   2.843  12.241 -0.2119 -0.2372 -0.0407
10590TIP3    H153261   0.272   2.856  12.239 -0.0761 -1.1702  0.2515
10590TIP3    H253262   0.149   2.858  12.151  0.5225 -2.2323 -0.6279
10591TIP3   OH253263   3.322   0.847   5.667  0.2006  0.2220  0.3132
10591TIP3    H153264   3.292   0.762   5.699 -2.5731  1.1504  0.2813
10591TIP3    H253265   3.266   0.911   5.712  2.1397  2.0368  0.2244
10592TIP3   OH253266   0.739   3.584   2.580  0.1736  0.6166 -0.6589
10592TIP3    H153267   0.761   3.637   2.503  2.4853  0.6630 -0.0131
10592TIP3    H253268   0.822   3.576   2.627 -0.7761 -1.1684  0.7458
10593TIP3   OH253269   3.373   6.047   5.843  1.1320 -0.1409  0.2440
10593TIP3    H153270   3.362   5.960   5.881 -0.9295  0.3009  0.7409
10593TIP3    H253271   3.380   6.106   5.919 -1.3848  0.5520 -0.0068
10594TIP3   OH253272   5.529   0.797  14.601 -0.1829 -0.1783  0.0194
10594TIP3    H153273   5.556   0.810  14.511  0.6024 -0.4804  0.2104
10594TIP3    H253274   5.605   0.756  14.644 -0.8112 -0.7153  0.6351
10595TIP3   OH253275   3.957   3.849   3.247 -0.1879  0.4210 -0.0649
10595TIP3    H153276   4.025   3.797   3.204  0.0014  0.1312  0.5744
10595TIP3    H253277   3.895   3.784   3.282 -0.1333  0.6338  0.4326
10596TIP3   OH253278   1.165   6.397   5.711 -0.9656  0.1625 -0.1336
10596TIP3    H153279   1.086   6.404   5.658 -1.1651  0.9830  0.2691
10596TIP3    H253280   1.148   6.322   5.768 -1.6765  0.6458  0.3088
10597TIP3   OH253281   6.523   2.414   3.604 -1.0182 -0.0833 -0.1180
10597TIP3    H153282   6.438   2.458   3.601 -2.5793 -3.0124 -0.4581
10597TIP3    H253283   6.535   2.392   3.696 -1.9362 -2.0755 -0.4552
10598TIP3   OH253284   2.122   3.417   0.595 -0.4578 -0.2128  0.5086
10598TIP3    H153285   2.157   3.455   0.515  0.0253  0.0028  0.8256
10598TIP3    H253286   2.062   3.483   0.629 -0.0495  0.0347  0.7547
10599TIP3   OH253287   2.929   3.156  13.014  0.4422  0.3345  0.0105
10599TIP3    H153288   2.848   3.105  13.015  0.1887  0.7026 -1.2457
10599TIP3    H253289   2.992   3.099  12.969  1.1037 -0.2582  1.6332
10600TIP3   OH253290   1.159   5.260   0.397 -0.6449 -0.4208 -0.2294
10600TIP3    H153291   1.236   5.203   0.389 -1.2505 -1.1415 -1.0638
10600TIP3    H253292   1.095   5.222   0.336 -1.9612 -0.3210  1.0764
10601TIP3   OH253293   5.103   4.632  16.885 -0.8457 -0.1960  0.0750
10601TIP3    H153294   5.023   4.632  16.939  1.0444  1.2148  2.9960
10601TIP3    H253295   5.155   4.705  16.919  2.0138 -1.5082 -1.2984
10602TIP3   OH253296   2.780   0.541   4.318  0.3476 -0.2591  0.7087
10602TIP3    H153297   2.844   0.473   4.337 -0.2797 -1.3412 -1.0152
10602TIP3    H253298   2.700   0.494   4.294 -0.4207  1.0742  0.6037
10603TIP3   OH253299   4.496   3.984  11.540 -0.3926 -0.3546  0.0899
10603TIP3    H153300   4.505   3.940  11.625  2.4068 -0.4451 -0.2101
10603TIP3    H253301   4.555   4.059  11.545 -1.4575  0.6033 -1.2038
10604TIP3   OH253302   3.496   1.252   4.877 -0.7035  0.0235  0.1951
10604TIP3    H153303   3.423   1.282   4.823 -0.8835  0.4581  0.6708
10604TIP3    H253304   3.462   1.252   4.966 -0.0657  0.4381  0.4487
10605TIP3   OH253305   0.392   5.582   5.724  0.1283  0.1861  0.6775
10605TIP3    H153306   0.432   5.501   5.757 -0.0061  0.0379  0.4817
10605TIP3    H253307   0.311   5.553   5.683  1.0511  0.1672 -1.1835
10606TIP3   OH253308   2.463   0.820  13.066 -0.3067 -0.6667  0.7577
10606TIP3    H153309   2.542   0.769  13.087 -0.3690 -1.5755 -1.0639
10606TIP3    H253310   2.419   0.769  12.998 -2.4931 -0.1742  1.7627
10607TIP3   OH253311   1.269   5.424  16.579 -0.1846  0.1718 -0.0628
10607TIP3    H153312   1.345   5.453  16.629 -0.1926  1.1187 -0.5820
10607TIP3    H253313   1.244   5.340  16.619  1.8876 -0.7711 -0.6932
10608TIP3   OH253314   0.748   1.236   5.355 -0.0441 -0.0894 -0.3256
10608TIP3    H153315   0.772   1.179   5.429  0.8905  0.0629 -0.5048
10608TIP3    H253316   0.778   1.323   5.381 -1.0087  0.2319 -0.2763
10609TIP3   OH253317   0.020   2.253   1.162  0.4583 -0.3184  0.1526
10609TIP3    H153318  -0.004   2.306   1.085 -1.6343  0.8044  1.5538
10609TIP3    H253319   0.113   2.275   1.177 -0.0631  2.1756  0.0415
10610TIP3   OH253320   1.385   0.190   2.207  0.3517 -0.5367  0.1450
10610TIP3    H153321   1.389   0.131   2.282  0.2380  0.2967  0.8228
10610TIP3    H253322   1.292   0.210   2.197  0.1748 -2.0389 -1.3397
10611TIP3   OH253323   4.351   3.904  14.572 -0.4338  0.5237  0.0172
10611TIP3    H153324   4.439   3.883  14.602 -1.0995 -2.2521  0.1348
10611TIP3    H253325   4.364   3.943  14.485  0.8573 -0.7263 -0.3714
10612TIP3   OH253326   4.539   0.449   0.194 -0.0545 -0.1439  0.3860
10612TIP3    H153327   4.557   0.380   0.130  1.0278  0.4524  0.0343
10612TIP3    H253328   4.444   0.461   0.190  0.0971  0.5476 -1.7984
10613TIP3   OH253329   1.117   5.888   1.303 -0.0190  0.4728 -0.7838
10613TIP3    H153330   1.051   5.956   1.292 -0.2849  0.6760  1.6657
10613TIP3    H253331   1.073   5.806   1.280 -1.2901  0.5589  1.2358
10614TIP3   OH253332   3.538   4.532  13.197  0.4188 -0.0581  0.1981
10614TIP3    H153333   3.508   4.468  13.133  0.8780 -0.7062  0.6309
10614TIP3    H253334   3.458   4.569  13.234  0.1551 -1.4832  1.0576
10615TIP3   OH253335   5.457   4.121   3.170  0.5974  0.0757  0.2096
10615TIP3    H153336   5.524   4.164   3.117 -1.3277  2.4279 -0.4198
10615TIP3    H253337   5.452   4.174   3.249 -0.3047 -0.2501  0.3755
10616TIP3   OH253338   1.928   0.705  16.410 -0.3639  0.0868 -0.1838
10616TIP3    H153339   1.889   0.753  16.337  0.4820  0.2943 -0.5029
10616TIP3    H253340   1.964   0.773  16.467 -2.0273 -0.0038  1.0254
10617TIP3   OH253341   0.630   4.295   4.848 -0.7131 -0.2394 -0.2660
10617TIP3    H153342   0.550   4.244   4.833  0.1729 -1.5280 -0.6889
10617TIP3    H253343   0.615   4.338   4.932 -0.9144 -2.3666  0.8288
10618TIP3   OH253344   0.561   3.652   4.144 -0.1503 -0.3559  0.7091
10618TIP3    H153345   0.590   3.710   4.073 -3.0524 -0.1456 -0.3808
10618TIP3    H253346   0.526   3.712   4.210 -1.4476 -0.7716  0.3985
10619TIP3   OH253347   5.002   2.347  15.173 -0.4106 -0.0626  0.3314
10619TIP3    H153348   4.939   2.396  15.226 -0.5438  0.5811 -0.4146
10619TIP3    H253349   5.071   2.322  15.235 -1.8690 -1.6513  1.3744
10620TIP3   OH253350   3.062   5.914  13.554  0.3368 -0.0603  0.1395
10620TIP3    H153351   3.117   5.934  13.630  0.5722 -1.2064  0.2773
10620TIP3    H253352   2.985   5.970  13.565  0.9914  0.7923  0.4902
10621TIP3   OH253353   1.283   1.911  13.512  0.8937 -0.1129 -0.0042
10621TIP3    H153354   1.340   1.843  13.548  2.4932  1.3075  0.2219
10621TIP3    H253355   1.256   1.878  13.426 -0.6407 -2.2631  1.2321
10622TIP3   OH253356   1.911   4.965   6.224 -0.2132 -0.1071  0.5085
10622TIP3    H153357   1.950   4.949   6.310 -0.5321 -0.0860  0.6590
10622TIP3    H253358   1.824   4.998   6.244  0.1059  0.9428  0.1875
10623TIP3   OH253359   2.236   4.896   0.753 -0.1000  0.0337  0.1712
10623TIP3    H153360   2.294   4.971   0.762  0.0938 -0.0926 -0.0233
10623TIP3    H253361   2.240   4.852   0.838 -0.8187  0.6810  0.5395
10624TIP3   OH253362   4.269   3.488   0.347 -0.1031  0.0325  0.4553
10624TIP3    H153363   4.192   3.458   0.298 -0.3110 -2.8767  2.4005
10624TIP3    H253364   4.238   3.565   0.395 -1.3605 -0.1846  0.0276
10625TIP3   OH253365   1.433   4.262  11.573  0.4036 -0.1186  0.5525
10625TIP3    H153366   1.386   4.236  11.652  0.0624 -0.5243  0.2195
10625TIP3    H253367   1.396   4.206  11.504  1.7340 -0.8118  0.3846
10626TIP3   OH253368   1.596   3.787   1.528  0.1450 -0.1890  0.2701
10626TIP3    H153369   1.627   3.834   1.606  2.0076 -2.0899  0.7447
10626TIP3    H253370   1.546   3.714   1.564  0.5889 -0.7873 -0.3218
10627TIP3   OH253371   1.368   2.325  16.993 -0.4406 -0.5228  0.3591
10627TIP3    H153372   1.462   2.338  16.980 -0.4192 -0.8616  0.1715
10627TIP3    H253373   1.327   2.365  16.915 -0.4220 -0.8589  0.1783
10628TIP3   OH253374   0.667   0.091  12.274 -0.3697  0.0708  0.0748
10628TIP3    H153375   0.736   0.155  12.259  1.2308 -1.5973  0.1530
10628TIP3    H253376   0.635   0.069  12.187 -0.4691  0.4910  0.0057
10629TIP3   OH253377   0.811   5.264   3.734  0.1914  0.4792 -0.2608
10629TIP3    H153378   0.886   5.270   3.793 -1.9895  2.4536  2.3921
10629TIP3    H253379   0.747   5.211   3.782 -0.6898  0.0043 -1.9186
10630TIP3   OH253380   2.133   1.135  16.363 -0.8165  0.5538 -0.2941
10630TIP3    H153381   2.208   1.116  16.306 -0.7626 -1.8461  0.5430
10630TIP3    H253382   2.068   1.175  16.305  0.0770  0.1781 -1.5820
10631TIP3   OH253383   1.197   5.397   3.456 -0.0503 -0.5384 -0.0661
10631TIP3    H153384   1.176   5.412   3.548 -0.8189  1.3130 -0.5332
10631TIP3    H253385   1.283   5.355   3.458  0.4997  0.6009  1.4463
10632TIP3   OH253386   2.035   5.189  12.182 -0.5256 -0.3607 -0.2617
10632TIP3    H153387   1.973   5.250  12.143  0.1754  0.2724 -0.4060
10632TIP3    H253388   1.987   5.146  12.252 -1.7744 -1.4209 -1.7353
10633TIP3   OH253389   6.374   3.538  13.479 -0.0536 -0.3077 -0.4592
10633TIP3    H153390   6.304   3.482  13.511 -1.7164  1.1392 -1.4213
10633TIP3    H253391   6.385   3.512  13.387  2.0290 -1.8325  0.1899
10634TIP3   OH253392   1.576   5.875  13.239  0.1317  0.2419  0.0079
10634TIP3    H153393   1.600   5.887  13.148 -1.3915 -0.7538 -0.5470
10634TIP3    H253394   1.575   5.963  13.276 -0.3662  0.7623 -1.2425
10635TIP3   OH253395   1.497   0.773   3.675 -0.1207  0.0544 -0.5541
10635TIP3    H153396   1.553   0.810   3.607  0.6745 -1.7721 -0.9415
10635TIP3    H253397   1.548   0.780   3.755 -0.1678  0.2421 -0.5414
10636TIP3   OH253398   1.082   6.233   2.831  0.7522 -0.2880  0.4304
10636TIP3    H153399   1.167   6.198   2.858  0.8783 -1.2106 -1.1041
10636TIP3    H253400   1.025   6.157   2.827 -0.5089  0.4993  2.6817
10637TIP3   OH253401   5.647   1.133   5.103  0.1206  0.0161  0.6887
10637TIP3    H153402   5.553   1.131   5.117  0.1102  2.6330  1.3105
10637TIP3    H253403   5.681   1.186   5.176  2.1484 -1.5378  0.9168
10638TIP3   OH253404   3.847   5.220   4.386  0.0852 -0.4850 -0.4732
10638TIP3    H153405   3.824   5.187   4.299 -0.3779  0.7893 -0.8457
10638TIP3    H253406   3.867   5.142   4.436 -1.0693 -1.3484 -1.3205
10639TIP3   OH253407   2.975   2.629  13.858  0.2487 -0.4304 -0.8137
10639TIP3    H153408   3.036   2.568  13.818 -1.3007 -2.3654 -0.3332
10639TIP3    H253409   2.968   2.600  13.949 -0.5001  0.4773 -0.5709
10640TIP3   OH253410   4.423   5.220   0.732  0.3040 -0.6697  0.5180
10640TIP3    H153411   4.340   5.248   0.694 -0.1987 -0.5635  1.6733
10640TIP3    H253412   4.461   5.161   0.667 -0.3305 -0.1435 -0.3351
10641TIP3   OH253413   6.024   6.462   6.204 -0.3117  0.5373 -0.5193
10641TIP3    H153414   6.040   6.368   6.195  1.3873  0.8408 -0.9307
10641TIP3    H253415   5.945   6.468   6.257 -0.3928 -1.1293 -0.4225
10642TIP3   OH253416   3.877   3.408  13.110  0.6630  0.8905 -0.2831
10642TIP3    H153417   3.805   3.430  13.169  0.0891 -1.4672 -0.0722
10642TIP3    H253418   3.835   3.372  13.032  1.5532  0.9821 -0.8211
10643TIP3   OH253419   6.104   5.094  12.353 -0.4675 -0.3629 -0.3735
10643TIP3    H153420   6.080   5.080  12.261 -1.2074  1.0372 -0.4171
10643TIP3    H253421   6.198   5.111  12.352 -0.7380  1.1326 -1.0570
10644TIP3   OH253422   6.231   3.675   4.709 -0.3434  0.4330  0.2387
10644TIP3    H153423   6.141   3.663   4.740 -0.6784  1.6978 -0.2108
10644TIP3    H253424   6.269   3.739   4.770  0.5167 -0.7033  0.9159
10645TIP3   OH253425   6.205   0.311   0.946 -0.1423  0.7426  0.0343
10645TIP3    H153426   6.272   0.379   0.938  2.4282 -1.7731 -0.8899
10645TIP3    H253427   6.230   0.263   1.025 -1.9127  0.8296  0.6616
10646TIP3   OH253428   0.373   6.809  16.919  0.3182 -0.0475 -0.4538
10646TIP3    H153429   0.278   6.811  16.908  0.4307 -0.0979 -1.4899
10646TIP3    H253430   0.391   6.874  16.988 -0.5584 -0.8814  0.5784
10647TIP3   OH253431   6.603   3.465  13.086 -0.5393  0.0843  0.1953
10647TIP3    H153432   6.545   3.418  13.147 -1.0058  0.9699  0.4325
10647TIP3    H253433   6.653   3.395  13.043 -2.3340 -0.7512 -0.6015
10648TIP3   OH253434   2.755   1.080  16.883  0.4733 -0.4825 -0.3490
10648TIP3    H153435   2.694   1.153  16.870 -0.2455 -1.1895 -0.9132
10648TIP3    H253436   2.700   1.003  16.893  1.2260 -0.9149  0.6052
10649TIP3   OH253437   4.789   1.931  13.237  0.1141 -0.0832  0.3237
10649TIP3    H153438   4.855   1.891  13.179  0.4206  0.4536  0.3020
10649TIP3    H253439   4.757   1.858  13.290  1.0043 -0.2736  0.6017
10650TIP3   OH253440   4.852   5.033  16.956  0.1658  0.2074  0.0157
10650TIP3    H153441   4.797   5.010  17.031  1.8894 -0.3759  1.1300
10650TIP3    H253442   4.870   5.127  16.968 -0.3194  0.3266 -0.1782
10651TIP3   OH253443   3.114   1.106  17.087  0.1047 -0.2060 -0.4006
10651TIP3    H153444   3.128   1.172  17.020  2.3372  0.0095  0.2262
10651TIP3    H253445   3.171   1.033  17.061 -1.0726 -1.2209 -0.1938
10652TIP3   OH253446   3.941   4.675  15.475  0.0723  0.2994 -0.6997
10652TIP3    H153447   3.911   4.618  15.546 -1.1230  0.1602 -1.3194
10652TIP3    H253448   3.937   4.621  15.397  0.4868  0.7505 -1.0393
10653TIP3   OH253449   3.615   1.362   3.757 -0.1679 -0.4140 -0.1842
10653TIP3    H153450   3.582   1.337   3.671  2.5675  0.3871 -1.4966
10653TIP3    H253451   3.598   1.456   3.763 -0.2930 -0.4553  0.1340
10654TIP3   OH253452   6.712   2.121  15.490 -0.3337 -0.3629 -0.1513
10654TIP3    H153453   6.804   2.103  15.472  0.3909  0.2558  2.6427
10654TIP3    H253454   6.678   2.039  15.524 -0.6675 -0.4263 -0.6397
10655TIP3   OH253455   2.533   0.800   1.652 -0.2061  0.3886 -0.2196
10655TIP3    H153456   2.609   0.849   1.622 -0.1567 -0.1287 -0.9458
10655TIP3    H253457   2.534   0.719   1.601 -0.4097 -0.2842  0.8188
10656TIP3   OH253458   6.173   5.583   2.829 -0.7500  0.4934  0.7686
10656TIP3    H153459   6.185   5.669   2.790 -0.5673 -0.0765 -0.4448
10656TIP3    H253460   6.120   5.534   2.766 -0.6364 -0.3735  1.3284
10657TIP3   OH253461   3.533   5.559  12.028  0.0161  0.3391  0.3986
10657TIP3    H153462   3.609   5.506  12.005  0.4381  0.5790  1.2237
10657TIP3    H253463   3.512   5.608  11.948  0.2516 -0.2994 -0.0573
10658TIP3   OH253464   4.184   5.471   4.126  0.2581 -0.2495  0.5466
10658TIP3    H153465   4.256   5.476   4.062 -0.3499  0.8427 -0.0675
10658TIP3    H253466   4.197   5.387   4.171  1.1356 -0.6719 -0.4849
10659TIP3   OH253467   3.845   3.352  14.909 -0.0563 -0.2062  0.1219
10659TIP3    H153468   3.935   3.320  14.903 -0.2161 -0.2826 -2.9243
10659TIP3    H253469   3.833   3.373  15.001  2.7838 -1.0340  0.7414
10660TIP3   OH253470   3.646   5.512  13.868  0.3448  0.2810  0.0844
10660TIP3    H153471   3.705   5.443  13.899  1.0722  0.9400  0.1715
10660TIP3    H253472   3.572   5.464  13.831  0.5975 -0.5464  0.6182
10661TIP3   OH253473   4.249   3.705   4.748  0.0036  0.5311  0.2938
10661TIP3    H153474   4.202   3.788   4.759  1.0967  1.5250 -2.0705
10661TIP3    H253475   4.242   3.686   4.654  0.7430 -1.4779  0.6165
10662TIP3   OH253476   2.257   0.404  16.621  0.2149 -0.4055 -0.2296
10662TIP3    H153477   2.303   0.375  16.699 -2.1964 -0.2542  1.2762
10662TIP3    H253478   2.323   0.454  16.572  1.6389 -0.1384  1.8875
10663TIP3   OH253479   0.318   2.227   6.574  0.6353  0.3167 -0.5929
10663TIP3    H153480   0.396   2.215   6.628  1.2892 -2.6840 -2.0827
10663TIP3    H253481   0.251   2.172   6.615 -0.4431  2.0817  0.0901
10664TIP3   OH253482   5.297   5.867  10.505  0.3448  0.1695  0.2074
10664TIP3    H153483   5.369   5.829  10.555  1.1436  0.7709 -0.4657
10664TIP3    H253484   5.299   5.822  10.420 -0.5067 -0.2992  0.4335
10665TIP3   OH253485   6.056   5.457   6.504 -0.1579  0.1920 -0.2271
10665TIP3    H153486   5.968   5.464   6.543 -0.4177  0.6147 -0.8934
10665TIP3    H253487   6.040   5.442   6.411  0.4887  1.7531 -0.5979
10666TIP3   OH253488   0.587   3.660  11.119 -0.4662 -0.5093  0.2735
10666TIP3    H153489   0.595   3.565  11.124  0.2674 -0.4731 -0.1340
10666TIP3    H253490   0.672   3.690  11.086 -1.5644  0.0536 -2.1973
10667TIP3   OH253491   0.182   2.395  17.228  0.2481  0.1434 -0.3707
10667TIP3    H153492   0.092   2.406  17.200  0.2884  1.5189 -0.0295
10667TIP3    H253493   0.175   2.364  17.319  0.1266 -0.5951 -0.6270
10668TIP3   OH253494   1.768   3.667  16.069 -0.2320  0.5649  0.3415
10668TIP3    H153495   1.770   3.752  16.026  0.3368 -0.1089 -1.0074
10668TIP3    H253496   1.860   3.639  16.069 -0.3434  0.1805  1.2525
10669TIP3   OH253497   4.771   5.754  11.243 -0.1662 -0.1921  0.2201
10669TIP3    H153498   4.810   5.788  11.324  1.0127  1.7364 -1.1009
10669TIP3    H253499   4.824   5.678  11.220  0.5711  0.2708  0.3730
10670TIP3   OH253500   4.405   3.874  15.023 -0.1675  0.2801  0.3931
10670TIP3    H153501   4.460   3.796  15.026 -0.3835  0.1548  1.4537
10670TIP3    H253502   4.414   3.907  14.934  0.3439 -0.6561  0.0936
10671TIP3   OH253503   3.117   2.093  15.457  0.0170  0.1216  0.5097
10671TIP3    H153504   3.171   2.062  15.385  1.5064  0.9515  1.2363
10671TIP3    H253505   3.049   2.027  15.467  0.1714 -0.3165 -1.2375
10672TIP3   OH253506   4.997   1.982   0.311 -0.1576  0.2680  0.5451
10672TIP3    H153507   4.953   1.927   0.245  1.8368 -0.5262 -0.1544
10672TIP3    H253508   4.954   1.959   0.393 -0.7363 -0.8489 -0.0495
10673TIP3   OH253509   6.316   0.948  12.806 -0.0738  0.5333 -0.0526
10673TIP3    H153510   6.247   0.884  12.785 -0.6053  0.0780  2.8948
10673TIP3    H253511   6.397   0.906  12.777 -0.8466  0.3001 -1.9082
10674TIP3   OH253512   1.693   4.713  15.531 -0.0585 -0.2465 -0.7029
10674TIP3    H153513   1.745   4.700  15.452  1.0316 -0.3801  0.0316
10674TIP3    H253514   1.653   4.628  15.548 -0.1006 -0.2818 -0.9747
10675TIP3   OH253515   5.724   4.476  16.013  0.1133  0.6538 -0.2255
10675TIP3    H153516   5.722   4.561  16.057  2.3654  0.6060  0.0290
10675TIP3    H253517   5.658   4.424  16.058 -0.6484  1.9801  0.2188
10676TIP3   OH253518   0.897   4.120  16.353  0.6341 -0.6244  0.2741
10676TIP3    H153519   0.903   4.212  16.328  1.4089  0.0693  2.8347
10676TIP3    H253520   0.810   4.093  16.324  0.0031  1.2231  0.3782
10677TIP3   OH253521   4.706   2.689  13.679  0.3388 -0.0242  0.0661
10677TIP3    H153522   4.662   2.773  13.692  0.9288  0.0199  1.9111
10677TIP3    H253523   4.710   2.678  13.584 -1.5790  1.0614 -0.1653
10678TIP3   OH253524   1.094   4.164   6.011  0.2024 -0.7529  0.8137
10678TIP3    H153525   1.144   4.204   6.083  0.8210  0.0470 -0.0514
10678TIP3    H253526   1.006   4.201   6.019  0.2833 -0.6271  1.1287
10679TIP3   OH253527   2.379   6.577  15.152  0.3498 -0.0732  0.0292
10679TIP3    H153528   2.375   6.659  15.103 -0.3918 -0.1781 -0.0975
10679TIP3    H253529   2.288   6.559  15.175  0.4053 -1.3373 -0.7255
10680TIP3   OH253530   5.223   3.095  14.160 -0.3843 -0.0900  0.0749
10680TIP3    H153531   5.260   3.096  14.249 -0.3284  0.8661  0.0480
10680TIP3    H253532   5.134   3.126  14.171 -0.3185  0.2090 -0.2309
10681TIP3   OH253533   2.939   2.142  16.877  0.1957  0.4123  0.6357
10681TIP3    H153534   2.845   2.128  16.864  0.2587 -0.0329  0.6677
10681TIP3    H253535   2.945   2.235  16.902 -0.3235  0.2353  1.4576
10682TIP3   OH253536   5.616   6.264  16.214  0.6308 -0.3854 -0.1908
10682TIP3    H153537   5.700   6.242  16.254 -0.9002 -2.7756  1.8786
10682TIP3    H253538   5.589   6.183  16.170 -0.6397  0.3325 -0.7618
10683TIP3   OH253539   0.870   2.510  10.893 -0.4689  0.0437  0.0148
10683TIP3    H153540   0.912   2.510  10.979 -1.4930 -0.2299  0.5216
10683TIP3    H253541   0.858   2.417  10.872  0.2244  0.0967 -0.6531
10684TIP3   OH253542   5.931   3.600   3.904 -0.1916  0.1394 -0.2397
10684TIP3    H153543   5.899   3.602   3.813  0.3781 -3.3073 -0.5975
10684TIP3    H253544   5.853   3.581   3.956 -0.1048 -0.4199 -0.3041
10685TIP3   OH253545   5.719   2.131  12.232  0.0338  0.1308 -0.1468
10685TIP3    H153546   5.775   2.208  12.225  0.8965 -0.6894 -2.7206
10685TIP3    H253547   5.731   2.084  12.149 -1.5402 -2.0533  0.7982
10686TIP3   OH253548   6.109   1.438  16.134  0.1050  0.1888 -0.1057
10686TIP3    H153549   6.104   1.345  16.115 -0.7372  0.6249 -2.1442
10686TIP3    H253550   6.134   1.443  16.226  0.0772 -2.0390  0.0342
10687TIP3   OH253551   3.833   4.574   0.338 -0.1586  0.3575  0.6760
10687TIP3    H153552   3.766   4.639   0.319 -0.8163  1.0310  4.7880
10687TIP3    H253553   3.791   4.514   0.400  1.6207 -1.8571 -0.1782
10688TIP3   OH253554   2.868   6.547  13.760  0.5462 -0.0140  0.2867
10688TIP3    H153555   2.791   6.605  13.762  1.4668  1.2407 -0.0717
10688TIP3    H253556   2.909   6.566  13.676  3.2986  2.0518  2.0120
10689TIP3   OH253557   4.443   2.187  12.727 -0.0372  0.5454  0.1575
10689TIP3    H153558   4.393   2.114  12.762  0.2208 -0.5113 -1.6562
10689TIP3    H253559   4.526   2.183  12.774  1.1700 -2.2305 -2.0832
10690TIP3   OH253560   2.899   1.753   4.916  0.3922 -0.2384 -0.0812
10690TIP3    H153561   2.892   1.760   5.011  2.0009 -0.9704  0.1078
10690TIP3    H253562   2.828   1.808   4.882  0.1413  0.4476  1.5269
10691TIP3   OH253563   2.978   0.457   4.709  0.0994  0.2160  0.0972
10691TIP3    H153564   3.036   0.515   4.660 -1.6690  1.3985 -0.6280
10691TIP3    H253565   3.037   0.411   4.769  1.6541  2.2040  0.1784
10692TIP3   OH253566   1.743   6.747   5.226  0.2981 -0.1129 -0.1133
10692TIP3    H153567   1.695   6.829   5.232  0.8831  0.3665 -1.6961
10692TIP3    H253568   1.825   6.764   5.272 -0.1980 -0.2930  0.8480
10693TIP3   OH253569   4.127   6.705   5.063  0.2963 -0.0399  0.2955
10693TIP3    H153570   4.216   6.674   5.074  0.3022  0.0239  0.4206
10693TIP3    H253571   4.119   6.778   5.124 -0.3570 -1.0708  1.4591
10694TIP3   OH253572   4.145   4.827   1.501 -0.6065  0.3154 -0.3758
10694TIP3    H153573   4.082   4.884   1.544  0.0368  0.3261  0.5731
10694TIP3    H253574   4.194   4.885   1.442 -1.7130  0.2353 -1.3999
10695TIP3   OH253575   6.510   6.304   5.474  0.4666  0.1151 -0.7184
10695TIP3    H153576   6.580   6.240   5.489  1.8455  1.1694 -2.4457
10695TIP3    H253577   6.429   6.253   5.481  1.4695 -1.4968 -0.5211
10696TIP3   OH253578   2.617   4.372   2.222  0.1225  0.3896  0.5316
10696TIP3    H153579   2.652   4.435   2.159  1.9658 -0.8432  0.2829
10696TIP3    H253580   2.591   4.296   2.169 -3.4285  1.4234  0.6555
10697TIP3   OH253581   2.447   1.333   4.620  0.0638  0.1749  0.1337
10697TIP3    H153582   2.451   1.259   4.681  1.2999  1.1434  1.2701
10697TIP3    H253583   2.517   1.316   4.557 -1.5444 -1.0879 -1.3657
10698TIP3   OH253584   3.725   0.658  16.384  0.3814  0.1030  0.2746
10698TIP3    H153585   3.637   0.697  16.383  0.8467  1.1189 -0.8749
10698TIP3    H253586   3.775   0.714  16.443  0.2928 -0.4470  0.8881
10699TIP3   OH253587   0.185   3.361  15.898 -0.0461 -0.0130 -0.2986
10699TIP3    H153588   0.146   3.354  15.985 -0.4616  1.0854 -0.3905
10699TIP3    H253589   0.276   3.333  15.911 -0.9255 -2.8721 -0.1613
10700TIP3   OH253590   0.827   0.628  14.410 -0.4208 -0.4447  0.5980
10700TIP3    H153591   0.789   0.715  14.421 -0.7974 -0.4839 -0.3985
10700TIP3    H253592   0.836   0.595  14.500 -2.4531 -0.3023  0.8743
10701TIP3   OH253593   1.487   3.066  12.375 -0.2717 -0.4375 -0.1878
10701TIP3    H153594   1.478   3.063  12.280  0.2111 -0.4105 -0.2339
10701TIP3    H253595   1.508   3.157  12.395 -0.5759 -0.3993 -0.0376
10702TIP3   OH253596   2.813   6.369  12.753 -0.2114 -0.3437  0.1613
10702TIP3    H153597   2.768   6.398  12.833  0.4360  1.6605 -0.1881
10702TIP3    H253598   2.746   6.374  12.685 -0.0360  0.6145  0.0525
10703TIP3   OH253599   1.909   3.314   0.040  0.1646  0.0736 -0.5993
10703TIP3    H153600   1.911   3.219   0.044  1.7290  0.0594 -1.1347
10703TIP3    H253601   1.857   3.341   0.116  0.0233 -1.1888 -0.2434
10704TIP3   OH253602   3.135   2.264   2.551  0.5454 -0.2086 -0.4962
10704TIP3    H153603   3.200   2.330   2.573  1.7511 -1.3138 -0.6545
10704TIP3    H253604   3.124   2.272   2.457 -0.9975  1.2586 -0.2211
10705TIP3   OH253605   2.844   0.970  14.735  0.2100  0.5329  0.1723
10705TIP3    H153606   2.827   1.015  14.652 -3.0155 -0.2194  0.3561
10705TIP3    H253607   2.854   0.878  14.710 -2.1059  0.0980  0.6874
10706TIP3   OH253608   3.104   4.119   5.043 -0.1636 -0.3196 -0.3887
10706TIP3    H153609   3.194   4.149   5.035  0.0118 -1.0879 -1.3067
10706TIP3    H253610   3.101   4.075   5.128  0.4506 -0.7431 -0.5903
10707TIP3   OH253611   3.701   0.030   5.479  0.1766  1.1007 -0.1318
10707TIP3    H153612   3.653  -0.024   5.542 -0.7556  2.2676  0.1716
10707TIP3    H253613   3.725  -0.031   5.409  0.3777  0.0006  0.8752
10708TIP3   OH253614   6.227   1.194   2.337 -1.0216  0.4027  0.3017
10708TIP3    H153615   6.167   1.187   2.262 -1.9104  0.9017  0.9556
10708TIP3    H253616   6.257   1.105   2.353 -0.6705  0.3231 -0.7780
10709TIP3   OH253617   6.049   2.766  11.864 -0.5449 -0.0491  0.0782
10709TIP3    H153618   6.114   2.787  11.797 -1.5073 -0.3600 -0.9558
10709TIP3    H253619   5.983   2.714  11.819 -0.7917 -0.9674  1.4547
10710TIP3   OH253620   0.432   0.776   5.857  0.1232  0.7019  0.1059
10710TIP3    H153621   0.522   0.744   5.862 -1.1375 -2.9101  0.7450
10710TIP3    H253622   0.405   0.787   5.948 -0.6438  0.1834 -0.0604
10711TIP3   OH253623   6.734   3.919  12.604  0.2264 -0.1657  0.1929
10711TIP3    H153624   6.659   3.977  12.595  0.3951  0.1614  0.8802
10711TIP3    H253625   6.733   3.892  12.696  0.4597 -0.8254  0.0059
10712TIP3   OH253626   4.219   4.491  11.765  0.1602 -0.0040 -0.0788
10712TIP3    H153627   4.297   4.529  11.804  0.1765  0.0640 -0.1776
10712TIP3    H253628   4.244   4.401  11.745 -0.2090 -0.3795  1.1156
10713TIP3   OH253629   4.563   3.049  14.189 -0.6106 -0.7294 -0.3969
10713TIP3    H153630   4.577   3.060  14.283 -0.3162 -1.6935 -0.3200
10713TIP3    H253631   4.616   2.972  14.166  2.5745  1.8345 -2.0881
10714TIP3   OH253632   1.355   0.052   2.441 -0.0305 -0.2896  0.0564
10714TIP3    H153633   1.304  -0.029   2.447 -2.0961  1.0771  1.6602
10714TIP3    H253634   1.371   0.077   2.532  0.3242  1.2460 -0.4178
10715TIP3   OH253635   0.783   4.718  16.114  0.5433 -0.1457 -0.1891
10715TIP3    H153636   0.759   4.666  16.037  0.0549  0.7424 -0.6408
10715TIP3    H253637   0.701   4.755  16.145  0.6335 -1.1068  1.2224
10716TIP3   OH253638   3.171   1.393  17.229 -0.4189 -0.1322  0.4638
10716TIP3    H153639   3.164   1.477  17.275 -1.4183 -1.5980  3.0528
10716TIP3    H253640   3.265   1.380  17.217 -0.0950  0.0726  2.5378
10717TIP3   OH253641   4.665   0.037   3.577  0.1395 -0.3970 -0.3829
10717TIP3    H153642   4.618   0.114   3.547  0.8669 -0.3536 -1.4372
10717TIP3    H253643   4.757   0.058   3.563  0.5467 -0.1368  2.4790
10718TIP3   OH253644   2.047   2.123   2.157 -0.1548  0.4602 -0.1905
10718TIP3    H153645   2.009   2.088   2.237  0.1941  1.0632  0.2394
10718TIP3    H253646   2.124   2.068   2.140 -0.3361  0.2149 -0.2166
10719TIP3   OH253647   2.161   5.023  14.123  0.0242  0.3232  0.1511
10719TIP3    H153648   2.236   5.005  14.067  0.5770  0.6148  0.7915
10719TIP3    H253649   2.104   5.080  14.071  0.7363  0.9372  0.0478
10720TIP3   OH253650   2.087   1.579  13.595 -0.3483 -0.5699  0.1092
10720TIP3    H153651   2.016   1.642  13.601  2.0929  2.4256 -0.9697
10720TIP3    H253652   2.094   1.559  13.502  0.5626 -0.3585  0.1175
10721TIP3   OH253653   0.688   6.752   0.759 -0.0548 -0.1997 -0.4246
10721TIP3    H153654   0.753   6.822   0.768  0.4923 -0.4112 -2.6084
10721TIP3    H253655   0.726   6.679   0.807  0.8362  0.0191 -0.7786
10722TIP3   OH253656   3.457   6.605   5.537 -0.0863 -0.1256 -1.1137
10722TIP3    H153657   3.393   6.629   5.604  0.3130  3.1282 -1.8229
10722TIP3    H253658   3.422   6.643   5.456  1.0875 -1.1899 -2.1441
10723TIP3   OH253659   6.334   2.480  15.659  0.0538 -0.0573  0.1516
10723TIP3    H153660   6.286   2.559  15.635  0.0239  0.6564  2.4869
10723TIP3    H253661   6.267   2.413  15.668 -0.0591 -0.0422 -0.5074
10724TIP3   OH253662   4.998   2.290  12.164 -0.2584  0.8808  0.1821
10724TIP3    H153663   4.928   2.227  12.147  0.1068  0.9113 -1.5207
10724TIP3    H253664   4.955   2.361  12.212 -1.0462  0.1712  0.5459
10725TIP3   OH253665   6.668   4.905   3.522 -0.6808 -0.2048  0.8897
10725TIP3    H153666   6.581   4.938   3.547 -1.0762  0.3113 -1.0823
10725TIP3    H253667   6.650   4.834   3.461  0.2695  0.3600 -0.0798
10726TIP3   OH253668   5.997   4.420  11.505 -0.0006 -0.0304  0.0085
10726TIP3    H153669   5.931   4.380  11.563  0.6515  0.6848  1.2640
10726TIP3    H253670   5.973   4.513  11.503 -0.7483 -0.2380 -1.8745
10727TIP3   OH253671   0.966   1.542   2.962  0.0643  0.1471 -0.0894
10727TIP3    H153672   1.040   1.563   2.907 -0.0682  3.0910  0.7740
10727TIP3    H253673   0.890   1.543   2.903  0.3503 -0.1415 -0.4610
10728TIP3   OH253674   3.713   2.872  14.470  0.1775  0.0496  0.6361
10728TIP3    H153675   3.621   2.873  14.496 -0.1201  0.5966 -0.4290
10728TIP3    H253676   3.744   2.961  14.488  0.4039 -0.0268  0.6306
10729TIP3   OH253677   3.566   2.800  12.740  0.4713 -0.0901  0.1566
10729TIP3    H153678   3.643   2.771  12.691 -1.7022 -1.5859 -2.4921
10729TIP3    H253679   3.523   2.719  12.767 -0.1454  0.7373  1.7682
10730TIP3   OH253680   3.391   4.874  11.562 -0.5287  0.1477 -0.4320
10730TIP3    H153681   3.450   4.947  11.546 -0.5890  0.4233  0.5417
10730TIP3    H253682   3.304   4.907  11.539 -0.1472 -0.7354 -3.2986
10731TIP3   OH253683   4.687   3.521  11.654  0.0366 -0.4136  0.3251
10731TIP3    H153684   4.769   3.563  11.677 -0.2432 -0.5944  1.6940
10731TIP3    H253685   4.638   3.516  11.736 -2.2928  1.7534 -0.8370
10732TIP3   OH253686   3.822   2.004   2.689  0.0359  0.2891 -0.0754
10732TIP3    H153687   3.898   2.008   2.632 -0.1777  1.0061 -0.3175
10732TIP3    H253688   3.826   2.085   2.740  0.4658 -0.5403  1.2388
10733TIP3   OH253689   5.029   1.420  12.914 -0.3842  0.6165  0.0909
10733TIP3    H153690   4.957   1.370  12.954 -3.2877  3.6113 -1.1113
10733TIP3    H253691   5.030   1.390  12.823  0.1796  0.3007  0.1995
10734TIP3   OH253692   2.505   0.483  15.410  0.1811  0.0359 -0.1908
10734TIP3    H153693   2.474   0.440  15.490  0.7391 -2.1855 -1.1261
10734TIP3    H253694   2.431   0.537  15.382 -0.1068  0.6556  1.6881
10735TIP3   OH253695   2.804   0.548  13.398 -0.2408  0.3226 -0.2822
10735TIP3    H153696   2.807   0.506  13.484  0.4847  1.5707  0.3021
10735TIP3    H253697   2.823   0.640  13.415  0.1539  0.5320 -1.8055
10736TIP3   OH253698   0.891   0.891   3.992 -0.5158  0.0068  0.2542
10736TIP3    H153699   0.860   0.901   3.902 -0.0043 -0.4505  0.0188
10736TIP3    H253700   0.817   0.852   4.039 -0.3598 -0.9284 -0.2609
10737TIP3   OH253701   0.114   6.137  15.848  0.3892  0.3526  0.1495
10737TIP3    H153702   0.056   6.062  15.859 -0.1132  0.5672 -1.0665
10737TIP3    H253703   0.153   6.126  15.762 -1.2849  2.5711 -0.9674
10738TIP3   OH253704   5.687   3.655   5.581  0.0214 -0.3527 -0.2018
10738TIP3    H153705   5.655   3.652   5.491  0.6211 -3.1968 -0.3795
10738TIP3    H253706   5.623   3.709   5.627 -1.0616 -0.0118 -2.0514
10739TIP3   OH253707   1.358   0.150  14.944 -0.7880 -0.2370 -0.2689
10739TIP3    H153708   1.280   0.204  14.951  0.0456  0.7440  1.5405
10739TIP3    H253709   1.393   0.170  14.857 -1.0635  1.3414 -0.0263
10740TIP3   OH253710   6.671   5.784   0.290 -0.7195  0.3859 -0.1517
10740TIP3    H153711   6.670   5.733   0.371  4.5244 -0.0852 -0.1945
10740TIP3    H253712   6.702   5.871   0.317  2.6856 -0.2502 -1.8002
10741TIP3   OH253713   0.056   5.166   3.866 -0.1503 -0.2344 -0.6389
10741TIP3    H153714   0.096   5.253   3.863 -0.9297  0.1133 -0.8099
10741TIP3    H253715   0.130   5.106   3.855  0.7000  0.3256  1.6458
10742TIP3   OH253716   1.174   4.641   1.120 -0.0760 -0.1032 -0.8349
10742TIP3    H153717   1.244   4.646   1.186 -1.8176  0.7600  1.0007
10742TIP3    H253718   1.183   4.722   1.070 -1.2965  1.2596  1.0553
10743TIP3   OH253719   4.855   0.591   4.904 -0.0200 -0.3548  0.3236
10743TIP3    H153720   4.848   0.593   4.999 -1.6469  0.8213  0.1921
10743TIP3    H253721   4.772   0.553   4.874 -0.0083  0.3789 -0.6720
10744TIP3   OH253722   0.455   5.160   3.295  0.0191 -0.0541  0.5506
10744TIP3    H153723   0.518   5.165   3.367  1.6372 -0.6095 -0.7816
10744TIP3    H253724   0.445   5.066   3.279 -0.6765  0.0531  0.3582
10745TIP3   OH253725   2.923   2.536  15.181 -0.0058  0.2264  0.1430
10745TIP3    H153726   2.934   2.510  15.089  0.0532  0.8748 -0.0411
10745TIP3    H253727   2.849   2.597  15.179 -0.4203 -0.2567  0.6251
10746TIP3   OH253728   0.930   5.274  15.188  0.5094 -0.1832 -0.3029
10746TIP3    H153729   0.838   5.256  15.171  0.6616 -1.3349  0.0144
10746TIP3    H253730   0.929   5.344  15.253 -0.1549 -0.7470  0.3015
10747TIP3   OH253731   2.165   0.264  15.618  0.3493 -0.5524  0.0859
10747TIP3    H153732   2.074   0.284  15.639  0.1916 -1.7415  0.6246
10747TIP3    H253733   2.163   0.235  15.527  0.4300  0.8543 -0.3790
10748TIP3   OH253734   1.523   4.843  10.430  0.0784 -0.6867 -0.1148
10748TIP3    H153735   1.601   4.810  10.473 -0.7717 -1.6041  0.7293
10748TIP3    H253736   1.486   4.768  10.384 -0.2098 -0.2122 -0.6839
10749TIP3   OH253737   3.386   0.750  16.293  0.6750 -0.3120 -0.2903
10749TIP3    H153738   3.414   0.665  16.327  0.5235  0.1916  1.1279
10749TIP3    H253739   3.304   0.732  16.248  0.5741 -0.8966  0.1209
10750TIP3   OH253740   3.992   4.293  16.712  0.4348 -0.3507  0.2057
10750TIP3    H153741   4.032   4.246  16.785  0.5372  0.2756  0.5504
10750TIP3    H253742   4.060   4.353  16.681  0.4385 -0.7011 -0.4914
10751TIP3   OH253743   1.242   4.917  14.693  0.5577 -0.1601 -0.4668
10751TIP3    H153744   1.198   5.002  14.698 -1.0256 -0.7357 -3.7350
10751TIP3    H253745   1.310   4.929  14.626  1.7351 -0.8968  0.5718
10752TIP3   OH253746   1.426   4.196   4.051  0.0492 -0.4800  0.0236
10752TIP3    H153747   1.410   4.286   4.077  0.7629 -0.5982  0.8668
10752TIP3    H253748   1.371   4.144   4.110  2.2715 -0.7938  1.8903
10753TIP3   OH253749   6.164   5.028   1.231 -0.0450  0.2802  0.1270
10753TIP3    H153750   6.143   5.060   1.318  1.2847 -0.5666  0.7724
10753TIP3    H253751   6.259   5.034   1.225 -0.2033  1.3816 -1.6945
10754TIP3   OH253752   3.564   1.633   5.237 -0.2668  0.0711  0.2649
10754TIP3    H153753   3.625   1.617   5.165 -1.4968 -0.5477 -0.6772
10754TIP3    H253754   3.602   1.587   5.312  0.7249  0.2077 -0.1511
10755TIP3   OH253755   5.636   1.096  13.159 -0.0248  0.3512  0.2475
10755TIP3    H153756   5.582   1.029  13.117 -0.6252  0.1084  1.3992
10755TIP3    H253757   5.697   1.124  13.090 -1.3974  0.4047 -0.9778
10756TIP3   OH253758   2.705   3.006  13.563  0.2735  0.1262  0.3961
10756TIP3    H153759   2.768   3.075  13.585 -0.1651  0.8171 -0.4431
10756TIP3    H253760   2.748   2.925  13.589  2.0091  0.4864 -1.1945
10757TIP3   OH253761   2.470   2.441   3.374  0.2254  0.0843 -0.3868
10757TIP3    H153762   2.397   2.433   3.313  0.0449  2.0244 -0.4384
10757TIP3    H253763   2.526   2.509   3.336  1.8315 -1.0441 -0.1142
10758TIP3   OH253764   6.213   2.105   0.225  0.4817  0.0294 -0.3421
10758TIP3    H153765   6.202   2.158   0.304 -1.3103  1.5584 -1.5697
10758TIP3    H253766   6.172   2.021   0.247  1.7477 -0.2483  1.0105
10759TIP3   OH253767   6.377   0.319   2.233  0.1183  0.1187  0.5172
10759TIP3    H153768   6.321   0.245   2.209  0.2257  0.2700 -0.2053
10759TIP3    H253769   6.456   0.306   2.181 -0.6270  1.7986 -1.0512
10760TIP3   OH253770   2.184   0.360  13.910  0.1160 -0.1838  0.3518
10760TIP3    H153771   2.276   0.367  13.886  0.6411  1.9099  2.7281
10760TIP3    H253772   2.184   0.346  14.004 -1.9845 -2.4152  0.0813
10761TIP3   OH253773   1.258   2.558  15.469  0.3642 -0.0917 -0.2438
10761TIP3    H153774   1.170   2.586  15.441  0.2006 -0.4231 -0.0648
10761TIP3    H253775   1.317   2.623  15.431  0.0360  0.1621 -0.3239
10762TIP3   OH253776   3.061   2.325  13.758 -0.3323 -0.0476 -0.7994
10762TIP3    H153777   3.135   2.341  13.817 -1.1915  0.1561  0.2560
10762TIP3    H253778   2.985   2.329  13.816 -1.1322 -0.5988 -1.8202
10763TIP3   OH253779   5.092   5.966  12.036 -0.6634 -0.4101 -0.2175
10763TIP3    H153780   5.162   6.030  12.035  0.9461 -2.0847  1.2658
10763TIP3    H253781   5.079   5.942  11.944  0.5758  0.0601 -0.5190
10764TIP3   OH253782   5.578   6.518  13.779  0.0090 -0.1458  0.3295
10764TIP3    H153783   5.672   6.526  13.799  0.0366 -1.8244  0.9327
10764TIP3    H253784   5.535   6.558  13.855  0.2241  0.0344  0.3595
10765TIP3   OH253785   0.557   4.850  12.653 -0.5081 -0.2283 -0.0422
10765TIP3    H153786   0.543   4.869  12.745 -3.1785  0.4509 -0.5372
10765TIP3    H253787   0.493   4.781  12.633  1.3523 -1.7539 -0.9439
10766TIP3   OH253788   4.547   6.153  12.857 -0.3338 -0.3259 -0.2664
10766TIP3    H153789   4.521   6.228  12.910 -0.1196  0.8850 -1.8298
10766TIP3    H253790   4.505   6.168  12.772 -0.1737 -1.9134 -0.6453
10767TIP3   OH253791   1.420   4.716   1.246  0.7112 -0.1805 -0.3555
10767TIP3    H153792   1.498   4.668   1.274  1.7864  1.2312 -0.8831
10767TIP3    H253793   1.386   4.756   1.326  0.4726 -0.8631 -0.1120
10768TIP3   OH253794   3.774   0.314  16.023  0.2022  0.2414  0.1871
10768TIP3    H153795   3.770   0.355  15.937  1.8680  2.4897  1.1149
10768TIP3    H253796   3.853   0.261  16.021 -1.6586 -2.5691 -0.8230
10769TIP3   OH253797   0.412   0.473   3.358  0.3750 -0.1093  0.1268
10769TIP3    H153798   0.353   0.401   3.380  1.3735 -1.1983 -0.6505
10769TIP3    H253799   0.495   0.430   3.339  0.9820  1.2615 -0.3906
10770TIP3   OH253800   4.939   0.298  14.153  0.2042 -0.2262  0.1536
10770TIP3    H153801   4.940   0.249  14.235  0.9422  0.6354  0.6641
10770TIP3    H253802   4.856   0.346  14.155 -0.3444 -1.1307 -0.1755
10771TIP3   OH253803   1.842   0.779   4.463 -0.2298 -0.3310 -0.1461
10771TIP3    H153804   1.756   0.741   4.442  0.5517 -1.1290 -1.9938
10771TIP3    H253805   1.903   0.706   4.455  0.4229 -0.1802  2.9392
10772TIP3   OH253806   3.273   0.391  13.492  0.4778 -0.3038 -0.0462
10772TIP3    H153807   3.357   0.391  13.536  0.0063  0.5175  0.8790
10772TIP3    H253808   3.265   0.303  13.455  1.2526 -0.7294  0.7872
10773TIP3   OH253809   5.490   5.316  11.926 -0.0930 -0.1102 -0.0920
10773TIP3    H153810   5.420   5.252  11.941  0.6042 -0.6847  0.7481
10773TIP3    H253811   5.464   5.392  11.978 -0.5132 -0.0058 -0.4484
10774TIP3   OH253812   4.404   1.132  15.000  0.1098 -0.5218 -0.3937
10774TIP3    H153813   4.367   1.132  14.912  0.7675 -1.1613 -0.6725
10774TIP3    H253814   4.493   1.164  14.989  0.0689 -0.2167  0.1014
10775TIP3   OH253815   3.407   1.785  14.774  0.3360  0.0477  0.3629
10775TIP3    H153816   3.474   1.742  14.720  0.1403 -1.4180  1.2487
10775TIP3    H253817   3.453   1.810  14.854 -0.2635 -1.3658  1.1593
10776TIP3   OH253818   2.026   2.772  15.892 -0.0584  0.1916  0.1165
10776TIP3    H153819   1.940   2.759  15.850 -0.5496  0.9680  0.8826
10776TIP3    H253820   2.007   2.819  15.973  1.1652  0.9636 -0.0267
10777TIP3   OH253821   4.251   0.252   1.630 -0.3245  0.1142 -0.2268
10777TIP3    H153822   4.246   0.173   1.578  0.6811 -0.9385  1.2110
10777TIP3    H253823   4.179   0.245   1.693 -0.3787  0.4566 -0.2467
10778TIP3   OH253824   2.752   1.463   6.462 -1.2741  0.5562 -0.0207
10778TIP3    H153825   2.816   1.480   6.393 -1.1960 -1.4661 -0.4548
10778TIP3    H253826   2.797   1.489   6.543  0.1373 -0.9335 -0.3072
10779TIP3   OH253827   5.575   2.832   1.513  0.0322 -0.3094  0.4790
10779TIP3    H153828   5.591   2.745   1.474 -0.4586 -0.5677  0.8535
10779TIP3    H253829   5.600   2.822   1.605  0.5059  0.1055  0.3988
10780TIP3   OH253830   6.014   3.438   2.821  0.3153 -0.1440 -0.5444
10780TIP3    H153831   5.993   3.400   2.906  1.0176  1.7332  0.5151
10780TIP3    H253832   6.059   3.369   2.774 -0.7261 -1.4501  0.3324
10781TIP3   OH253833   6.644   5.738  11.338  0.2734 -0.8654 -0.1557
10781TIP3    H153834   6.705   5.753  11.267 -0.1831  0.0373 -0.3618
10781TIP3    H253835   6.576   5.682  11.300  0.7407 -1.5243 -0.0398
10782TIP3   OH253836   4.563   3.741  14.808  0.3699 -0.0910  0.7723
10782TIP3    H153837   4.571   3.646  14.798 -1.2536 -0.1316 -0.5077
10782TIP3    H253838   4.564   3.775  14.718  0.6180  1.0654  1.1998
10783TIP3   OH253839   6.308   4.692  13.960 -0.3232  0.2463  0.3217
10783TIP3    H153840   6.288   4.764  13.901 -1.0542  0.6008  0.9879
10783TIP3    H253841   6.325   4.734  14.044  2.3618 -0.1038  0.0178
10784TIP3   OH253842   1.412   3.716   3.645  0.2208 -0.1375 -0.5842
10784TIP3    H153843   1.434   3.628   3.613  2.1685  0.1920 -0.1720
10784TIP3    H253844   1.358   3.700   3.722  0.0736 -0.9752 -0.8525
10785TIP3   OH253845   0.028   6.258  12.106  0.1891  0.3134  0.4524
10785TIP3    H153846   0.041   6.272  12.012 -1.3635 -0.4159  0.1228
10785TIP3    H253847   0.050   6.342  12.145 -0.6415  1.1000 -0.7102
10786TIP3   OH253848   3.820   4.906  15.626  0.2506 -0.2814 -0.2283
10786TIP3    H153849   3.821   4.895  15.721 -0.8047 -2.3824 -0.4105
10786TIP3    H253850   3.886   4.845  15.594 -0.0883 -0.3104 -0.8930
10787TIP3   OH253851   1.260   4.210  15.644 -0.2929 -0.3679  0.2781
10787TIP3    H153852   1.296   4.224  15.557 -0.1291 -0.5957  0.3083
10787TIP3    H253853   1.298   4.127  15.672 -1.1538 -0.8140  0.1485
10788TIP3   OH253854   5.920   2.232   1.027 -0.3612 -0.6065 -0.9111
10788TIP3    H153855   5.991   2.170   1.010 -0.8301 -1.1867 -0.7545
10788TIP3    H253856   5.896   2.264   0.940  0.1218 -0.3802 -0.9603
10789TIP3   OH253857   0.984   0.109  14.213  0.4312 -0.0628 -0.5380
10789TIP3    H153858   0.958   0.153  14.132 -1.6751 -0.3434 -0.0501
10789TIP3    H253859   0.975   0.177  14.281 -2.5328 -1.0905  0.1687
10790TIP3   OH253860   5.065   4.583  11.547 -0.1912 -0.3726 -0.3986
10790TIP3    H153861   5.002   4.588  11.619  0.7428 -1.4679  0.5240
10790TIP3    H253862   5.030   4.515  11.490  1.3056 -2.6828  1.3252
10791TIP3   OH253863   2.311   0.227   3.975  0.5664  1.1607  0.1532
10791TIP3    H153864   2.288   0.208   4.066 -1.1267  0.0201 -0.4718
10791TIP3    H253865   2.394   0.183   3.961 -0.7296 -1.4152  0.2600
10792TIP3   OH253866   4.811   0.754  12.211 -0.4364  0.0576 -0.1184
10792TIP3    H153867   4.783   0.668  12.242  0.6091 -0.0134  0.6619
10792TIP3    H253868   4.763   0.816  12.267 -0.5665 -0.0278 -0.1340
10793TIP3   OH253869   1.403   1.002   0.133  0.1554 -0.1141  0.6832
10793TIP3    H153870   1.428   1.086   0.172  0.7886 -0.8728  1.9489
10793TIP3    H253871   1.424   0.937   0.201  0.1433 -1.3445 -0.4749
10794TIP3   OH253872   0.103   4.124  15.592 -0.1463 -0.3654 -0.3690
10794TIP3    H153873   0.061   4.070  15.658 -0.5207  1.9778  1.3735
10794TIP3    H253874   0.192   4.138  15.624 -0.1661  0.3555 -0.5953
10795TIP3   OH253875   0.621   0.904   2.803 -1.1021 -0.2094  0.3650
10795TIP3    H153876   0.556   0.960   2.845  1.5144  2.6035  0.7807
10795TIP3    H253877   0.654   0.848   2.874 -1.7125 -0.3565  0.5372
10796TIP3   OH253878   2.577   6.110   2.076 -0.1652  0.0672  0.5165
10796TIP3    H153879   2.590   6.046   2.005  0.2538  0.3248  0.3580
10796TIP3    H253880   2.578   6.057   2.156 -0.2824 -0.1828  0.3557
10797TIP3   OH253881   3.557   2.860  13.638  0.1889 -0.3182 -0.3103
10797TIP3    H153882   3.599   2.946  13.647  1.7696 -0.8193 -2.3100
10797TIP3    H253883   3.552   2.826  13.727  1.0030  1.2009  0.3342
10798TIP3   OH253884   6.028   2.350  14.810 -0.0914  0.5703  0.1979
10798TIP3    H153885   6.030   2.267  14.764  4.1446  1.0073 -0.6039
10798TIP3    H253886   6.008   2.415  14.743 -2.5839  0.3744  0.6794
10799TIP3   OH253887   2.646   1.516   5.789  0.0689  0.3477  0.0788
10799TIP3    H153888   2.593   1.448   5.746  0.1898  0.0215  0.4451
10799TIP3    H253889   2.680   1.569   5.717  0.6478 -0.4792 -0.2708
10800TIP3   OH253890   6.206   4.880  16.378 -0.3900 -0.0783  0.4674
10800TIP3    H153891   6.284   4.903  16.428  0.9684  1.3755 -2.2150
10800TIP3    H253892   6.157   4.962  16.370 -0.8451 -0.4080 -0.1868
10801TIP3   OH253893   4.734   2.124  13.526 -0.2124  0.1040 -0.0810
10801TIP3    H153894   4.675   2.166  13.463 -1.5460  0.9803  1.7250
10801TIP3    H253895   4.801   2.190  13.545 -1.2852  0.8001  1.3760
10802TIP3   OH253896   5.132   1.466  12.295 -0.2284 -0.6494 -0.1268
10802TIP3    H153897   5.084   1.526  12.238 -0.9542 -0.6739  0.4616
10802TIP3    H253898   5.187   1.523  12.348 -0.2372 -0.5647 -0.2080
10803TIP3   OH253899   5.422   5.376  12.995 -0.0134  0.1132  0.3043
10803TIP3    H153900   5.429   5.426  12.913 -0.0568  0.9831  0.8212
10803TIP3    H253901   5.414   5.285  12.967  2.3263  0.1626 -0.6187
10804TIP3   OH253902   0.629   5.951  17.158 -0.1444  0.1044 -0.6872
10804TIP3    H153903   0.637   6.046  17.151 -1.9835  0.4094  0.8127
10804TIP3    H253904   0.545   5.931  17.116  0.4844 -0.9354 -1.4659
10805TIP3   OH253905   4.184   5.837   5.799 -0.2830 -0.2404 -0.7220
10805TIP3    H153906   4.111   5.888   5.765  0.5152  0.8880 -0.7629
10805TIP3    H253907   4.143   5.762   5.843 -1.4535  0.3919 -0.7240
10806TIP3   OH253908   0.479   4.321   6.121  0.4030 -0.3139  0.2648
10806TIP3    H153909   0.498   4.414   6.103 -0.9288 -0.2221 -0.7357
10806TIP3    H253910   0.476   4.281   6.035 -0.8381 -0.9349  0.5944
10807TIP3   OH253911   3.556   1.255   1.208 -0.2221 -0.3216 -0.0857
10807TIP3    H153912   3.475   1.303   1.196  0.0487  0.6298  1.6360
10807TIP3    H253913   3.620   1.321   1.233  1.1429 -1.0340 -1.5924
10808TIP3   OH253914   6.063   1.781  12.098 -0.5167  0.0065  0.3434
10808TIP3    H153915   6.133   1.725  12.134 -0.4206  1.0148  1.7984
10808TIP3    H253916   6.000   1.789  12.170 -0.8423  1.2411 -0.0663
10809TIP3   OH253917   5.743   4.747  16.102 -0.0350  0.0760 -0.4815
10809TIP3    H153918   5.665   4.765  16.049 -0.7293  0.1956  0.5743
10809TIP3    H253919   5.798   4.825  16.090 -0.8230  0.7269  0.1072
10810TIP3   OH253920   3.873   4.131   5.445 -0.5500  0.4762  0.2694
10810TIP3    H153921   3.835   4.073   5.378 -2.2811  0.6828  1.0549
10810TIP3    H253922   3.898   4.210   5.397 -0.0139 -0.1374 -0.4666
10811TIP3   OH253923   0.106   1.863  15.772  1.0995  0.1126 -0.2698
10811TIP3    H153924   0.111   1.785  15.717  1.2514 -0.5362  0.6361
10811TIP3    H253925   0.138   1.934  15.717 -1.1685 -0.0594 -1.8512
10812TIP3   OH253926   5.361   1.895  11.661 -0.4466  0.0164 -0.1403
10812TIP3    H153927   5.425   1.827  11.681  0.3640  0.6505 -0.5808
10812TIP3    H253928   5.303   1.897  11.738  0.4912 -0.0446  0.5685
10813TIP3   OH253929   4.889   1.884   3.010 -0.4596 -0.1083 -0.4286
10813TIP3    H153930   4.825   1.813   3.006 -1.4259  0.7332  0.0488
10813TIP3    H253931   4.895   1.905   3.103 -0.5000  0.7326 -0.6164
10814TIP3   OH253932   4.432   0.449   5.082 -0.5602  0.1545  0.5558
10814TIP3    H153933   4.470   0.460   5.169  1.0010 -1.2900  0.0738
10814TIP3    H253934   4.338   0.460   5.096 -0.3259 -0.0136  2.4040
10815TIP3   OH253935   4.426   1.400   1.147  0.6699 -0.1127 -0.1799
10815TIP3    H153936   4.332   1.417   1.137  0.7327  0.2421 -0.1610
10815TIP3    H253937   4.443   1.410   1.241  0.6359 -0.6556 -0.1098
10816TIP3   OH253938   5.653   1.793   1.838 -0.1503  0.1974  0.2412
10816TIP3    H153939   5.663   1.867   1.778 -0.1380 -0.5158 -0.6584
10816TIP3    H253940   5.580   1.817   1.894 -1.1647  0.2432 -1.0579
10817TIP3   OH253941   6.388   0.238  15.725  0.3733 -0.5447 -0.0911
10817TIP3    H153942   6.380   0.264  15.633  1.5412  0.1155 -0.0134
10817TIP3    H253943   6.456   0.171  15.725  2.6997  1.7768  0.7233
10818TIP3   OH253944   1.358   2.884  14.711 -0.1264 -0.2000 -0.3791
10818TIP3    H153945   1.449   2.901  14.691  0.3343 -1.0886  0.8636
10818TIP3    H253946   1.359   2.850  14.801 -1.9172  2.2113  0.6154
10819TIP3   OH253947   1.658   5.195  12.573  0.7681 -0.5180  0.1256
10819TIP3    H153948   1.744   5.223  12.540  0.4058 -0.6421 -0.9319
10819TIP3    H253949   1.597   5.218  12.503 -0.0058 -0.7981  0.7088
10820TIP3   OH253950   2.732   3.689  14.274  0.7584 -0.7207  0.4178
10820TIP3    H153951   2.793   3.711  14.203  1.1246 -3.4037 -0.1403
10820TIP3    H253952   2.787   3.677  14.351  0.4404  1.3245  1.0149
10821TIP3   OH253953   5.058   0.396  12.148  0.5842 -0.0105 -0.2960
10821TIP3    H153954   5.057   0.323  12.209 -1.5905 -0.5789 -1.0032
10821TIP3    H253955   5.094   0.360  12.067 -1.9582 -0.7447 -1.1454
10822TIP3   OH253956   2.072   4.563   2.386  0.7474 -0.2744  0.0369
10822TIP3    H153957   2.134   4.535   2.455  1.5179 -1.6875 -1.1892
10822TIP3    H253958   2.124   4.619   2.329  0.8658 -1.2724 -0.8626
10823TIP3   OH253959   2.634   0.269  14.822 -0.7445 -0.2503  0.2058
10823TIP3    H153960   2.578   0.256  14.745  0.0550  2.6010 -0.9187
10823TIP3    H253961   2.722   0.244  14.792  0.0185  3.2428 -0.6398
10824TIP3   OH253962   0.127   1.375   5.491  0.2681  0.9252  0.2080
10824TIP3    H153963   0.087   1.384   5.577 -1.2106 -0.3279 -0.3252
10824TIP3    H253964   0.081   1.439   5.437  0.7155  1.2198  0.1669
10825TIP3   OH253965   5.602   0.898   5.755  0.2002 -0.7455 -0.0672
10825TIP3    H153966   5.653   0.859   5.684  0.3870  1.4902 -1.2082
10825TIP3    H253967   5.568   0.980   5.718 -2.0809 -0.9319  1.5149
10826TIP3   OH253968   1.508   0.882   4.369 -0.2780  0.3767  0.4427
10826TIP3    H153969   1.451   0.953   4.338  1.5027  1.0268 -1.4256
10826TIP3    H253970   1.490   0.877   4.463 -1.2724  2.5419  0.4066
10827TIP3   OH253971   2.892   2.885  14.558 -0.1451  0.5234  0.2192
10827TIP3    H153972   2.895   2.949  14.629  0.9702  1.8137 -0.9494
10827TIP3    H253973   2.984   2.864  14.541 -0.5320 -2.2237  1.2877
10828TIP3   OH253974   2.397   5.829  16.791  0.7577 -0.0144 -0.2103
10828TIP3    H153975   2.375   5.892  16.722 -0.5250  0.2012  0.3705
10828TIP3    H253976   2.460   5.875  16.847  2.8009 -0.6580 -1.9475
10829TIP3   OH253977   1.739   4.163   5.010  0.2274  0.2839  0.3580
10829TIP3    H153978   1.744   4.211   5.092 -0.2780 -2.2756  1.9287
10829TIP3    H253979   1.661   4.109   5.018  0.9395 -1.0407 -1.2169
10830TIP3   OH253980   0.309   0.209   2.734 -0.4979  0.8217  0.3166
10830TIP3    H153981   0.215   0.196   2.750 -0.3850 -1.2920 -0.5549
10830TIP3    H253982   0.313   0.279   2.670 -1.5495  0.2924 -0.3492
10831TIP3   OH253983   4.348   4.923   5.629 -0.2820  0.2228  0.2434
10831TIP3    H153984   4.341   4.902   5.536  1.7098  2.3233 -0.4274
10831TIP3    H253985   4.306   5.008   5.638 -1.4019 -0.4384  1.4851
10832TIP3   OH253986   3.704   1.069   1.993 -0.0053  0.3824 -0.3379
10832TIP3    H153987   3.755   1.099   1.918  0.0585  0.3655 -0.3010
10832TIP3    H253988   3.753   1.099   2.069 -0.0639  0.3884 -0.3029
10833TIP3   OH253989   2.578   4.164   2.054  0.2898  0.4207  0.0854
10833TIP3    H153990   2.504   4.103   2.058  1.5967 -1.2388 -0.5510
10833TIP3    H253991   2.581   4.194   1.963  0.8115 -0.0340 -0.0488
10834TIP3   OH253992   1.619   6.403  11.269  0.8777 -0.2975 -0.0593
10834TIP3    H153993   1.693   6.464  11.276 -0.0771  1.1368 -1.8862
10834TIP3    H253994   1.575   6.410  11.354  2.8183 -1.1803  1.0604
10835TIP3   OH253995   1.763   5.052   0.203 -0.0733  0.2419  0.2853
10835TIP3    H153996   1.722   5.030   0.287 -0.1251 -2.7067 -0.4310
10835TIP3    H253997   1.731   4.984   0.143 -0.9919  2.9681 -2.4470
10836TIP3   OH253998   1.212   2.670   1.862  0.5952 -0.0864  0.4042
10836TIP3    H153999   1.196   2.615   1.785  1.4055 -1.3280  1.1135
10836TIP3    H254000   1.221   2.759   1.826 -0.4529 -0.4332 -0.7816
10837TIP3   OH254001   2.978   6.220  16.271  0.4195 -0.0761 -0.0151
10837TIP3    H154002   3.064   6.199  16.306 -0.6130 -2.2733  1.3487
10837TIP3    H254003   2.981   6.191  16.180  1.9985  2.4543 -0.8025
10838TIP3   OH254004   6.124   2.083  16.241 -0.1020  0.7566 -0.4606
10838TIP3    H154005   6.156   2.042  16.161  2.5215  1.0439  0.3885
10838TIP3    H254006   6.039   2.042  16.256 -0.2607  0.0900 -2.9217
10839TIP3   OH254007   1.431   2.382   0.777 -0.0593  0.2419  0.0757
10839TIP3    H154008   1.428   2.384   0.872  1.4274  1.6983  0.1253
10839TIP3    H254009   1.367   2.316   0.752 -0.6002 -0.0232  2.0715
10840TIP3   OH254010   3.083   5.216   3.453  0.5541  0.0002 -0.1262
10840TIP3    H154011   3.071   5.172   3.538 -0.5433  0.2684 -0.1351
10840TIP3    H254012   3.040   5.300   3.463 -0.0745 -0.1901 -1.1300
10841TIP3   OH254013   4.058   0.202  14.624 -0.4293  0.1474 -0.3063
10841TIP3    H154014   3.990   0.270  14.623 -1.8049 -1.1667  1.8548
10841TIP3    H254015   4.041   0.152  14.704  3.3975  0.0907  0.5442
10842TIP3   OH254016   3.827   4.431  13.064 -0.0254  0.2870  0.4937
10842TIP3    H154017   3.766   4.441  13.138  0.5547 -1.2252  1.1910
10842TIP3    H254018   3.784   4.370  13.005 -0.1482  0.9157 -0.0836
10843TIP3   OH254019   2.594   1.673   0.083  0.3160 -0.3494 -0.3814
10843TIP3    H154020   2.656   1.715   0.143 -0.9182  0.4618  0.3320
10843TIP3    H254021   2.584   1.736   0.012 -0.4646 -0.0328  0.0037
10844TIP3   OH254022   6.234   4.297   3.118  0.5501  0.2669  0.4712
10844TIP3    H154023   6.258   4.234   3.186  0.0543  1.5651  1.8817
10844TIP3    H254024   6.258   4.254   3.036  0.4247 -1.6541  1.4122
10845TIP3   OH254025   4.453   0.849  13.376 -0.4584  0.1374  0.2755
10845TIP3    H154026   4.464   0.756  13.355  0.3826  0.4165 -0.5146
10845TIP3    H254027   4.517   0.866  13.445 -0.4743  0.1765  0.2814
10846TIP3   OH254028   1.281   1.275   6.415 -0.9826  0.2773  0.7136
10846TIP3    H154029   1.359   1.291   6.361 -1.2705  0.2445  0.2846
10846TIP3    H254030   1.287   1.182   6.438 -1.7651 -0.1421 -0.7192
10847TIP3   OH254031   3.919   6.255   6.132  0.3148 -0.3641 -0.2983
10847TIP3    H154032   3.973   6.322   6.174 -0.2268  0.2393 -0.5578
10847TIP3    H254033   3.847   6.304   6.092  0.5794 -0.9816 -1.5325
10848TIP3   OH254034   3.145   3.774   3.431 -0.4575  0.5501  0.3631
10848TIP3    H154035   3.110   3.745   3.515 -0.4468 -0.2519  0.0881
10848TIP3    H254036   3.067   3.785   3.376 -0.2239 -2.3808 -0.6159
10849TIP3   OH254037   3.874   3.965  14.602  0.1567  0.2456  0.0712
10849TIP3    H154038   3.956   3.948  14.649  0.6968  0.8206 -0.6560
10849TIP3    H254039   3.816   3.894  14.630  1.5562 -1.3565 -0.9271
10850TIP3   OH254040   2.462   3.268   3.098 -0.1741 -0.4288  1.0666
10850TIP3    H154041   2.529   3.226   3.045 -0.3329  1.5278 -0.7736
10850TIP3    H254042   2.389   3.282   3.037 -0.3855  1.7985  1.7953
10851TIP3   OH254043   0.405   1.587  12.575  0.3322  0.0841  0.3321
10851TIP3    H154044   0.351   1.630  12.642  0.4910  2.1627 -0.8403
10851TIP3    H254045   0.410   1.651  12.504  1.3625 -1.5321 -1.0754
10852TIP3   OH254046   0.206   3.804  14.158  0.1508 -0.5965 -0.5332
10852TIP3    H154047   0.287   3.754  14.170  0.6737  0.3873  0.1467
10852TIP3    H254048   0.232   3.879  14.103 -0.2471 -0.1608 -0.1370
10853TIP3   OH254049   2.705   4.614  15.779 -0.0714 -0.2325 -0.1263
10853TIP3    H154050   2.616   4.587  15.757 -1.5816  3.0109  1.6046
10853TIP3    H254051   2.710   4.603  15.875  1.0884  0.4775 -0.0950
10854TIP3   OH254052   0.701   0.187  11.714 -0.0276  0.1336  0.1276
10854TIP3    H154053   0.712   0.223  11.626 -0.2496  0.1171  0.0920
10854TIP3    H254054   0.762   0.113  11.718  0.5742  0.6395  0.2728
10855TIP3   OH254055   5.811   5.356   2.574 -0.0254  0.0358 -0.6465
10855TIP3    H154056   5.726   5.392   2.598  0.1163 -0.2277  0.2747
10855TIP3    H254057   5.819   5.278   2.629  1.1763  0.5292 -0.1100
10856TIP3   OH254058   0.396   6.743  15.997 -0.0158 -0.1556 -0.5061
10856TIP3    H154059   0.313   6.791  16.004 -0.3346 -0.8922  1.1080
10856TIP3    H254060   0.371   6.657  15.963 -0.1906 -1.0122  1.7051
10857TIP3   OH254061   5.496   1.370  13.122  0.3399 -0.2007 -0.3442
10857TIP3    H154062   5.429   1.357  13.055 -1.1111  1.1578  0.8077
10857TIP3    H254063   5.508   1.284  13.162 -1.3477 -0.2994 -0.0134
10858TIP3   OH254064   4.806   1.184  13.875  0.0924  0.8572  0.0948
10858TIP3    H154065   4.725   1.209  13.920 -0.0870 -1.6100  1.2172
10858TIP3    H254066   4.876   1.223  13.927 -0.2744  0.8445  0.6030
10859TIP3   OH254067   4.325   1.888   2.678  0.1245  0.1848  0.3075
10859TIP3    H154068   4.317   1.797   2.651  1.0975  0.9595 -2.7093
10859TIP3    H254069   4.239   1.927   2.660 -0.2977 -0.0908  1.6141
10860TIP3   OH254070   0.477   0.207  11.112  0.2831 -0.4198  0.2177
10860TIP3    H154071   0.531   0.264  11.057 -0.4336  0.2595  0.2050
10860TIP3    H254072   0.408   0.175  11.053  0.6342 -1.2492  0.2459
10861TIP3   OH254073   2.045   1.716  15.715 -0.4972  0.5007 -0.2965
10861TIP3    H154074   2.131   1.746  15.684  0.0078 -0.0185  0.5551
10861TIP3    H254075   2.027   1.770  15.792 -1.1557  0.9310 -0.7550
10862TIP3   OH254076   5.191   2.043  15.233 -0.1109  0.2369 -0.0747
10862TIP3    H154077   5.275   2.069  15.197 -0.3068  1.7278  0.4914
10862TIP3    H254078   5.212   1.972  15.295  0.5902 -0.1180 -0.7142
10863TIP3   OH254079   1.524   0.713  11.944  0.5639 -0.1234  0.3258
10863TIP3    H154080   1.476   0.636  11.974 -0.9606  1.0387  0.9234
10863TIP3    H254081   1.541   0.696  11.851  0.1723 -1.1406  0.4331
10864TIP3   OH254082   5.412   0.082  16.198  0.0516 -0.4281 -0.1498
10864TIP3    H154083   5.416   0.034  16.115  0.9105  0.4927 -0.6415
10864TIP3    H254084   5.449   0.168  16.179  0.3174 -0.2254  1.2087
10865TIP3   OH254085   3.968   2.479   0.183 -0.4051 -0.5512  0.0724
10865TIP3    H154086   3.998   2.564   0.216  1.2578 -0.9117 -0.4571
10865TIP3    H254087   3.925   2.438   0.258  0.5667 -0.0644  0.9097
10866TIP3   OH254088   2.072   0.460   5.389  0.6673  0.2602  0.1183
10866TIP3    H154089   1.988   0.504   5.374  1.1114  0.6660 -1.2761
10866TIP3    H254090   2.082   0.459   5.484  0.0828  2.0834  0.2158
10867TIP3   OH254091   3.002   0.826   2.196  0.2991  0.4660  0.7198
10867TIP3    H154092   2.921   0.777   2.184 -0.0567  1.1971  0.1123
10867TIP3    H254093   3.068   0.777   2.147 -0.0785  0.6680  0.0176
10868TIP3   OH254094   3.121   0.342   3.731 -0.1534 -0.5232  0.1414
10868TIP3    H154095   3.166   0.325   3.648  0.6233 -2.1546  0.8769
10868TIP3    H254096   3.192   0.343   3.796 -1.0764 -2.2664  1.1939
10869TIP3   OH254097   5.131   0.919   2.254  0.2362  0.7165  0.0624
10869TIP3    H154098   5.045   0.932   2.216 -0.0513 -1.6448 -0.2051
10869TIP3    H254099   5.186   0.987   2.216 -0.8036  0.3662 -2.1036
10870TIP3   OH254100   0.072   1.215   3.755 -0.5368  0.1067  0.0694
10870TIP3    H154101   0.108   1.131   3.726 -1.3167  0.0979 -0.8988
10870TIP3    H254102   0.008   1.193   3.822 -0.1922 -0.0176  0.3581
10871TIP3   OH254103   1.884   5.604  11.637  0.2373  0.5393  0.0289
10871TIP3    H154104   1.850   5.693  11.622  0.0313  0.6418  1.1123
10871TIP3    H254105   1.900   5.571  11.549  0.6868  1.7956 -0.3779
10872TIP3   OH254106   2.620   6.791   4.630  0.7310  0.8022  0.0290
10872TIP3    H154107   2.602   6.700   4.655  1.7283  0.8306  0.8486
10872TIP3    H254108   2.551   6.812   4.566 -0.0884 -0.2052  0.5685
10873TIP3   OH254109   5.238   1.698  14.146 -0.0319  1.0555 -0.0202
10873TIP3    H154110   5.275   1.678  14.061 -0.9417  0.0483 -0.1927
10873TIP3    H254111   5.194   1.782  14.134 -1.1763  0.3448 -0.8697
10874TIP3   OH254112   3.916   5.045   2.964 -0.3620  0.5031  0.3979
10874TIP3    H154113   3.964   4.979   3.015 -0.3124  0.2830  0.0716
10874TIP3    H254114   3.829   5.046   3.002 -1.0171 -1.3259 -0.9953
10875TIP3   OH254115   4.112   1.375  17.186  0.1095 -0.4432 -0.4783
10875TIP3    H154116   4.027   1.404  17.152  0.0346  1.1493  0.9919
10875TIP3    H254117   4.175   1.434  17.145  0.1803  0.3827  0.7705
10876TIP3   OH254118   6.380   3.491   5.277 -0.0254  0.4703 -0.2656
10876TIP3    H154119   6.423   3.505   5.361 -1.3074  0.0313  0.4822
10876TIP3    H254120   6.357   3.398   5.276 -0.7353  0.6413 -0.7516
10877TIP3   OH254121   1.284   3.942  15.410  0.0794  0.5419  0.1375
10877TIP3    H154122   1.206   3.903  15.451  0.4919 -0.2248  0.2036
10877TIP3    H254123   1.356   3.919  15.469  0.6312 -0.3315 -0.8562
10878TIP3   OH254124   1.703   3.451   4.843 -0.4737 -0.0115 -0.3375
10878TIP3    H154125   1.614   3.421   4.828 -1.0014  0.5860  1.4253
10878TIP3    H254126   1.743   3.380   4.893 -1.3710  1.6196  2.8292
10879TIP3   OH254127   4.756   3.224   0.944 -0.0440  1.0324 -0.5157
10879TIP3    H154128   4.780   3.230   0.851  1.7138  0.9701 -0.0847
10879TIP3    H254129   4.672   3.270   0.950 -0.5470  0.3694 -2.2650
10880TIP3   OH254130   1.632   5.393  10.337  0.2110  0.6606 -0.1225
10880TIP3    H154131   1.613   5.306  10.301 -0.9766  0.8365  0.0716
10880TIP3    H254132   1.547   5.435  10.345  0.7675  1.8206 -0.1299
10881TIP3   OH254133   0.133   3.090   1.925 -0.1737  0.1947  0.0369
10881TIP3    H154134   0.116   3.033   1.850 -0.7374  0.6821 -0.2101
10881TIP3    H254135   0.087   3.048   1.997 -1.8320  1.1003 -0.4633
10882TIP3   OH254136   3.681   6.154   2.305  0.3674 -0.1884 -0.0001
10882TIP3    H154137   3.616   6.131   2.239 -2.1264  1.2013  1.8866
10882TIP3    H254138   3.719   6.070   2.331  0.1882 -0.9095 -1.9648
10883TIP3   OH254139   2.347   4.303  15.338  0.3306  0.1564  0.1251
10883TIP3    H154140   2.290   4.373  15.306  0.1694 -0.0149  0.0313
10883TIP3    H254141   2.406   4.285  15.265 -1.0628 -1.3168 -0.6667
10884TIP3   OH254142   3.093   1.928  13.282  0.6332  0.2850  0.3144
10884TIP3    H154143   3.035   1.880  13.341  0.3004 -1.3348 -1.3251
10884TIP3    H254144   3.071   2.020  13.297 -2.1091 -0.2817 -0.0173
10885TIP3   OH254145   0.496   3.296   1.238 -0.3502  0.0419 -0.3603
10885TIP3    H154146   0.464   3.223   1.291  1.1693  0.8407  1.7391
10885TIP3    H254147   0.587   3.273   1.218 -0.5401  0.3312 -1.5886
10886TIP3   OH254148   3.381   0.803  15.029 -0.0174 -0.1328  0.3641
10886TIP3    H154149   3.341   0.716  15.026  2.1636 -1.2237  1.7499
10886TIP3    H254150   3.438   0.806  14.952  2.9491 -1.5268  2.3997
10887TIP3   OH254151   6.647   6.357   6.704 -0.0223  0.5738  0.3186
10887TIP3    H154152   6.696   6.275   6.714 -1.5819 -0.6485 -1.7325
10887TIP3    H254153   6.692   6.418   6.762  2.2522 -1.2535  0.5770
10888TIP3   OH254154   0.773   4.981   3.339  0.1559  0.5919  0.0513
10888TIP3    H154155   0.795   5.074   3.331 -1.4526  1.0127  0.4855
10888TIP3    H254156   0.745   4.970   3.430 -2.1877  0.2500 -0.6838
10889TIP3   OH254157   6.162   1.907   2.214 -0.0049 -0.1137  0.2639
10889TIP3    H154158   6.218   1.957   2.273 -0.6494  1.2186 -0.2476
10889TIP3    H254159   6.073   1.925   2.243 -0.2828 -0.2066 -0.5118
10890TIP3   OH254160   5.578   1.527  12.326  0.0561 -0.4663 -0.3543
10890TIP3    H154161   5.645   1.492  12.385  0.2548  1.3300  0.5228
10890TIP3    H254162   5.496   1.491  12.359  0.2808 -0.2854  0.4076
10891TIP3   OH254163   6.464   5.056  11.340 -0.2453  1.0760 -0.1627
10891TIP3    H154164   6.526   5.036  11.410 -0.7729 -1.7832 -0.4482
10891TIP3    H254165   6.509   5.120  11.285  2.0175 -0.1290  0.2378
10892TIP3   OH254166   6.535   4.832   4.314  0.3563 -0.1379  0.1669
10892TIP3    H154167   6.626   4.808   4.326  0.9951  1.7803 -0.5569
10892TIP3    H254168   6.523   4.911   4.367 -0.0235  1.4041 -2.1395
10893TIP3   OH254169   0.774   3.302   2.399 -0.2306 -0.3058  0.0536
10893TIP3    H154170   0.814   3.346   2.324  0.5837 -2.1566 -0.6213
10893TIP3    H254171   0.707   3.246   2.360  0.8581 -2.0083  0.6130
10894TIP3   OH254172   1.116   1.964  13.242 -0.2309 -0.2916 -0.2927
10894TIP3    H154173   1.163   2.040  13.275 -1.5050 -0.2633  1.4980
10894TIP3    H254174   1.163   1.940  13.162  0.0268  2.4965 -1.0035
10895TIP3   OH254175   3.425   6.354   5.884 -0.1997 -0.1201  1.2303
10895TIP3    H154176   3.345   6.396   5.914 -1.3646 -1.2606 -0.2474
10895TIP3    H254177   3.474   6.335   5.965 -0.5992  2.1434  2.0193
10896TIP3   OH254178   1.470   1.464  12.245 -0.1136 -0.1132 -0.1589
10896TIP3    H154179   1.515   1.541  12.210 -0.2577 -0.5422 -1.3023
10896TIP3    H254180   1.388   1.460  12.196 -1.0651  0.2182  1.3704
10897TIP3   OH254181   5.719   5.052  12.329 -0.1581  0.2381 -0.2246
10897TIP3    H154182   5.789   4.995  12.299 -0.0836 -0.7339  1.6931
10897TIP3    H254183   5.678   5.085  12.249  1.9545  0.1812 -1.3616
10898TIP3   OH254184   1.646   3.231  11.431  0.0061  0.7474  0.4446
10898TIP3    H154185   1.583   3.165  11.402 -0.8584  1.4793  0.6191
10898TIP3    H254186   1.607   3.314  11.402  1.8106  1.0736 -1.1155
10899TIP3   OH254187   1.155   4.384   0.021  0.6869  0.1291  0.2611
10899TIP3    H154188   1.146   4.306   0.076  0.1443 -0.0389 -0.0597
10899TIP3    H254189   1.127   4.355  -0.066 -1.9682  1.3206  0.6600
10900TIP3   OH254190   1.984   5.964  13.097  0.1298  0.0221 -0.3292
10900TIP3    H154191   1.905   5.928  13.056 -0.3144  0.8305 -0.2040
10900TIP3    H254192   2.014   5.895  13.155 -0.6434 -0.1927 -0.1719
10901TIP3   OH254193   2.423   3.402  12.932  0.0841  0.2256 -0.1011
10901TIP3    H154194   2.363   3.375  12.862  1.6887 -0.2816 -1.2927
10901TIP3    H254195   2.395   3.491  12.954 -2.9294 -1.0224  1.3507
10902TIP3   OH254196   1.135   0.970  15.855  1.1665  0.1474 -0.0108
10902TIP3    H154197   1.095   0.884  15.846  0.6105  0.4549 -0.5173
10902TIP3    H254198   1.106   1.018  15.777  1.5410  0.7632  0.2265
10903TIP3   OH254199   5.169   1.208   4.285 -1.0792  0.1794 -0.6285
10903TIP3    H154200   5.263   1.219   4.271 -1.5980  1.4506 -3.5445
10903TIP3    H254201   5.162   1.158   4.367  2.1259 -0.4979 -0.7131
10904TIP3   OH254202   1.846   4.268   3.063 -0.1686  0.0444 -0.2609
10904TIP3    H154203   1.852   4.262   2.967  0.9463  0.4101 -0.2144
10904TIP3    H254204   1.872   4.181   3.094 -0.1266  0.0573 -0.2618
10905TIP3   OH254205   1.557   0.360  16.266 -0.7071 -0.1106 -0.4387
10905TIP3    H154206   1.627   0.304  16.233 -0.0925  1.1255 -1.2788
10905TIP3    H254207   1.597   0.407  16.340 -0.7086  0.4388 -0.7858
10906TIP3   OH254208   1.020   4.845   4.775  0.0647  0.0831  0.4198
10906TIP3    H154209   0.948   4.907   4.792  0.9789  0.8152  1.6973
10906TIP3    H254210   0.984   4.760   4.800 -0.2920  0.4816  1.3088
10907TIP3   OH254211   3.764   2.277   2.755  0.3797 -0.3765  0.7724
10907TIP3    H154212   3.825   2.329   2.808  0.1722  0.5676  0.0991
10907TIP3    H254213   3.679   2.318   2.769  0.4722  0.4374 -0.9847
10908TIP3   OH254214   5.895   3.720  11.545  0.6874 -0.3095 -0.0393
10908TIP3    H154215   5.844   3.764  11.612  1.2082 -0.5579  0.5239
10908TIP3    H254216   5.831   3.663  11.500 -0.0916  1.3829 -1.1157
10909TIP3   OH254217   0.753   1.231  13.757  0.2855  0.6238 -0.2847
10909TIP3    H154218   0.810   1.265  13.826  0.7895  1.5896 -1.1818
10909TIP3    H254219   0.813   1.192  13.693 -0.1548  0.1767 -0.4286
10910TIP3   OH254220   6.515   6.083  12.145  0.1987  0.6374  0.4913
10910TIP3    H154221   6.604   6.051  12.129  0.4731  1.5871  0.1057
10910TIP3    H254222   6.482   6.107  12.058 -0.1009  1.1624  0.7504
10911TIP3   OH254223   6.696   6.151   0.674 -0.7144 -0.0513 -0.1150
10911TIP3    H154224   6.763   6.216   0.654 -0.6504 -0.2838 -0.6655
10911TIP3    H254225   6.699   6.142   0.769 -1.2372  1.3039  0.0518
10912TIP3   OH254226   0.905   6.256  15.112 -0.3934 -0.2922  0.1081
10912TIP3    H154227   0.957   6.305  15.176 -1.4756  0.2616  0.5818
10912TIP3    H254228   0.819   6.249  15.152 -0.7289 -1.0648 -0.7364
10913TIP3   OH254229   0.607   4.481  14.338  0.3742 -0.0017  0.0539
10913TIP3    H154230   0.635   4.410  14.397  0.3910 -0.6661 -0.7499
10913TIP3    H254231   0.613   4.443  14.250  1.4066  1.3399 -0.4657
10914TIP3   OH254232   0.979   6.674  15.151 -0.0077 -0.0202  0.1854
10914TIP3    H154233   0.984   6.770  15.151 -1.5078  0.0755 -0.4701
10914TIP3    H254234   1.055   6.646  15.201 -0.3289  1.5612  1.5948
10915TIP3   OH254235   1.735   2.606  15.488 -0.0266 -0.2035 -0.5905
10915TIP3    H154236   1.747   2.516  15.459  1.1423  0.3708 -1.9734
10915TIP3    H254237   1.667   2.641  15.429 -3.4406 -1.3070  2.5137
10916TIP3   OH254238   4.614   1.224   1.346 -0.2363 -0.3567  0.1616
10916TIP3    H154239   4.697   1.253   1.383  0.4672  0.6999 -2.1288
10916TIP3    H254240   4.547   1.263   1.402  0.7835  0.6683  0.6744
10917TIP3   OH254241   6.657   5.636   2.382 -0.1808  0.4136  0.2371
10917TIP3    H154242   6.686   5.727   2.394  0.9947 -0.3675  3.8064
10917TIP3    H254243   6.570   5.634   2.422 -0.4229  0.1079 -0.3130
10918TIP3   OH254244   2.777   4.387   0.463 -0.4281 -0.4022 -0.5192
10918TIP3    H154245   2.715   4.439   0.412 -1.8664 -1.1427  0.4577
10918TIP3    H254246   2.732   4.369   0.546  1.6719  0.3724  0.8494
10919TIP3   OH254247   0.996   6.391   4.703 -0.0184  0.5468 -0.9121
10919TIP3    H154248   0.997   6.460   4.636 -0.4273  0.1037 -1.3827
10919TIP3    H254249   1.026   6.313   4.657  1.4152  0.6259 -0.1317
10920TIP3   OH254250   1.974   6.223  15.903 -0.1247  0.5368  0.4205
10920TIP3    H154251   2.007   6.134  15.910 -2.4804 -0.2782  1.7610
10920TIP3    H254252   1.923   6.223  15.821  1.0108  1.0616 -0.2990
10921TIP3   OH254253   5.031   5.223  11.155  0.4346  0.2167 -0.5159
10921TIP3    H154254   5.076   5.175  11.085  0.0280  1.1664 -1.4354
10921TIP3    H254255   4.941   5.235  11.123  0.0626  0.0638  0.4573
10922TIP3   OH254256   3.651   4.066  13.646 -0.1590  0.4372 -0.0727
10922TIP3    H154257   3.624   3.982  13.683  0.9129 -0.3256 -1.0106
10922TIP3    H254258   3.593   4.130  13.687  0.0514 -0.5679  1.8205
10923TIP3   OH254259   0.012   2.813  13.489 -0.0451 -0.2110 -0.6352
10923TIP3    H154260  -0.021   2.778  13.572 -0.2651 -1.0549 -1.0822
10923TIP3    H254261  -0.065   2.852  13.447 -0.2641 -1.2590 -1.2035
10924TIP3   OH254262   6.301   6.196   5.974 -0.2823  0.3915 -0.5316
10924TIP3    H154263   6.260   6.193   6.061 -0.0194  0.6755 -0.3939
10924TIP3    H254264   6.339   6.284   5.970  0.3652  0.1050 -0.6313
10925TIP3   OH254265   1.757   2.960  16.248  0.0878 -0.0633 -0.0308
10925TIP3    H154266   1.713   3.035  16.288  0.1237 -0.7570  1.3553
10925TIP3    H254267   1.754   2.892  16.316 -0.5842 -1.5511 -1.5036
10926TIP3   OH254268   4.892   2.009   2.443 -0.4444 -0.2934  0.8567
10926TIP3    H154269   4.906   2.051   2.358  0.6268 -1.4444  0.4523
10926TIP3    H254270   4.935   2.068   2.506 -1.8624  0.9296  0.7126
10927TIP3   OH254271   6.109   6.269   2.520 -0.1482 -0.2878  0.2594
10927TIP3    H154272   6.090   6.362   2.511 -2.3962 -0.5822  1.5803
10927TIP3    H254273   6.126   6.256   2.613  0.6598 -1.1136  0.0067
10928TIP3   OH254274   0.048   4.845  13.637  0.0971  0.4554  0.2712
10928TIP3    H154275  -0.014   4.800  13.694 -1.1522  1.3977 -0.3345
10928TIP3    H254276   0.134   4.824  13.674 -0.5025 -1.7492  0.4791
10929TIP3   OH254277   5.175   1.700   4.287  0.9638 -0.4950 -0.1887
10929TIP3    H154278   5.234   1.694   4.362 -0.0723 -1.4102  0.5864
10929TIP3    H254279   5.120   1.776   4.306 -0.0297 -1.3828  0.5388
10930TIP3   OH254280   2.935   3.857  16.857 -0.4119 -0.1549 -0.9624
10930TIP3    H154281   2.883   3.782  16.827 -2.2777  0.6205  0.2227
10930TIP3    H254282   2.989   3.823  16.927  0.3609 -0.8747 -1.8928
10931TIP3   OH254283   3.319   6.700   4.233  0.2129 -0.2357  0.1926
10931TIP3    H154284   3.262   6.636   4.275  0.1361 -1.3335 -1.5608
10931TIP3    H254285   3.408   6.674   4.258  0.2044 -1.2630 -0.8399
10932TIP3   OH254286   3.366   4.480   1.689  0.0178  0.0988  0.3035
10932TIP3    H154287   3.302   4.479   1.618  0.5403  0.2537 -0.1666
10932TIP3    H254288   3.432   4.416   1.664 -0.0449 -0.1985  0.8799
10933TIP3   OH254289   0.679   2.483   4.324  0.2673 -0.1291 -0.4108
10933TIP3    H154290   0.587   2.456   4.325  0.5752 -1.2140  1.6939
10933TIP3    H254291   0.717   2.435   4.251 -0.4108 -1.2070 -0.0745
10934TIP3   OH254292   5.922   0.766   3.556 -0.3929 -0.0487  0.4532
10934TIP3    H154293   5.999   0.733   3.602 -1.2670 -0.4587  1.6563
10934TIP3    H254294   5.956   0.827   3.491  1.3548 -3.5154 -2.0709
10935TIP3   OH254295   2.591   3.896  14.175 -0.2980 -0.1652  0.2515
10935TIP3    H154296   2.648   3.966  14.143 -1.5985  0.6157 -0.4066
10935TIP3    H254297   2.646   3.845  14.233  0.8224  1.1183  0.3458
10936TIP3   OH254298   2.089   1.418  14.058 -0.3220 -0.1968 -0.5747
10936TIP3    H154299   2.065   1.424  13.965  0.8999  1.5204 -0.8214
10936TIP3    H254300   2.108   1.326  14.072 -3.4418 -0.9863 -1.2659
10937TIP3   OH254301   1.866   5.875  12.199  0.2041  0.0556  0.1290
10937TIP3    H154302   1.877   5.914  12.113  1.4487  0.8585  0.6283
10937TIP3    H254303   1.855   5.949  12.258  2.4868 -0.3027  1.0752
10938TIP3   OH254304   3.991   5.682   1.936 -0.2348 -0.0139  0.3869
10938TIP3    H154305   3.938   5.755   1.968  1.4840  1.9540 -1.1120
10938TIP3    H254306   3.945   5.651   1.858 -0.6057 -0.0789  0.6315
10939TIP3   OH254307   0.789   2.835  16.617 -0.1817 -0.1805  0.2388
10939TIP3    H154308   0.735   2.903  16.577 -1.3946 -1.7078 -0.8111
10939TIP3    H254309   0.867   2.831  16.563 -1.0416 -1.0342 -0.9644
10940TIP3   OH254310   6.337   0.660   5.037  0.2748  0.1440 -0.1807
10940TIP3    H154311   6.338   0.607   4.957  0.7326 -0.6277  0.3329
10940TIP3    H254312   6.370   0.602   5.105  1.0973  1.1995  0.3338
10941TIP3   OH254313   2.848   1.992  11.596  0.4167 -0.8434  0.4315
10941TIP3    H154314   2.799   1.950  11.526  1.4634 -0.4206 -0.5537
10941TIP3    H254315   2.925   2.029  11.554  0.5234  0.3496  1.6133
10942TIP3   OH254316   1.975   2.630   1.243  0.4497 -1.2374 -0.1127
10942TIP3    H154317   1.919   2.555   1.262 -2.3285  0.6351 -0.5698
10942TIP3    H254318   1.965   2.687   1.319  1.0172 -0.4590 -0.6175
10943TIP3   OH254319   3.662   5.033  14.989 -0.1547  0.1706  1.1181
10943TIP3    H154320   3.607   5.055  15.065 -0.4207  0.2795  0.8978
10943TIP3    H254321   3.691   4.943  15.005 -0.1501  0.2189  1.3846
10944TIP3   OH254322   1.316   3.509   3.483  0.2696  0.7828  0.3406
10944TIP3    H154323   1.389   3.501   3.422  0.4685  1.8554  0.4307
10944TIP3    H254324   1.250   3.448   3.448  0.0830  1.9263 -1.3911
10945TIP3   OH254325   5.821   3.577   0.368  0.9890  0.2686  0.7106
10945TIP3    H154326   5.876   3.498   0.370  1.0442  0.3055  0.6186
10945TIP3    H254327   5.733   3.543   0.353  1.1088  0.2768 -0.0484
10946TIP3   OH254328   6.744   4.390  13.586  0.5356 -0.2532 -0.1484
10946TIP3    H154329   6.652   4.414  13.592  0.5398 -0.4220  0.6716
10946TIP3    H254330   6.743   4.294  13.583  0.7483 -0.2930  1.0838
10947TIP3   OH254331   3.772   1.037   5.644  0.1931 -0.2789  0.2758
10947TIP3    H154332   3.867   1.049   5.647  0.2681 -0.7832  0.0450
10947TIP3    H254333   3.737   1.109   5.696  0.7824 -0.8669  1.5149
10948TIP3   OH254334   3.789   4.406  10.481 -0.0478  0.3941 -0.3658
10948TIP3    H154335   3.778   4.322  10.524 -0.6981  0.7813  0.2400
10948TIP3    H254336   3.833   4.386  10.398  0.4269 -0.4522  0.0893
10949TIP3   OH254337   3.627   6.019  12.029  0.1812 -0.4569 -0.1005
10949TIP3    H154338   3.709   5.975  12.050  1.2496  1.5925  0.0555
10949TIP3    H254339   3.583   6.030  12.114 -0.1528 -1.3309 -0.1553
10950TIP3   OH254340   5.860   1.390  16.786  0.1198 -0.6161  0.5884
10950TIP3    H154341   5.800   1.420  16.855  0.0448 -0.3277  0.3995
10950TIP3    H254342   5.947   1.405  16.822  0.0759 -1.2413  0.9566
10951TIP3   OH254343   3.996   3.968  13.750 -0.5869 -0.1163 -0.2080
10951TIP3    H154344   4.020   4.053  13.787  1.2337 -0.7722  0.1900
10951TIP3    H254345   4.055   3.906  13.793  0.3005 -1.1568 -2.8494
10952TIP3   OH254346   6.313   4.307  12.609  0.2385  0.1578 -0.6207
10952TIP3    H154347   6.378   4.327  12.677  0.2441  2.2714 -1.2098
10952TIP3    H254348   6.363   4.306  12.528 -0.0244 -0.8820 -0.7733
10953TIP3   OH254349   3.879   5.184   5.587 -0.6375 -0.1345 -0.0642
10953TIP3    H154350   3.907   5.104   5.632  2.5605  1.0052  0.0587
10953TIP3    H254351   3.943   5.196   5.517 -0.7256  2.6275  0.2697
10954TIP3   OH254352   2.892   4.103  11.934 -0.2261 -0.2364 -1.0175
10954TIP3    H154353   2.821   4.085  11.996 -0.0852  0.5764 -0.6159
10954TIP3    H254354   2.933   4.183  11.966  1.8228 -1.4984 -0.4184
10955TIP3   OH254355   3.049   1.245  14.470 -0.2659 -0.1796  0.0533
10955TIP3    H154356   3.105   1.306  14.520  0.2768 -0.6506  0.0267
10955TIP3    H254357   3.071   1.159  14.506  1.1894 -0.6849 -1.9727
10956TIP3   OH254358   6.157   1.530  11.594 -0.5302  0.2551 -0.2193
10956TIP3    H154359   6.246   1.561  11.614 -0.8354  0.2394  1.2642
10956TIP3    H254360   6.161   1.436  11.607 -0.5143  0.1215 -1.1660
10957TIP3   OH254361   5.848   4.690   2.757  0.0640 -0.1508 -0.0612
10957TIP3    H154362   5.874   4.771   2.800 -1.6439  0.7337 -0.6507
10957TIP3    H254363   5.775   4.657   2.810  0.0366 -0.7119 -0.4446
10958TIP3   OH254364   2.441   2.912   2.359 -0.1892  0.1735 -0.3527
10958TIP3    H154365   2.514   2.923   2.297  0.4977  1.2269  0.6232
10958TIP3    H254366   2.381   2.983   2.338 -1.2085 -0.9934 -1.4906
10959TIP3   OH254367   6.364   3.044   3.234  0.5087  0.4821  0.0896
10959TIP3    H154368   6.429   3.050   3.163  0.7650  1.5493  0.4042
10959TIP3    H254369   6.280   3.036   3.189  0.7983 -0.3475 -0.3245
10960TIP3   OH254370   6.262   2.437   0.918 -0.0265 -0.2423  0.2197
10960TIP3    H154371   6.283   2.524   0.950  0.5464 -0.1348 -0.4256
10960TIP3    H254372   6.238   2.387   0.996 -1.2125  0.7261  0.4896
10961TIP3   OH254373   2.153   6.640  16.589 -0.4072 -0.1174  0.9565
10961TIP3    H154374   2.220   6.665  16.525 -1.0238 -0.6261  0.1134
10961TIP3    H254375   2.166   6.701  16.662  1.2663 -0.4987  1.0008
10962TIP3   OH254376   0.481   5.517  15.903  0.3947  0.1688 -0.3028
10962TIP3    H154377   0.447   5.430  15.882 -1.3491  0.3257  1.7636
10962TIP3    H254378   0.572   5.500  15.930  0.5317 -0.8116 -1.3045
10963TIP3   OH254379   3.092   2.428  11.362  0.2375 -0.0535 -0.0226
10963TIP3    H154380   3.111   2.500  11.301 -0.0565 -0.9352 -1.1767
10963TIP3    H254381   3.034   2.370  11.313  0.4874 -1.0972  0.8913
10964TIP3   OH254382   5.258   5.579   5.109 -0.1463  0.2804 -0.1637
10964TIP3    H154383   5.330   5.518   5.124 -1.7094 -1.2361  1.3999
10964TIP3    H254384   5.301   5.659   5.077  1.9462 -1.5655 -2.2320
10965TIP3   OH254385   4.735   4.385  12.755  0.4948 -0.4545 -0.0643
10965TIP3    H154386   4.649   4.349  12.774  0.5040 -0.7376 -0.5629
10965TIP3    H254387   4.745   4.458  12.817 -0.0028 -0.5672  0.1481
10966TIP3   OH254388   4.563   5.647  15.855 -0.7305 -0.0209 -0.1471
10966TIP3    H154389   4.485   5.597  15.832 -0.4992 -0.3296 -0.2680
10966TIP3    H254390   4.583   5.621  15.945  1.0764 -2.3584 -1.1886
10967TIP3   OH254391   5.546   2.278   2.791  0.0025  1.1029 -0.1414
10967TIP3    H154392   5.603   2.296   2.865 -1.6545  1.6753  1.0190
10967TIP3    H254393   5.600   2.297   2.714  1.7790  0.3599  0.8907
10968TIP3   OH254394   5.851   5.234   3.785  0.2255 -0.3767  0.4646
10968TIP3    H154395   5.902   5.268   3.858 -0.7041 -0.7047  1.2877
10968TIP3    H254396   5.851   5.139   3.798 -0.9376 -0.3566  0.7356
10969TIP3   OH254397   0.245   0.545   2.983  0.2937  0.3315 -0.1545
10969TIP3    H154398   0.296   0.626   2.990  0.0622  0.4150  0.5339
10969TIP3    H254399   0.248   0.524   2.889  1.9472  0.1069 -0.0648
10970TIP3   OH254400   5.578   5.732  12.191  0.0612  0.5448  0.5909
10970TIP3    H154401   5.648   5.687  12.239 -2.0859 -1.2980  2.0713
10970TIP3    H254402   5.542   5.666  12.132 -0.5762  1.4284 -0.0212
10971TIP3   OH254403   5.333   0.786   1.991 -0.0446  0.0695  0.4521
10971TIP3    H154404   5.411   0.754   1.946 -0.1736  0.1677  0.1612
10971TIP3    H254405   5.290   0.707   2.024 -0.1218 -0.0275  0.1236
10972TIP3   OH254406   3.804   5.814  10.304  0.2615  0.0843  0.5126
10972TIP3    H154407   3.754   5.746  10.350  0.4228 -0.3856 -0.0026
10972TIP3    H254408   3.739   5.878  10.278  0.0949  0.0828  0.9197
10973TIP3   OH254409   6.464   5.570   4.749  0.2304  0.5623  0.3809
10973TIP3    H154410   6.428   5.650   4.788 -1.4229 -0.2024  0.4752
10973TIP3    H254411   6.443   5.579   4.655 -0.4497  0.0037  0.4732
10974TIP3   OH254412   5.594   6.554   1.268  0.2725 -0.1895 -0.3113
10974TIP3    H154413   5.596   6.459   1.281 -1.3045 -0.5102 -2.1953
10974TIP3    H254414   5.514   6.582   1.313  1.6404  0.5300  1.7562
10975TIP3   OH254415   5.973   4.883   5.361 -0.0598 -0.9052 -0.2166
10975TIP3    H154416   5.934   4.880   5.448  3.1155  0.2798  1.3503
10975TIP3    H254417   5.918   4.944   5.311  0.1067  1.2026  2.0764
10976TIP3   OH254418   5.285   6.532  11.071 -0.0810  0.3140  0.1959
10976TIP3    H154419   5.220   6.481  11.120  0.0726  0.7176  0.8274
10976TIP3    H254420   5.335   6.467  11.021 -2.0276  0.1218 -1.5748
10977TIP3   OH254421   4.141   4.879  11.623  0.0925 -0.4875 -0.6444
10977TIP3    H154422   4.143   4.843  11.534  1.3675  1.4053 -1.4120
10977TIP3    H254423   4.049   4.905  11.635  0.1353  0.2564 -1.8200
10978TIP3   OH254424   4.969   4.163  12.148 -0.3873 -0.2392  0.2600
10978TIP3    H154425   5.062   4.168  12.130 -0.0776 -0.2521  1.8203
10978TIP3    H254426   4.945   4.073  12.126 -0.0443 -0.2340 -0.1374
10979TIP3   OH254427   5.038   6.269   5.257  0.6460 -0.7253  0.4439
10979TIP3    H154428   4.960   6.238   5.211 -0.5164  2.3656  0.1971
10979TIP3    H254429   5.007   6.289   5.345  1.1332  0.4560  0.3629
10980TIP3   OH254430   4.067   1.267   3.183  0.3295  0.3029  0.4521
10980TIP3    H154431   3.996   1.308   3.233  0.4504 -0.6899  1.4433
10980TIP3    H254432   4.022   1.225   3.109 -0.0067  0.4921  0.5468
10981TIP3   OH254433   0.558   4.583   6.083 -0.4779  0.0388  0.4080
10981TIP3    H154434   0.602   4.644   6.142 -0.2788 -0.5696  0.9030
10981TIP3    H254435   0.625   4.558   6.020  0.4463 -2.2500  2.2102
10982TIP3   OH254436   4.862   6.372   3.925  0.1421 -0.4569  0.0674
10982TIP3    H154437   4.831   6.307   3.987 -1.2138 -1.2129 -1.3715
10982TIP3    H254438   4.938   6.330   3.883 -0.9982 -1.3026 -1.1710
10983TIP3   OH254439   4.424   4.896  17.067 -0.2256  0.2055  0.4879
10983TIP3    H154440   4.357   4.898  17.135 -2.0096  1.9577 -1.2634
10983TIP3    H254441   4.486   4.965  17.092 -0.7004  0.6276  0.4944
10984TIP3   OH254442   4.927   2.471  13.260  0.1608 -0.2315  0.4433
10984TIP3    H154443   5.014   2.454  13.296  0.5938 -1.4006 -1.1036
10984TIP3    H254444   4.887   2.384  13.251 -0.2570  0.0996 -1.0856
10985TIP3   OH254445   2.404   3.163  12.634  0.5588  0.7341 -0.4457
10985TIP3    H154446   2.483   3.216  12.647  0.8489  0.0878  0.5179
10985TIP3    H254447   2.388   3.166  12.540  2.5558 -0.2924 -0.8449
10986TIP3   OH254448   2.923   4.397   5.961 -0.2316  0.2050  0.0470
10986TIP3    H154449   2.844   4.380   5.908 -1.2435 -1.0819  1.8866
10986TIP3    H254450   2.982   4.326   5.937 -0.1363  0.4204 -0.3682
10987TIP3   OH254451   3.291   5.807   2.150 -0.1167 -0.5885  0.2538
10987TIP3    H154452   3.223   5.802   2.217  0.5854 -2.6588  0.8701
10987TIP3    H254453   3.249   5.772   2.071 -0.3401 -0.0426  0.1297
10988TIP3   OH254454   3.188   4.964  15.411  0.2100  0.0174  0.2619
10988TIP3    H154455   3.195   5.009  15.495  0.4783  2.1257 -0.8666
10988TIP3    H254456   3.234   4.881  15.425 -0.5856 -0.0885  2.4669
10989TIP3   OH254457   4.169   6.461   0.567 -0.5163  0.0780  0.4466
10989TIP3    H154458   4.090   6.448   0.514 -1.2988  0.8626  1.3925
10989TIP3    H254459   4.212   6.376   0.567 -1.2843 -0.3168 -0.2222
10990TIP3   OH254460   1.712   0.338   3.725  0.2490  0.0919  0.3196
10990TIP3    H154461   1.757   0.357   3.807 -3.0973 -0.5961  2.4520
10990TIP3    H254462   1.639   0.400   3.723 -0.3053 -0.5861 -1.6534
10991TIP3   OH254463   6.541   2.658  13.903 -0.3477 -0.0296  0.0870
10991TIP3    H154464   6.513   2.596  13.970 -0.5409  1.8001  1.7657
10991TIP3    H254465   6.470   2.658  13.838 -1.7391  0.5688  1.5621
10992TIP3   OH254466   3.713   2.082   1.731  0.2145 -0.3717  0.2697
10992TIP3    H154467   3.641   2.135   1.765  0.4832  0.6087 -0.6624
10992TIP3    H254468   3.759   2.050   1.809 -0.4154  0.1208  0.8446
10993TIP3   OH254469   6.599   2.880  16.859  0.1358 -0.5622  0.7034
10993TIP3    H154470   6.582   2.849  16.948  0.0682  1.1842  1.3075
10993TIP3    H254471   6.647   2.962  16.870 -0.6428  0.1314 -0.8568
10994TIP3   OH254472   1.802   1.716  12.271 -0.2466 -0.3112 -0.1646
10994TIP3    H154473   1.838   1.800  12.297  0.6749 -1.1100  1.2226
10994TIP3    H254474   1.742   1.736  12.199  0.4563  1.4342 -0.2799
10995TIP3   OH254475   0.076   0.967  11.610 -0.4452 -0.1995  0.2061
10995TIP3    H154476   0.038   1.053  11.625 -0.1305 -0.1786  0.8891
10995TIP3    H254477   0.063   0.951  11.516 -0.4432  0.6112  0.0685
10996TIP3   OH254478   3.729   6.348   1.355 -0.1595 -0.4299 -0.2734
10996TIP3    H154479   3.805   6.389   1.314  0.3226 -0.1733  0.8752
10996TIP3    H254480   3.659   6.413   1.346  0.8973  1.1793  2.5833
10997TIP3   OH254481   4.124   6.082  11.253  0.2673 -0.5062 -0.3732
10997TIP3    H154482   4.083   6.114  11.172 -0.5484 -0.2304  0.1411
10997TIP3    H254483   4.052   6.077  11.316  1.1700  0.9262  0.8358
10998TIP3   OH254484   4.933   1.293   2.612 -0.4582 -0.0631 -0.0707
10998TIP3    H154485   4.850   1.338   2.598  0.5442  1.2468 -1.8854
10998TIP3    H254486   4.949   1.244   2.531 -0.1574 -1.4709  0.8119
10999TIP3   OH254487   2.322   6.152   1.422  0.8889  0.1996  0.3222
10999TIP3    H154488   2.250   6.215   1.420  0.0889 -0.7203 -0.6233
10999TIP3    H254489   2.351   6.145   1.330  1.1132 -0.6257  0.4439
11000TIP3   OH254490   4.111   6.149  12.435  0.2834  0.1800  0.0108
11000TIP3    H154491   4.179   6.117  12.376 -2.4247 -0.7240 -2.7694
11000TIP3    H254492   4.061   6.212  12.383 -4.2505 -3.1113  0.0606
11001TIP3   OH254493   5.414   1.322  12.472 -0.0124  0.6756 -0.6708
11001TIP3    H154494   5.349   1.393  12.474  0.2718  0.9520 -1.1106
11001TIP3    H254495   5.365   1.244  12.494 -0.1242  1.1682  0.8794
11002TIP3   OH254496   3.512   6.096   4.891 -0.3410 -0.3040 -0.1252
11002TIP3    H154497   3.470   6.180   4.908  0.5056 -0.1538  1.2999
11002TIP3    H254498   3.546   6.103   4.802  1.8794  1.7858  0.8503
11003TIP3   OH254499   3.425   4.569   5.873 -0.1931 -0.4349 -0.0378
11003TIP3    H154500   3.349   4.545   5.820 -0.0957  0.5306 -0.6451
11003TIP3    H254501   3.393   4.641   5.929  0.5798  0.8217 -1.1796
11004TIP3   OH254502   6.660   5.388  16.269 -0.5516 -0.0068 -0.1287
11004TIP3    H154503   6.580   5.336  16.271 -1.1193  0.8505 -0.2972
11004TIP3    H254504   6.644   5.455  16.203 -0.0269  0.6853  0.4336
11005TIP3   OH254505   6.478   0.323   4.894  0.5071  0.2677 -0.4413
11005TIP3    H154506   6.415   0.318   4.822 -0.8005 -0.1838  0.6923
11005TIP3    H254507   6.424   0.314   4.973  1.8200  1.4770  0.6198
11006TIP3   OH254508   0.267   1.611   3.272 -0.6826 -0.4942  0.5880
11006TIP3    H154509   0.229   1.636   3.357  1.4533  0.1450  1.3958
11006TIP3    H254510   0.344   1.560   3.295 -0.7290 -1.2919 -1.0093
11007TIP3   OH254511   2.934   3.824  16.335  0.1882  0.0950  0.3638
11007TIP3    H154512   2.925   3.749  16.394 -1.6399  0.5986  0.7680
11007TIP3    H254513   2.920   3.901  16.392 -4.7750  0.5066 -1.1827
11008TIP3   OH254514   1.256   6.714  13.041 -0.0660  0.5349 -0.2579
11008TIP3    H154515   1.218   6.700  12.954  2.8854  0.3206 -1.5521
11008TIP3    H254516   1.276   6.626  13.073 -2.3976  0.5166  1.2752
11009TIP3   OH254517   6.131   6.456   1.982  0.7611 -0.2605  1.0581
11009TIP3    H154518   6.095   6.394   1.919  0.8651  0.3313  0.4120
11009TIP3    H254519   6.136   6.407   2.064 -1.6446 -0.3141  1.1946
11010TIP3   OH254520   1.358   5.735  14.998  0.3182 -0.2071 -0.0213
11010TIP3    H154521   1.306   5.658  15.023  1.1388 -0.5773  0.5452
11010TIP3    H254522   1.422   5.703  14.935  0.4139  0.0872 -0.0768
11011TIP3   OH254523   6.330   3.949  15.855  0.2049 -0.4938  0.6048
11011TIP3    H154524   6.351   3.857  15.866  1.9999 -0.2374 -0.5110
11011TIP3    H254525   6.370   3.973  15.772 -1.7239  0.8762  0.0321
11012TIP3   OH254526   3.912   4.758   2.860 -0.3841 -0.0605  0.3064
11012TIP3    H154527   3.884   4.681   2.810  2.9934 -0.7583 -0.6355
11012TIP3    H254528   3.883   4.832   2.807 -2.2903 -0.6992  0.4345
11013TIP3   OH254529   4.701   6.529  12.878 -0.2318 -0.6299  1.0289
11013TIP3    H154530   4.762   6.515  12.950  1.1891 -0.2916 -0.0825
11013TIP3    H254531   4.705   6.448  12.827 -0.7094 -0.6003  0.9381
11014TIP3   OH254532   2.162   0.668   3.229  0.5019 -0.0783  0.5168
11014TIP3    H154533   2.127   0.579   3.221  1.0760 -0.2818  0.3034
11014TIP3    H254534   2.179   0.696   3.139 -0.5008  0.5777  0.5212
11015TIP3   OH254535   0.823   3.145  11.842 -0.6766 -0.1946 -0.4194
11015TIP3    H154536   0.796   3.109  11.757 -1.3749  0.2186 -0.3715
11015TIP3    H254537   0.745   3.187  11.877 -0.7790 -1.5721  1.0744
11016TIP3   OH254538   1.404   1.515  14.225 -0.0130  0.5103 -0.4910
11016TIP3    H154539   1.394   1.610  14.228 -0.8409  0.4073  0.3816
11016TIP3    H254540   1.475   1.497  14.286 -0.9069  0.4458  0.5487
11017TIP3   OH254541   0.890   2.588   0.584 -0.3277 -0.0278 -0.3277
11017TIP3    H154542   0.870   2.605   0.492 -0.6663  1.7077  0.0497
11017TIP3    H254543   0.804   2.571   0.624 -0.2378 -0.2752 -0.2407
11018TIP3   OH254544   5.632   6.388   0.216 -0.7015  0.1946 -0.1510
11018TIP3    H154545   5.698   6.437   0.267 -0.8120  0.7910 -0.5759
11018TIP3    H254546   5.645   6.297   0.242 -0.8538  0.5111  1.0618
11019TIP3   OH254547   2.397   5.628   0.096  0.4794  0.3005 -0.3497
11019TIP3    H154548   2.486   5.657   0.114  0.2262  0.3735  0.7915
11019TIP3    H254549   2.347   5.654   0.172 -0.3729 -0.4015 -0.6581
11020TIP3   OH254550   4.929   1.636  12.173 -0.3414  0.2951 -0.2987
11020TIP3    H154551   4.971   1.720  12.158 -2.8149  1.6129 -0.0769
11020TIP3    H254552   4.837   1.657  12.191 -1.2322 -2.4901 -1.1733
11021TIP3   OH254553   5.150   6.393   0.416  0.1187 -0.0276  0.3193
11021TIP3    H154554   5.116   6.378   0.327  0.5503  1.7266 -0.1562
11021TIP3    H254555   5.244   6.407   0.404  0.0472  1.0491  0.9483
11022TIP3   OH254556   2.887   1.496   0.591 -0.6156  0.0552 -0.3792
11022TIP3    H154557   2.967   1.541   0.562  0.0283 -0.8213 -0.0022
11022TIP3    H254558   2.816   1.556   0.569  0.2279  1.2281  0.0615
11023TIP3   OH254559   4.783   4.274   3.286  0.0968  0.3657  0.4365
11023TIP3    H154560   4.861   4.297   3.336  0.2947 -1.2881  0.9245
11023TIP3    H254561   4.776   4.343   3.220  3.2762 -0.6155 -1.0487
11024TIP3   OH254562   1.877   2.979  14.424  0.1358 -0.3032  0.2629
11024TIP3    H154563   1.817   2.912  14.456 -0.2087 -0.0336  0.1912
11024TIP3    H254564   1.912   2.943  14.343 -2.2034  0.7738 -1.2852
11025TIP3   OH254565   4.428   1.886  12.731 -0.0464  0.1682 -0.1670
11025TIP3    H154566   4.373   1.918  12.660  0.8787 -2.5415 -2.2105
11025TIP3    H254567   4.517   1.893  12.697  0.5950  0.9734  1.6314
11026TIP3   OH254568   6.225   2.436   4.264  0.1647  0.0480  0.6863
11026TIP3    H154569   6.143   2.478   4.289  0.5190 -0.0907  2.1302
11026TIP3    H254570   6.291   2.477   4.320  1.0667  0.0908 -0.3902
11027TIP3   OH254571   5.641   0.420   6.012  0.2900 -0.9879 -0.3664
11027TIP3    H154572   5.600   0.399   6.096  0.0068  1.1477  0.0738
11027TIP3    H254573   5.605   0.506   5.989  1.8849 -0.6400 -1.6823
11028TIP3   OH254574   0.231   0.820  13.705  0.9741  0.3806  0.5139
11028TIP3    H154575   0.237   0.912  13.733  0.0244  1.0134 -1.3149
11028TIP3    H254576   0.176   0.822  13.627  0.2918 -1.8608  0.9144
11029TIP3   OH254577   4.582   5.600   0.049  0.1200 -0.4790  0.3540
11029TIP3    H154578   4.488   5.599   0.031  0.1091 -0.3998  0.4024
11029TIP3    H254579   4.588   5.613   0.143  0.1770 -0.7027  0.3799
11030TIP3   OH254580   1.934   6.319   3.686  0.3682  0.2653 -0.6559
11030TIP3    H154581   1.913   6.299   3.777 -1.4973 -0.2089 -1.1843
11030TIP3    H254582   1.984   6.243   3.656 -0.4015 -0.3002 -0.5046
11031TIP3   OH254583   1.456   1.600  13.600 -0.0605 -0.8199 -0.0598
11031TIP3    H154584   1.472   1.581  13.693  1.8616 -1.5989 -0.5202
11031TIP3    H254585   1.539   1.636  13.569 -1.1822  0.9145 -1.1197
11032TIP3   OH254586   5.184   2.750   0.456 -0.3385 -0.0114 -0.1148
11032TIP3    H154587   5.276   2.776   0.465 -0.3770  0.5099 -1.1244
11032TIP3    H254588   5.153   2.741   0.546  0.5492  0.3465  0.2380
11033TIP3   OH254589   4.725   3.476   1.435  0.2167 -0.2894  0.3739
11033TIP3    H154590   4.770   3.545   1.386  0.0081  0.5803  1.3873
11033TIP3    H254591   4.762   3.481   1.523 -0.5975 -0.7387  0.7477
11034TIP3   OH254592   2.603   3.189  15.331 -0.4752 -0.5909 -0.0101
11034TIP3    H154593   2.666   3.217  15.397 -1.0065  0.4878  0.0536
11034TIP3    H254594   2.521   3.232  15.356 -0.9095 -0.9139 -0.8422
11035TIP3   OH254595   1.583   2.686   5.882  0.7191  0.6350  0.0297
11035TIP3    H154596   1.612   2.662   5.794  1.1954 -0.7382  0.5476
11035TIP3    H254597   1.532   2.766   5.869  0.4169  0.2122 -1.5573
11036TIP3   OH254598   3.986   6.333   0.411  0.0169 -0.3040 -0.1928
11036TIP3    H154599   4.008   6.336   0.318  1.2168  2.0123  0.1205
11036TIP3    H254600   3.999   6.242   0.436 -0.9111 -1.0790 -2.4136
11037TIP3   OH254601   5.144   4.790   3.314 -0.3090 -0.0164 -0.6119
11037TIP3    H154602   5.064   4.810   3.363  0.1740  1.2277 -0.3136
11037TIP3    H254603   5.198   4.869   3.322  1.4010 -1.2262  0.0735
11038TIP3   OH254604   3.987   2.693   2.336  0.2086  0.9005  0.6473
11038TIP3    H154605   3.937   2.611   2.342  3.6003 -1.4020 -0.8631
11038TIP3    H254606   3.957   2.733   2.255 -0.2098  0.2267  0.4620
11039TIP3   OH254607   4.418   3.611   5.650  0.7076 -0.4469  0.6258
11039TIP3    H154608   4.402   3.553   5.724 -0.1765  0.1499  0.9122
11039TIP3    H254609   4.505   3.646   5.666  1.8767 -2.8272 -0.3305
11040TIP3   OH254610   1.776   2.432   0.969  0.3798  0.0927 -0.2895
11040TIP3    H154611   1.847   2.434   1.032  0.3967 -1.0979 -0.2660
11040TIP3    H254612   1.818   2.415   0.885  0.0725 -1.0925 -0.2027
11041TIP3   OH254613   5.475   1.933   1.984  0.2638  0.3817  0.4261
11041TIP3    H154614   5.410   1.917   2.053  0.2427 -1.8346 -0.0590
11041TIP3    H254615   5.426   1.929   1.902  1.0434 -1.7362  0.0308
11042TIP3   OH254616   5.695   2.056  12.511 -0.1286 -0.1117 -0.1509
11042TIP3    H154617   5.708   2.057  12.416  0.0868  0.2475 -0.1172
11042TIP3    H254618   5.784   2.062  12.548 -0.0853 -1.9124  0.0711
11043TIP3   OH254619   1.522   5.571   2.982  0.3136 -0.0699 -0.2098
11043TIP3    H154620   1.590   5.509   3.009  0.3406  0.1998  0.3390
11043TIP3    H254621   1.514   5.631   3.055 -0.7402 -0.2773 -0.1505
11044TIP3   OH254622   3.813   5.876   2.021 -0.2910  0.3145  0.2947
11044TIP3    H154623   3.867   5.953   2.038  1.9626 -1.5954  1.9185
11044TIP3    H254624   3.736   5.888   2.077 -0.1883  1.5980  0.1789
11045TIP3   OH254625   2.383   5.032   6.882 -0.8665 -0.8075  0.2277
11045TIP3    H154626   2.444   5.097   6.846  0.7108 -1.6445  1.3437
11045TIP3    H254627   2.329   5.082   6.944 -0.7340 -0.2435 -0.1042
11046TIP3   OH254628   5.917   5.754   6.663  0.2448 -0.5277  0.2179
11046TIP3    H154629   5.880   5.750   6.575  0.4504  0.8216  0.0496
11046TIP3    H254630   5.925   5.848   6.681 -0.5665 -0.7814  2.0001
11047TIP3   OH254631   1.414   1.307   5.453 -0.2809 -0.4101 -0.3740
11047TIP3    H154632   1.370   1.373   5.507 -0.7574 -0.4336 -0.7331
11047TIP3    H254633   1.403   1.225   5.501 -0.8377 -0.4579 -0.5856
11048TIP3   OH254634   2.442   0.853   5.490  0.5763 -0.6431 -0.0200
11048TIP3    H154635   2.497   0.863   5.412  0.2892 -1.9545 -0.3946
11048TIP3    H254636   2.356   0.883   5.462  1.4887  3.4174  1.1465
11049TIP3   OH254637   2.794   1.022  12.206 -0.2494 -0.4076 -0.7016
11049TIP3    H154638   2.714   1.075  12.200 -0.6639 -0.7938  0.9808
11049TIP3    H254639   2.802   0.979  12.121 -1.2875  0.4151 -1.2175
11050TIP3   OH254640   5.082   0.061   2.391  0.5709  0.0902 -0.2041
11050TIP3    H154641   5.053   0.008   2.317 -0.4102  1.6007 -0.9204
11050TIP3    H254642   5.007   0.117   2.413  0.2305 -1.5006  3.0532
11051TIP3   OH254643   6.530   3.525   1.080  0.2171 -0.3054  0.7066
11051TIP3    H154644   6.475   3.578   1.138  2.0853  0.2871  1.9739
11051TIP3    H254645   6.482   3.442   1.072 -2.4547  1.3118 -0.8421
11052TIP3   OH254646   4.424   0.512  11.780 -0.2108  0.0603  0.7883
11052TIP3    H154647   4.458   0.600  11.795  1.5992 -0.5306  0.2613
11052TIP3    H254648   4.497   0.464  11.741 -1.7606 -1.1565 -0.6826
11053TIP3   OH254649   3.341   6.090  12.087  0.0373 -0.3852 -0.9037
11053TIP3    H154650   3.269   6.113  12.145  0.4181  0.6449 -0.8275
11053TIP3    H254651   3.345   5.995  12.090 -0.7488 -0.4008 -0.2172
11054TIP3   OH254652   5.819   0.042   6.551 -0.1313  0.9443  0.0457
11054TIP3    H154653   5.889   0.098   6.518  0.2240  0.5350  0.0929
11054TIP3    H254654   5.752   0.102   6.584  0.4110  1.3351  0.4347
11055TIP3   OH254655   4.414   3.146  11.517 -0.5305  0.3056  0.3560
11055TIP3    H154656   4.382   3.152  11.427  0.0106  2.4410  0.2831
11055TIP3    H254657   4.408   3.053  11.538 -1.7010 -0.0675 -1.5002
11056TIP3   OH254658   6.303   6.056   1.532 -0.0635 -0.1047 -0.6209
11056TIP3    H154659   6.338   6.069   1.443 -3.2722  0.4164 -1.8847
11056TIP3    H254660   6.224   6.110   1.534 -1.0221 -1.5363  1.9837
11057TIP3   OH254661   6.783   0.426   0.118  0.0949  0.1487  0.3104
11057TIP3    H154662   6.733   0.461   0.044  0.6610  0.2797 -0.0175
11057TIP3    H254663   6.767   0.331   0.115 -1.3293  0.3537  1.1180
11058TIP3   OH254664   2.477   1.937   1.549  0.4581 -0.6213 -0.2597
11058TIP3    H154665   2.469   1.901   1.638  3.5829  1.5012  0.9600
11058TIP3    H254666   2.408   2.004   1.544  1.2612  0.3268  1.1408
11059TIP3   OH254667   0.932   3.942   3.691  0.0633  0.4355 -0.1073
11059TIP3    H154668   0.931   3.847   3.681 -1.9768  0.4922 -0.5458
11059TIP3    H254669   0.944   3.976   3.602 -2.7109  0.6338 -0.4377
11060TIP3   OH254670   6.089   0.738  14.663 -0.3226  0.2843  0.1910
11060TIP3    H154671   6.114   0.707  14.576  0.1604 -0.2249  0.5075
11060TIP3    H254672   6.113   0.831  14.664 -0.0634  0.2196 -0.1178
11061TIP3   OH254673   1.762   1.523  16.011  0.3902  0.0303 -0.2016
11061TIP3    H154674   1.747   1.613  15.983  1.9368  0.4433  0.2884
11061TIP3    H254675   1.855   1.519  16.034  0.3434 -1.6823 -0.1997
11062TIP3   OH254676   3.370   1.478   1.551 -0.2190 -0.4570  0.2082
11062TIP3    H154677   3.328   1.512   1.473 -0.8381 -1.4394  0.1085
11062TIP3    H254678   3.374   1.553   1.611 -2.0838 -0.3378  0.2050
11063TIP3   OH254679   5.387   6.560  12.120 -0.3222  0.0574 -0.2701
11063TIP3    H154680   5.427   6.517  12.044 -1.2739 -2.1219  0.4058
11063TIP3    H254681   5.454   6.621  12.150  1.6208 -1.8339 -0.5687
11064TIP3   OH254682   3.099   5.331  14.112 -0.2251 -0.1488  0.3383
11064TIP3    H154683   3.164   5.327  14.182  0.7477  1.4400 -0.4422
11064TIP3    H254684   3.037   5.261  14.132  2.1421 -2.1958  0.7006
11065TIP3   OH254685   1.205   5.191  15.556 -0.3505 -0.7641  0.5615
11065TIP3    H154686   1.115   5.191  15.588 -0.6315 -0.4547 -0.1946
11065TIP3    H254687   1.221   5.283  15.531 -0.1336 -0.9846 -0.1304
11066TIP3   OH254688   3.161   4.699   3.262 -0.2546 -0.4957 -0.2277
11066TIP3    H154689   3.119   4.642   3.198 -2.2220 -1.0988  1.5313
11066TIP3    H254690   3.197   4.640   3.328 -0.7452  0.1975  0.6807
11067TIP3   OH254691   6.021   0.493   4.759 -0.2964  0.2674 -0.0854
11067TIP3    H154692   6.015   0.490   4.664  0.3945  0.3042 -0.1371
11067TIP3    H254693   6.096   0.551   4.777  0.7187 -1.1556  0.4237
11068TIP3   OH254694   1.762   0.812  15.582  0.0957 -0.1573  0.2761
11068TIP3    H154695   1.760   0.772  15.495  0.7844 -0.2498  0.3028
11068TIP3    H254696   1.834   0.875  15.579 -0.2613  0.2749  0.5910
11069TIP3   OH254697   3.531   0.010  16.261 -0.7513 -0.1091  0.2941
11069TIP3    H154698   3.619   0.021  16.296 -0.1070  2.1621 -1.8757
11069TIP3    H254699   3.542  -0.048  16.186 -0.9936  0.6609 -0.3411
11070TIP3   OH254700   5.699   5.161   4.789  0.4303 -0.7478  0.4124
11070TIP3    H154701   5.686   5.066   4.784  1.7247 -0.9278  0.0614
11070TIP3    H254702   5.642   5.197   4.721  0.5816 -1.3488 -0.0414
11071TIP3   OH254703   4.807   5.694  12.753 -0.3647 -0.9343 -0.2386
11071TIP3    H154704   4.723   5.669  12.715 -0.8025 -0.9277  0.7268
11071TIP3    H254705   4.807   5.790  12.750 -1.0301 -0.8944  1.1561
11072TIP3   OH254706   0.623   0.174  12.759  0.4500 -0.0417  0.4164
11072TIP3    H154707   0.533   0.168  12.726  0.3472 -1.0023  0.8554
11072TIP3    H254708   0.624   0.116  12.835  1.4597 -0.0684  0.3808
11073TIP3   OH254709   6.356   0.871  15.892  0.1898  0.1252  0.2478
11073TIP3    H154710   6.450   0.854  15.882 -0.2930 -1.8820 -1.3850
11073TIP3    H254711   6.330   0.912  15.810 -0.0379  2.5219  1.4566
11074TIP3   OH254712   0.852   4.864   4.168  0.5299 -0.2363 -0.3238
11074TIP3    H154713   0.917   4.824   4.110  2.6810  1.9936  0.4669
11074TIP3    H254714   0.851   4.956   4.143 -1.6861 -0.0601  0.3189
11075TIP3   OH254715   3.979   5.486  11.804 -0.2952 -0.2637  0.2105
11075TIP3    H154716   3.998   5.399  11.839  1.9144  0.5241  1.0637
11075TIP3    H254717   4.064   5.530  11.802 -0.9251  0.9111 -2.9363
11076TIP3   OH254718   5.598   4.276   5.509 -0.6187 -0.2547 -0.1502
11076TIP3    H154719   5.578   4.369   5.520  1.8016  0.1379  1.0358
11076TIP3    H254720   5.661   4.274   5.437  0.3137 -0.8640  0.6837
11077TIP3   OH254721   5.072   4.813  12.545 -0.1646  1.0266  0.4118
11077TIP3    H154722   5.078   4.736  12.489 -0.1293  0.0913  1.6591
11077TIP3    H254723   4.993   4.858  12.516 -0.1565  0.5478 -0.3693
11078TIP3   OH254724   2.945   3.927  15.288  0.3455  0.2150 -0.2361
11078TIP3    H154725   3.037   3.901  15.294  0.2509 -0.5424 -1.6249
11078TIP3    H254726   2.944   3.998  15.224  0.1778  1.4297  1.0984
11079TIP3   OH254727   5.098   1.636   5.407 -0.0018 -0.1814  0.5764
11079TIP3    H154728   5.194   1.641   5.407  0.0450 -0.7759  1.9492
11079TIP3    H254729   5.072   1.662   5.496 -1.1724  0.7607 -0.0191
11080TIP3   OH254730   2.160   6.811  13.010 -0.1562 -0.4472  0.2317
11080TIP3    H154731   2.156   6.862  13.090  1.5438  0.1905 -0.0557
11080TIP3    H254732   2.162   6.720  13.039 -2.3278 -0.3268  0.7814
11081TIP3   OH254733   1.324   5.945   1.779 -0.1765  0.3142 -0.2435
11081TIP3    H154734   1.317   5.941   1.684 -1.4531 -0.4768 -0.1314
11081TIP3    H254735   1.234   5.952   1.810  0.3186  2.5573  0.8424
11082TIP3   OH254736   5.324   5.776   2.255  0.2596 -0.2030  0.3056
11082TIP3    H154737   5.231   5.754   2.253  0.4756 -1.0657 -0.7506
11082TIP3    H254738   5.347   5.773   2.348 -1.1015  1.4850  0.7260
11083TIP3   OH254739   6.608   5.995   5.234 -0.1359 -0.2199 -0.0265
11083TIP3    H154740   6.596   6.041   5.317  1.0994 -1.1271  0.6610
11083TIP3    H254741   6.585   5.904   5.254 -1.3002 -0.1625 -1.0573
11084TIP3   OH254742   0.386   0.670  15.391  0.5359  0.3438 -0.6709
11084TIP3    H154743   0.311   0.619  15.423 -0.2595  3.1824  2.2313
11084TIP3    H254744   0.361   0.697  15.303 -0.3908 -1.5418 -1.0158
11085TIP3   OH254745   5.382   1.952  16.190 -0.3238 -0.0653  0.1906
11085TIP3    H154746   5.443   2.022  16.169  1.3121 -1.5053  0.0070
11085TIP3    H254747   5.304   1.996  16.225  0.1994  1.8782 -1.0593
11086TIP3   OH254748   4.817   3.250  13.349  0.5648 -1.0163  0.0445
11086TIP3    H154749   4.768   3.181  13.304 -1.0692  0.3641 -0.3636
11086TIP3    H254750   4.909   3.225  13.339  0.0489 -2.5459 -1.0607
11087TIP3   OH254751   1.064   0.094  16.543 -0.1955 -0.2531 -0.4814
11087TIP3    H154752   1.062   0.150  16.466  1.2412  1.1795  0.4985
11087TIP3    H254753   1.085   0.153  16.616 -0.7126 -1.7120  0.8852
11088TIP3   OH254754   0.028   3.943  13.803 -0.4477  0.3039  0.4950
11088TIP3    H154755  -0.034   3.916  13.871 -1.2702 -0.4644 -0.5518
11088TIP3    H254756   0.085   3.867  13.791  1.4304  1.3845  2.2329
11089TIP3   OH254757   1.054   1.648   0.158  0.4544 -0.2599  0.1662
11089TIP3    H154758   0.970   1.640   0.111  0.8344  1.6243 -0.8837
11089TIP3    H254759   1.049   1.582   0.227 -1.4584 -0.9055 -0.5503
11090TIP3   OH254760   3.151   4.083   5.615  0.1831 -0.3147 -0.0489
11090TIP3    H154761   3.090   4.093   5.688  0.7744  0.0811  0.3938
11090TIP3    H254762   3.217   4.021   5.647  0.8125  0.3750 -0.0113
11091TIP3   OH254763   0.675   1.711   1.746 -0.2621  0.1942 -0.3262
11091TIP3    H154764   0.663   1.709   1.841  1.4950 -1.5364 -0.0919
11091TIP3    H254765   0.758   1.757   1.733  0.6492 -1.5346 -0.8475
11092TIP3   OH254766   5.566   4.644  15.762  0.3251  0.2255  0.2197
11092TIP3    H154767   5.602   4.559  15.737 -0.1763 -0.1078  0.6111
11092TIP3    H254768   5.478   4.645  15.724 -0.1787  0.0043  1.3468
11093TIP3   OH254769   3.154   2.185  14.714 -0.2298 -0.1604  0.7377
11093TIP3    H154770   3.107   2.261  14.679 -3.3443 -2.3970 -0.1739
11093TIP3    H254771   3.194   2.144  14.637 -1.5625 -1.4111  0.6945
11094TIP3   OH254772   3.240   6.135   5.229 -0.4562  0.5697 -0.4922
11094TIP3    H154773   3.287   6.207   5.270  2.1127 -0.9565 -0.6823
11094TIP3    H254774   3.303   6.064   5.225 -2.7610 -1.5267 -0.8415
11095TIP3   OH254775   2.108   5.071  13.139  0.6558 -0.0897 -0.2122
11095TIP3    H154776   2.141   4.999  13.192  3.5248 -0.8209 -2.8288
11095TIP3    H254777   2.029   5.037  13.098  1.0944 -1.2073 -0.1515
11096TIP3   OH254778   1.275   2.835  14.439  0.2228 -0.3986  0.2923
11096TIP3    H154779   1.284   2.856  14.532  0.2140 -0.8368  0.3897
11096TIP3    H254780   1.309   2.746  14.430 -3.7436 -2.0590  0.6568
11097TIP3   OH254781   5.054   0.250   1.723  0.4516  0.5078  0.1234
11097TIP3    H154782   5.045   0.342   1.748  1.7073  0.4269  0.9430
11097TIP3    H254783   5.011   0.201   1.793 -0.4154  0.4670 -0.4264
11098TIP3   OH254784   0.617   3.639  13.246 -0.0822 -0.4101 -0.0061
11098TIP3    H154785   0.619   3.551  13.284  3.3229  0.3240  1.7293
11098TIP3    H254786   0.564   3.691  13.306  3.6168  0.2576  2.8944
11099TIP3   OH254787   5.960   4.619   3.572 -0.0497  0.1184  0.1540
11099TIP3    H154788   6.000   4.688   3.519 -0.2854  0.1229 -0.0214
11099TIP3    H254789   6.029   4.591   3.632 -0.6709  2.1977  1.9074
11100TIP3   OH254790   1.526   0.593  14.340  0.5543  0.1586 -0.1069
11100TIP3    H154791   1.545   0.577  14.247 -1.3104 -1.4307 -0.2701
11100TIP3    H254792   1.430   0.595  14.344  0.6327  0.8404  1.6957
11101TIP3   OH254793   2.808   1.477   3.185 -0.5637  0.0619 -0.7179
11101TIP3    H154794   2.733   1.529   3.155 -0.0199  0.6536 -1.0736
11101TIP3    H254795   2.779   1.386   3.178 -1.0427  0.2664 -1.4389
11102TIP3   OH254796   3.277   2.582   4.759  0.5090 -0.1300 -0.2264
11102TIP3    H154797   3.201   2.610   4.709  1.1680 -0.7855 -1.6109
11102TIP3    H254798   3.255   2.494   4.788  0.8209 -0.4031 -0.8105
11103TIP3   OH254799   2.891   2.614  14.159  0.3004 -0.0612 -0.2168
11103TIP3    H154800   2.868   2.554  14.230  1.5759 -1.7136 -1.1624
11103TIP3    H254801   2.882   2.701  14.197 -0.2480 -0.8896  1.5939
11104TIP3   OH254802   5.786   6.332  12.937 -0.4498  0.0640  0.1279
11104TIP3    H154803   5.800   6.427  12.941  0.2873 -0.0838  1.2210
11104TIP3    H254804   5.792   6.311  12.844 -0.9052  1.1345 -0.1508
11105TIP3   OH254805   0.371   5.472  13.221  0.0507 -0.3544 -0.2848
11105TIP3    H154806   0.372   5.382  13.254 -2.3876 -0.6053 -0.7762
11105TIP3    H254807   0.429   5.470  13.145  2.0662 -0.8732  1.2341
11106TIP3   OH254808   0.030   5.538  15.580  0.2991 -0.2440  0.0583
11106TIP3    H154809  -0.039   5.540  15.646 -0.8320 -1.9936 -1.0261
11106TIP3    H254810   0.091   5.607  15.607 -1.8359  1.3181  1.0530
11107TIP3   OH254811   2.286   2.506  14.360  0.4441  0.4290  0.3069
11107TIP3    H154812   2.342   2.487  14.284 -1.7484  0.6858 -1.4307
11107TIP3    H254813   2.255   2.595  14.345  2.0553  1.4775  2.8984
11108TIP3   OH254814   3.840   4.522   1.023  0.0306 -0.2296  0.6278
11108TIP3    H154815   3.872   4.594   1.077 -1.3956  0.8497  0.0719
11108TIP3    H254816   3.788   4.469   1.082  0.6689 -0.5344  0.9223
11109TIP3   OH254817   0.621   4.305   5.197 -0.0160  0.1106  0.1371
11109TIP3    H154818   0.683   4.369   5.161 -2.2928  2.4494  0.1786
11109TIP3    H254819   0.657   4.283   5.282  2.6129 -1.3594 -1.2802
11110TIP3   OH254820   2.920   1.744  17.138  0.2273 -1.0267  0.2109
11110TIP3    H154821   2.896   1.694  17.060  1.2138  1.5641 -1.8641
11110TIP3    H254822   2.839   1.750  17.189 -0.6523 -2.0438 -1.0501
11111TIP3   OH254823   3.963   4.700   1.867  0.1375 -0.2271  0.2098
11111TIP3    H154824   3.954   4.604   1.864 -1.6507 -0.0401 -0.7584
11111TIP3    H254825   4.056   4.715   1.852  0.3130 -1.7952 -0.4050
11112TIP3   OH254826   6.310   0.218   2.500 -0.3321  0.4337  0.2557
11112TIP3    H154827   6.342   0.252   2.416 -0.8272 -1.0450 -0.5443
11112TIP3    H254828   6.255   0.288   2.535  1.2985  1.7774  0.1923
11113TIP3   OH254829   6.130   1.353  14.486  0.8537  0.3449  0.0330
11113TIP3    H154830   6.174   1.418  14.541  0.8486 -0.4414  0.9609
11113TIP3    H254831   6.202   1.303  14.447  0.8880  1.4466 -1.3577
11114TIP3   OH254832   6.661   3.314   1.997 -0.5060 -0.3433 -0.2295
11114TIP3    H154833   6.756   3.301   1.988 -0.2507  1.3436 -0.1140
11114TIP3    H254834   6.652   3.394   2.048 -2.0016 -0.4709 -0.2637
11115TIP3   OH254835   1.032   6.637  14.885 -0.9920 -0.0298 -0.2495
11115TIP3    H154836   1.044   6.622  14.979  2.8888 -0.8459 -0.7839
11115TIP3    H254837   1.004   6.553  14.850 -0.5729 -0.2325 -0.0966
11116TIP3   OH254838   0.294   3.442  15.310 -0.3087 -0.3090  0.1762
11116TIP3    H154839   0.342   3.523  15.327 -2.4601  1.4520 -1.7131
11116TIP3    H254840   0.328   3.411  15.227 -1.3423  0.1430 -0.4321
11117TIP3   OH254841   0.895   4.712   6.024 -0.2595 -0.2374 -0.0292
11117TIP3    H154842   0.815   4.764   6.037 -1.0285 -1.3013 -0.4269
11117TIP3    H254843   0.925   4.693   6.112 -0.2341  0.4763  0.1234
11118TIP3   OH254844   3.870   1.839  10.896  0.2363  0.0072 -0.1195
11118TIP3    H154845   3.798   1.792  10.939  0.0327  0.2284 -0.2186
11118TIP3    H254846   3.948   1.810  10.942  0.0605 -0.0764  0.1273
11119TIP3   OH254847   2.955   5.932  12.408 -0.3291 -0.2191  0.0053
11119TIP3    H154848   3.000   5.928  12.324 -0.0825  1.3767  0.0432
11119TIP3    H254849   2.994   5.862  12.460  0.4744 -0.3261 -0.7428
11120TIP3   OH254850   5.366   6.336   2.641  0.0897 -0.2733 -0.5321
11120TIP3    H154851   5.397   6.366   2.727 -2.9740  0.4636  0.4108
11120TIP3    H254852   5.418   6.385   2.578  1.4284  0.2213  0.9246
11121TIP3   OH254853   6.276   2.865  17.225  0.5763 -0.2304  0.4046
11121TIP3    H154854   6.264   2.791  17.285 -3.2683 -0.6272 -0.7541
11121TIP3    H254855   6.226   2.936  17.264  0.9141  0.5484 -0.5692
11122TIP3   OH254856   5.354   6.417   0.194  0.0384  0.0553  0.6830
11122TIP3    H154857   5.447   6.416   0.215  0.0623  0.1502  0.5845
11122TIP3    H254858   5.349   6.385   0.104  0.2216  2.3882 -0.1863
11123TIP3   OH254859   3.593   4.870   0.948 -1.0279 -0.1374  0.1665
11123TIP3    H154860   3.604   4.803   0.880 -0.1243 -1.4936  1.6036
11123TIP3    H254861   3.501   4.897   0.940 -1.0742 -0.6788 -1.2283
11124TIP3   OH254862   0.398   5.610  12.215  0.5504 -0.5683  0.5033
11124TIP3    H154863   0.321   5.666  12.217  0.3647 -0.7573 -0.7168
11124TIP3    H254864   0.442   5.633  12.133  0.7078 -1.8888  0.2075
11125TIP3   OH254865   1.383   3.238   1.320  0.1422  0.4346  0.0510
11125TIP3    H154866   1.380   3.233   1.225  0.4034  2.5818 -0.0921
11125TIP3    H254867   1.446   3.170   1.346  0.3403  0.0910 -1.3186
11126TIP3   OH254868   0.672   3.199  14.338 -0.0802 -0.2573 -0.8662
11126TIP3    H154869   0.691   3.265  14.272 -0.6728  1.3153  0.4888
11126TIP3    H254870   0.743   3.209  14.402  0.1827 -1.3856 -0.9641
11127TIP3   OH254871   2.072   5.812   1.223 -0.0744 -0.1315 -0.3843
11127TIP3    H154872   2.053   5.722   1.197 -1.4371  0.1352 -0.3336
11127TIP3    H254873   2.129   5.803   1.299  0.2296 -0.9468 -0.7041
11128TIP3   OH254874   3.338   1.330   0.718 -0.1584 -0.5243  0.0320
11128TIP3    H154875   3.382   1.377   0.789 -1.8296  0.6150  0.3474
11128TIP3    H254876   3.266   1.284   0.761 -1.2097  0.2199 -0.9048
11129TIP3   OH254877   2.763   1.475   5.515 -0.0843 -0.6110 -0.3025
11129TIP3    H154878   2.806   1.421   5.448  1.1841 -0.1076  0.0803
11129TIP3    H254879   2.698   1.418   5.554 -0.5381 -1.0563 -1.6706
11130TIP3   OH254880   4.497   6.519  12.666 -0.3380  0.5491  0.0503
11130TIP3    H154881   4.545   6.541  12.746 -0.6085 -1.0382  0.6795
11130TIP3    H254882   4.558   6.541  12.595  0.2006  1.2616  0.7271
11131TIP3   OH254883   1.861   0.835  10.572 -0.2723  0.7647 -0.0943
11131TIP3    H154884   1.904   0.752  10.590  0.3267  1.0012 -0.4259
11131TIP3    H254885   1.802   0.817  10.499 -1.9961  0.0347  1.4109
11132TIP3   OH254886   5.651   3.499  13.692 -0.0286 -0.4189  0.7777
11132TIP3    H154887   5.567   3.543  13.704 -0.3446 -0.8758  0.2234
11132TIP3    H254888   5.636   3.409  13.720  0.0163 -0.7456 -0.2182
11133TIP3   OH254889   4.376   4.129   5.537  0.6787 -0.1224 -0.3876
11133TIP3    H154890   4.411   4.133   5.626 -2.6079 -2.0368  1.1350
11133TIP3    H254891   4.401   4.042   5.505 -0.8390 -0.6988 -0.0615
11134TIP3   OH254892   6.048   5.463  15.478 -0.0446  0.5475  0.2836
11134TIP3    H154893   6.025   5.555  15.490  0.6810  0.8459 -0.6513
11134TIP3    H254894   6.037   5.425  15.566 -1.9989  1.1357  0.3282
11135TIP3   OH254895   2.724   1.830  11.367 -0.1810 -0.1478 -0.0975
11135TIP3    H154896   2.779   1.761  11.331  1.9150  2.2677 -1.6816
11135TIP3    H254897   2.636   1.809  11.335  0.3459 -2.2153 -0.3055
11136TIP3   OH254898   3.024   4.854  11.647 -0.0985  0.0358  0.2584
11136TIP3    H154899   3.013   4.780  11.588 -0.4795  0.1965  0.1237
11136TIP3    H254900   3.094   4.828  11.706  0.9335  0.2508 -0.8506
11137TIP3   OH254901   2.834   3.698   4.566  0.2193 -0.1196  0.3086
11137TIP3    H154902   2.901   3.648   4.613 -0.4395 -0.9433  0.3631
11137TIP3    H254903   2.875   3.719   4.482  0.5402 -0.6461  0.3313
11138TIP3   OH254904   1.197   1.929   2.343 -0.2313  0.1156 -0.6568
11138TIP3    H154905   1.252   1.992   2.390 -0.5200  0.8969 -1.3460
11138TIP3    H254906   1.126   1.909   2.405  0.8126 -0.8933  0.2267
11139TIP3   OH254907   5.762   4.232   1.190  0.5048  0.5203 -0.3891
11139TIP3    H154908   5.844   4.259   1.231 -0.4078  2.1568  0.4034
11139TIP3    H254909   5.751   4.291   1.116  1.6237 -1.7605 -2.4508
11140TIP3   OH254910   0.784   5.532  13.976  0.0208  0.1782 -0.0455
11140TIP3    H154911   0.798   5.614  13.929 -0.0616 -0.6671 -1.5685
11140TIP3    H254912   0.689   5.523  13.981  0.0200 -0.5476 -1.1891
11141TIP3   OH254913   1.283   2.930   1.777  0.5483 -0.2200 -0.1593
11141TIP3    H154914   1.256   2.994   1.711  1.4030 -0.1478 -0.4442
11141TIP3    H254915   1.267   2.974   1.860 -1.2712 -0.6113 -0.2980
11142TIP3   OH254916   1.851   6.004  12.490 -0.3511 -0.1170 -0.2630
11142TIP3    H154917   1.921   6.054  12.533 -0.3409  0.3635 -0.8483
11142TIP3    H254918   1.862   5.915  12.524 -0.0787  0.1692  0.4150
11143TIP3   OH254919   4.774   6.269   5.929  0.2029  0.5427 -0.4300
11143TIP3    H154920   4.760   6.207   6.001 -1.5395  1.0609 -0.3020
11143TIP3    H254921   4.763   6.216   5.850 -0.4125  0.5139 -0.3239
11144TIP3   OH254922   0.094   1.257  14.839 -0.4858  0.0627  0.2469
11144TIP3    H154923   0.046   1.303  14.770  0.9446  0.4331 -0.5294
11144TIP3    H254924   0.128   1.326  14.895 -0.7754 -0.1903  0.7330
11145TIP3   OH254925   6.702   5.277  11.469 -0.0063  0.1996  0.1003
11145TIP3    H154926   6.739   5.345  11.526  0.8850 -1.6397  1.7958
11145TIP3    H254927   6.656   5.325  11.401  0.4772  2.5017  1.3408
11146TIP3   OH254928   6.323   6.572   4.996  0.1857 -0.2780  0.5254
11146TIP3    H154929   6.243   6.617   4.968 -0.6751 -0.4439  2.6322
11146TIP3    H254930   6.291   6.495   5.043  1.6195 -1.0709  0.2159
11147TIP3   OH254931   6.480   6.277   4.104 -0.2403  0.6724  0.1527
11147TIP3    H154932   6.531   6.327   4.041 -2.1054  0.2047 -1.8177
11147TIP3    H254933   6.538   6.205   4.130 -0.4786 -0.9499 -3.4840
11148TIP3   OH254934   6.340   6.444   6.762  0.1533 -0.4282  0.1900
11148TIP3    H154935   6.411   6.411   6.707  0.1491 -1.0574  0.5506
11148TIP3    H254936   6.379   6.514   6.814  0.0621  0.4305 -0.8828
11149TIP3   OH254937   4.996   1.876   2.118 -0.0857 -0.0357 -0.1026
11149TIP3    H154938   4.977   1.966   2.145  1.2752  0.0863  0.5070
11149TIP3    H254939   4.951   1.866   2.035 -2.2377  0.4380  0.9763
11150TIP3   OH254940   4.291   0.405  17.086 -0.3675  0.0699  0.2270
11150TIP3    H154941   4.319   0.482  17.037 -0.1220 -0.3308 -0.2670
11150TIP3    H254942   4.206   0.429  17.122 -0.3795  0.4977 -0.0871
11151TIP3   OH254943   1.907   3.345  16.175  0.5146 -0.3442  0.8149
11151TIP3    H154944   1.883   3.369  16.265  0.8349 -1.8753  1.3187
11151TIP3    H254945   1.857   3.405  16.120 -0.2140  0.1471  1.9995
11152TIP3   OH254946   6.458   6.766   3.730  0.3389  0.3019 -0.6091
11152TIP3    H154947   6.465   6.675   3.760  0.7971 -0.0572 -1.7945
11152TIP3    H254948   6.527   6.775   3.664 -1.4351  0.7061 -2.4615
11153TIP3   OH254949   2.769   4.313  14.447  0.3302 -0.1983  0.6551
11153TIP3    H154950   2.778   4.382  14.382 -1.4075 -0.0480  0.5432
11153TIP3    H254951   2.754   4.359  14.530 -0.6544 -0.4210  0.6106
11154TIP3   OH254952   2.731   5.308   3.870  0.5558  0.4464 -0.2870
11154TIP3    H154953   2.688   5.279   3.790 -1.6655  2.6076  0.0509
11154TIP3    H254954   2.730   5.231   3.927 -0.3717 -0.3401 -1.3293
11155TIP3   OH254955   4.100   4.789   5.042  0.5214  0.1310 -0.4361
11155TIP3    H154956   4.156   4.862   5.067 -0.1600 -0.0367  1.6395
11155TIP3    H254957   4.146   4.711   5.074  1.1258 -0.3584 -2.4215
11156TIP3   OH254958   3.964   4.095   4.565 -0.4017  0.0822 -0.2987
11156TIP3    H154959   4.033   4.152   4.530  0.0313 -0.6172 -0.6112
11156TIP3    H254960   3.884   4.146   4.558 -0.2118  0.2069 -1.7134
11157TIP3   OH254961   3.188   4.297   2.780 -0.2358  0.1418 -0.2142
11157TIP3    H154962   3.208   4.391   2.779 -0.0611  0.1222  0.7108
11157TIP3    H254963   3.098   4.292   2.747  0.6884  0.3739 -2.8518
11158TIP3   OH254964   4.850   4.021   3.179 -0.0803  0.1068 -0.1863
11158TIP3    H154965   4.942   4.041   3.197  0.2511  0.5231 -2.2733
11158TIP3    H254966   4.801   4.079   3.237  0.9539 -0.5669  1.4089
11159TIP3   OH254967   5.767   6.143   2.357  0.2120 -0.4254  0.1009
11159TIP3    H154968   5.836   6.139   2.292 -1.3107 -3.0674 -1.4254
11159TIP3    H254969   5.768   6.057   2.400 -1.2875 -0.0729  0.9064
11160TIP3   OH254970   4.326   3.014  13.391  0.3715  0.2916  0.5774
11160TIP3    H154971   4.262   3.063  13.442  0.3039  1.0942 -0.2504
11160TIP3    H254972   4.327   2.927  13.430 -1.1168  0.3093  0.6963
11161TIP3   OH254973   4.745   1.490   2.326 -0.5191 -0.3029  0.4751
11161TIP3    H154974   4.804   1.565   2.334 -0.8521 -0.0881  0.9406
11161TIP3    H254975   4.708   1.479   2.414  0.3879 -1.7211  0.6863
11162TIP3   OH254976   5.923   0.407   2.821  0.2104 -0.4459 -0.0456
11162TIP3    H154977   5.851   0.387   2.881 -0.8010  1.2692 -0.6786
11162TIP3    H254978   5.968   0.481   2.861  0.5092 -0.3363 -0.5831
11163TIP3   OH254979   1.982   6.505   3.495  0.2056 -0.0131 -0.5278
11163TIP3    H154980   1.975   6.447   3.572 -1.1654  0.5610 -0.2086
11163TIP3    H254981   1.943   6.588   3.524  0.2205  0.3957 -1.6644
11164TIP3   OH254982   4.350   3.970   0.326 -0.3352  0.5393 -0.0406
11164TIP3    H154983   4.357   3.917   0.246 -1.6185  0.1976  0.0677
11164TIP3    H254984   4.258   3.997   0.329  0.1137  2.0484  0.3815
11165TIP3   OH254985   6.764   3.883  15.754  0.0429 -0.5445  0.1215
11165TIP3    H154986   6.709   3.885  15.833  0.8554  0.2038  0.6806
11165TIP3    H254987   6.702   3.872  15.682 -0.8300  0.1276  0.7529
11166TIP3   OH254988   0.616   6.725  11.640 -0.5187  0.0237 -0.0994
11166TIP3    H154989   0.575   6.781  11.705 -1.0267 -2.0390  1.3913
11166TIP3    H254990   0.544   6.697  11.583 -0.6389 -0.8352  0.4607
11167TIP3   OH254991   5.841   5.427   5.305  0.1046  0.3999  0.1948
11167TIP3    H154992   5.877   5.516   5.310 -1.0617  0.8588  0.4512
11167TIP3    H254993   5.914   5.374   5.272  0.8766  1.4081  0.2577
11168TIP3   OH254994   3.010   1.085   4.735  0.7498  0.2841  1.1365
11168TIP3    H154995   3.067   1.064   4.661 -1.4227 -1.4446 -0.0931
11168TIP3    H254996   3.029   1.016   4.800  0.5868  0.1149  1.0065
11169TIP3   OH254997   3.983   4.096   3.614  0.2649  0.6475 -0.4109
11169TIP3    H154998   4.048   4.027   3.609 -1.7028 -1.4631  1.8186
11169TIP3    H254999   3.912   4.066   3.557  0.8449  2.5490 -2.1969
11170TIP3   OH255000   4.418   3.152  10.673  0.0406  0.0428  0.0802
11170TIP3    H155001   4.496   3.149  10.729 -1.5895  0.1091  2.4251
11170TIP3    H255002   4.437   3.091  10.602  2.0625 -0.2270  0.8099
11171TIP3   OH255003   5.305   0.861  15.521 -0.0577  0.0229 -0.0088
11171TIP3    H155004   5.352   0.924  15.467  1.6209 -1.3816 -0.2284
11171TIP3    H255005   5.325   0.775  15.482 -1.5017 -0.7415  0.8643
11172TIP3   OH255006   5.235   3.413   0.869  0.1138  0.0168 -0.1946
11172TIP3    H155007   5.154   3.428   0.820  0.3855 -0.0555 -0.6721
11172TIP3    H255008   5.290   3.488   0.848  0.6548 -0.5594 -0.8913
11173TIP3   OH255009   0.988   5.189  15.774 -0.0380  0.0205  0.4556
11173TIP3    H155010   0.958   5.136  15.848 -1.2499  0.8810  0.5978
11173TIP3    H255011   0.959   5.140  15.697 -0.2986 -0.0051  0.5703
11174TIP3   OH255012   1.817   5.014   5.504 -0.0346 -0.5960 -0.1918
11174TIP3    H155013   1.746   5.069   5.538  2.0901  2.0732  0.0803
11174TIP3    H255014   1.846   5.059   5.424  0.9687 -1.9578 -0.6103
11175TIP3   OH255015   6.278   3.844   3.195 -0.4664  0.1692 -0.4872
11175TIP3    H155016   6.183   3.846   3.179 -1.0685  4.4023  2.8026
11175TIP3    H255017   6.287   3.800   3.279  0.5894 -0.8617 -1.1299
11176TIP3   OH255018   5.523   3.068  16.695 -0.2819  0.2531  0.3470
11176TIP3    H155019   5.615   3.093  16.689 -0.2677  0.1699  0.1994
11176TIP3    H255020   5.484   3.099  16.613 -0.1277 -0.7771 -0.1337
11177TIP3   OH255021   2.060   0.381   2.972  0.0792  0.3833  0.5650
11177TIP3    H155022   2.128   0.449   2.971  0.1045  0.3470 -0.7094
11177TIP3    H255023   1.999   0.410   3.040  0.5157  1.2578  0.5941
11178TIP3   OH255024   5.333   3.264   2.722 -0.3345 -0.0355  0.2990
11178TIP3    H155025   5.402   3.215   2.677  1.1308  2.5318 -0.3193
11178TIP3    H255026   5.366   3.277   2.811 -1.1597 -0.9923  0.7604
11179TIP3   OH255027   2.965   1.190  11.075  0.2371  0.1818  0.2778
11179TIP3    H155028   2.901   1.122  11.056  0.3787  0.0935  0.1184
11179TIP3    H255029   3.050   1.147  11.063  0.3870  1.5432 -4.0924
11180TIP3   OH255030   4.286   2.137   5.047 -0.1086 -0.1640 -0.1944
11180TIP3    H155031   4.304   2.091   5.129 -0.8204  1.2104  0.7501
11180TIP3    H255032   4.211   2.194   5.068 -2.1309 -1.8493 -2.5492
11181TIP3   OH255033   1.784   3.775  14.338  0.1531  0.4684  0.2888
11181TIP3    H155034   1.875   3.772  14.308 -0.0032  0.0370 -0.1597
11181TIP3    H255035   1.787   3.742  14.428  0.4650  0.6277  0.3353
11182TIP3   OH255036   4.530   0.182  14.677 -0.0990 -0.3268  0.2586
11182TIP3    H155037   4.553   0.226  14.759 -0.0425  0.2656 -0.0711
11182TIP3    H255038   4.533   0.251  14.611 -1.7128 -0.4671  0.0174
11183TIP3   OH255039   4.512   3.952   4.144 -0.2123  0.3282 -0.5073
11183TIP3    H155040   4.573   3.879   4.150  1.3895  1.7073  0.6463
11183TIP3    H255041   4.533   3.995   4.062 -1.2730 -0.5954 -1.2715
11184TIP3   OH255042   5.818   5.284   0.716 -0.2549  0.3058 -0.1060
11184TIP3    H155043   5.740   5.311   0.667 -1.4108 -1.9934  0.3984
11184TIP3    H255044   5.794   5.297   0.808  0.1070  0.0171  0.0299
11185TIP3   OH255045   3.153   6.629   5.520 -0.2237 -0.2723 -0.0565
11185TIP3    H155046   3.187   6.676   5.597  0.8796 -2.0093  0.5332
11185TIP3    H255047   3.189   6.676   5.445 -1.8953  1.8936  0.4287
11186TIP3   OH255048   4.672   2.493  15.944 -0.1058 -0.1422  0.3824
11186TIP3    H155049   4.658   2.399  15.956 -0.4073 -0.0090  1.1179
11186TIP3    H255050   4.601   2.520  15.886 -0.0903 -0.3475  0.2663
11187TIP3   OH255051   0.742   3.812  12.353  0.0756  0.5917 -0.5070
11187TIP3    H155052   0.752   3.850  12.266  1.2935 -0.4161 -0.8347
11187TIP3    H255053   0.715   3.721  12.336  0.7605  0.2606  0.1424
11188TIP3   OH255054   5.824   5.682   0.647 -0.6689 -0.1203 -0.1801
11188TIP3    H155055   5.906   5.633   0.659 -0.9807 -0.7611 -0.6014
11188TIP3    H255056   5.806   5.674   0.553 -1.4167 -0.3125 -0.0237
11189TIP3   OH255057   1.797   1.820  17.195 -0.1520  0.2347 -0.4999
11189TIP3    H155058   1.762   1.856  17.114  0.7506 -0.6464 -1.2785
11189TIP3    H255059   1.881   1.864  17.206 -0.1590  0.1660 -0.1554
11190TIP3   OH255060   4.799   5.831   1.832 -0.0921 -0.4728  0.0719
11190TIP3    H155061   4.741   5.885   1.885 -0.0943  0.2607 -0.6694
11190TIP3    H255062   4.880   5.825   1.884 -0.2946 -0.2302  0.4181
11191TIP3   OH255063   2.789   5.887  11.221 -0.2499 -0.0273  0.0693
11191TIP3    H155064   2.839   5.810  11.194  1.7021  0.9353  0.8704
11191TIP3    H255065   2.704   5.852  11.249  0.2222 -1.7558 -0.6136
11192TIP3   OH255066   4.530   1.206  11.435 -0.1258  0.0308  0.4582
11192TIP3    H155067   4.479   1.219  11.515  1.0951 -1.7341  1.5571
11192TIP3    H255068   4.584   1.285  11.428 -1.5874  1.0384  0.3291
11193TIP3   OH255069   1.742   6.228   3.041  0.1044 -0.0871 -0.5607
11193TIP3    H155070   1.787   6.189   3.116 -0.3012 -1.9218 -1.2540
11193TIP3    H255071   1.788   6.193   2.964  0.3971  1.6221 -1.2035
11194TIP3   OH255072   0.387   6.204   1.285  0.2126 -0.8627 -0.3776
11194TIP3    H155073   0.314   6.248   1.328  1.1285 -0.2995  0.6561
11194TIP3    H255074   0.465   6.237   1.330  1.2396 -0.0609 -2.6656
11195TIP3   OH255075   1.717   3.078  14.910  0.6063 -0.4891 -0.5121
11195TIP3    H155076   1.805   3.040  14.908  0.5066 -1.1469  3.4977
11195TIP3    H255077   1.684   3.057  14.997 -1.9619  3.2355 -0.4706
11196TIP3   OH255078   5.357   5.582  15.390  0.4004  0.2592  1.0077
11196TIP3    H155079   5.352   5.648  15.321  0.5299 -1.8994 -1.1436
11196TIP3    H255080   5.426   5.612  15.448  0.4271  2.0180  0.0828
11197TIP3   OH255081   4.068   3.751   0.181 -0.4912 -0.2698 -0.1617
11197TIP3    H155082   4.160   3.751   0.210 -0.6857 -1.0110  0.4654
11197TIP3    H255083   4.020   3.717   0.256 -1.5838  2.4034  0.4168
11198TIP3   OH255084   6.734   1.957  14.717  1.1488  0.5239 -0.4181
11198TIP3    H155085   6.690   2.013  14.780  0.4906  0.9062 -1.2022
11198TIP3    H255086   6.758   1.879  14.767 -1.1367 -0.0491 -0.1378
11199TIP3   OH255087   2.871   0.736   5.909  0.1493 -0.8684 -0.0411
11199TIP3    H155088   2.819   0.816   5.906  1.0233 -0.2884  0.0472
11199TIP3    H255089   2.902   0.730   5.999  1.2348 -0.5445 -0.3760
11200TIP3   OH255090   6.647   4.716  16.679 -0.9727  0.5978  0.0119
11200TIP3    H155091   6.599   4.636  16.661  0.8554 -0.6992  0.7019
11200TIP3    H255092   6.634   4.731  16.773 -0.5612  0.5785  0.0741
11201TIP3   OH255093   4.013   4.304  15.474 -0.3857  0.5428 -0.1246
11201TIP3    H155094   4.083   4.356  15.511  1.4114 -1.1468 -1.0410
11201TIP3    H255095   4.021   4.316  15.379 -0.1159 -1.1359 -0.3325
11202TIP3   OH255096   2.516   5.135  13.009  0.5625 -0.1995  0.0751
11202TIP3    H155097   2.597   5.136  12.958  2.4017 -0.7856  2.8644
11202TIP3    H255098   2.502   5.226  13.035  0.7107 -0.2044  0.1713
11203TIP3   OH255099   3.530   1.333   5.524 -0.1708  0.0116 -0.1012
11203TIP3    H155100   3.575   1.393   5.584 -0.4846  0.3152 -0.1640
11203TIP3    H255101   3.530   1.249   5.570  1.6272 -0.3102 -0.6747
11204TIP3   OH255102   5.941   0.419   5.966 -0.0607 -0.0357 -0.4591
11204TIP3    H155103   5.966   0.382   6.050 -0.3649 -1.4587 -0.9797
11204TIP3    H255104   5.850   0.394   5.954  0.8370 -2.5423 -2.5822
11205TIP3   OH255105   3.492   1.760  16.752 -0.4256 -0.3162  0.2836
11205TIP3    H155106   3.492   1.847  16.711 -1.5260 -0.8912 -0.9681
11205TIP3    H255107   3.431   1.767  16.825 -0.1778  0.0856  0.4549
11206TIP3   OH255108   2.410   2.663  17.188 -0.4677  0.3522 -1.1846
11206TIP3    H155109   2.495   2.645  17.228 -1.3316  0.7506  0.9066
11206TIP3    H255110   2.380   2.578  17.156 -0.4369 -0.2686  0.3908
11207TIP3   OH255111   1.705   5.063  15.287  0.2869  0.3684  0.1175
11207TIP3    H155112   1.795   5.041  15.311  0.5619  0.3160 -0.9352
11207TIP3    H255113   1.652   5.033  15.361  1.1746  0.7736  0.9221
11208TIP3   OH255114   2.938   3.120   0.495  0.3872 -0.0463 -0.6223
11208TIP3    H155115   2.905   3.129   0.584  0.5350  0.1918 -0.5922
11208TIP3    H255116   3.020   3.071   0.505  0.8375  0.7193 -0.5419
11209TIP3   OH255117   3.875   0.180   4.628  0.4828 -0.1167  0.1842
11209TIP3    H155118   3.915   0.261   4.662 -1.3058  0.2651  1.4416
11209TIP3    H255119   3.879   0.119   4.701 -1.4867  0.0394  0.4658
11210TIP3   OH255120   0.425   4.388  11.203 -0.4508  0.1926  0.1055
11210TIP3    H155121   0.425   4.309  11.149 -1.5669 -0.4814  1.0973
11210TIP3    H255122   0.507   4.382  11.253 -0.2530 -0.0402 -0.2391
11211TIP3   OH255123   2.592   0.425   0.270  0.2481  0.4878 -0.1874
11211TIP3    H155124   2.647   0.417   0.348  0.6816  1.5484 -0.3718
11211TIP3    H255125   2.629   0.361   0.208 -0.7921 -1.1465  0.8548
11212TIP3   OH255126   3.390   3.368  16.666 -0.5549  0.1855 -0.4786
11212TIP3    H155127   3.399   3.359  16.761 -1.4683  0.4487 -0.3607
11212TIP3    H255128   3.373   3.461  16.652  0.5350  0.3105 -0.9824
11213TIP3   OH255129   2.253   0.519  12.091  0.3539 -0.0162  0.0127
11213TIP3    H155130   2.171   0.541  12.134 -0.8136  2.1276 -3.1222
11213TIP3    H255131   2.248   0.424  12.075 -1.2447  0.0117  0.3292
11214TIP3   OH255132   2.828   2.592  16.771  0.1223  0.2672 -0.5097
11214TIP3    H155133   2.871   2.531  16.831  0.1363 -1.7160 -2.4543
11214TIP3    H255134   2.754   2.626  16.821 -0.0353 -1.5627  0.5597
11215TIP3   OH255135   5.378   5.370   3.172  0.2619  0.4310 -0.0859
11215TIP3    H155136   5.334   5.286   3.180  0.3249  0.5935  2.0972
11215TIP3    H255137   5.444   5.356   3.104 -1.0251 -0.7069 -1.1318
11216TIP3   OH255138   3.974   1.870  13.508 -0.1986 -0.4887 -0.3116
11216TIP3    H155139   3.968   1.825  13.423  1.2348  2.5226 -2.0848
11216TIP3    H255140   4.050   1.928  13.499 -2.3414  2.7747  1.5978
11217TIP3   OH255141   0.767   6.247   1.148 -0.0568  0.3021 -0.0892
11217TIP3    H155142   0.809   6.317   1.099 -1.5539  0.6371 -0.9054
11217TIP3    H255143   0.740   6.288   1.230  0.1038  0.3857 -0.0770
11218TIP3   OH255144   0.746   1.214   3.864 -0.1500  0.2656 -0.7894
11218TIP3    H155145   0.766   1.226   3.772  0.9052 -0.8916 -0.7148
11218TIP3    H255146   0.766   1.122   3.882  1.1722  0.8745  0.9572
11219TIP3   OH255147   4.476   2.235  11.338 -0.1708  0.2851  0.4354
11219TIP3    H155148   4.509   2.169  11.278  0.9275  0.6345  0.6514
11219TIP3    H255149   4.426   2.295  11.282 -0.9031 -0.5428  0.1933
11220TIP3   OH255150   0.002   0.942   2.354 -0.4601 -0.3558 -0.8206
11220TIP3    H155151   0.023   1.028   2.390  1.2216 -0.5261 -1.3574
11220TIP3    H255152  -0.093   0.934   2.364 -0.6035  1.4910 -0.6239
11221TIP3   OH255153   5.564   3.362  15.669  0.6741  0.0163 -0.6826
11221TIP3    H155154   5.560   3.355  15.765 -2.0417 -1.4659 -0.8520
11221TIP3    H255155   5.657   3.367  15.650  1.2195  3.2247  2.1965
11222TIP3   OH255156   2.579   0.449   4.029 -0.5753 -0.0533 -0.5238
11222TIP3    H155157   2.524   0.527   4.031  0.3454  0.6059 -0.6625
11222TIP3    H255158   2.567   0.408   4.114  1.2829  1.8948  0.7172
11223TIP3   OH255159   5.319   1.574  11.099  0.3797 -0.5429  0.2865
11223TIP3    H155160   5.280   1.612  11.177 -1.0790 -0.0131 -0.6759
11223TIP3    H255161   5.379   1.507  11.132 -0.4432 -0.5394  1.8369
11224TIP3   OH255162   5.903   4.620  12.813  0.3944 -0.1022  0.3126
11224TIP3    H155163   5.972   4.554  12.804  0.5802  0.2294 -0.7281
11224TIP3    H255164   5.950   4.702  12.827  0.2003  0.0520  0.0609
11225TIP3   OH255165   4.778   5.788  14.427  0.4340 -0.6272  0.5151
11225TIP3    H155166   4.820   5.874  14.424 -0.1327 -0.2797  2.2631
11225TIP3    H255167   4.764   5.765  14.335  0.6203  1.1373  0.0350
11226TIP3   OH255168   5.971   6.119  11.804  0.2267 -0.1041 -0.2751
11226TIP3    H155169   5.993   6.119  11.897  1.4158 -0.6723 -0.5457
11226TIP3    H255170   5.877   6.100  11.801  0.0586  0.5162  0.8295
11227TIP3   OH255171   4.902   4.578  12.655  0.2074 -0.4161 -0.1826
11227TIP3    H155172   4.899   4.486  12.630 -0.9061 -0.4723  0.1247
11227TIP3    H255173   4.964   4.582  12.728 -1.8928 -1.4029  1.7219
11228TIP3   OH255174   3.773   3.451   5.253 -0.4298 -0.6014 -0.2854
11228TIP3    H155175   3.727   3.377   5.293  2.2905 -3.4670 -2.2423
11228TIP3    H255176   3.708   3.493   5.197 -1.8307 -1.9540  0.3143
11229TIP3   OH255177   1.924   1.113   3.244 -0.6434  0.1451 -0.7085
11229TIP3    H155178   1.896   1.022   3.244 -2.6415  0.7529 -0.8466
11229TIP3    H255179   1.864   1.157   3.184  1.5194  1.2047 -2.1994
11230TIP3   OH255180   6.703   6.442   4.356 -0.5722 -0.0913 -0.0816
11230TIP3    H155181   6.675   6.365   4.405 -0.4307 -0.9941 -1.3729
11230TIP3    H255182   6.694   6.416   4.264  1.3391  0.7416 -0.5322
11231TIP3   OH255183   4.002   4.902   6.173  0.0608  0.0106  0.1878
11231TIP3    H155184   3.988   4.993   6.147 -0.3310  0.0761  0.6148
11231TIP3    H255185   3.969   4.851   6.100  3.0243  0.2390 -1.3620
11232TIP3   OH255186   3.229   1.492  13.852  0.2420  0.6074  0.2421
11232TIP3    H155187   3.295   1.486  13.784  0.6654  1.3875  0.5760
11232TIP3    H255188   3.217   1.586  13.866 -0.8117  0.4735  0.3037
11233TIP3   OH255189   0.165   0.517  13.584  0.3499  0.7351 -0.0608
11233TIP3    H155190   0.122   0.599  13.560  1.1140  1.5297  1.2362
11233TIP3    H255191   0.246   0.544  13.628  0.9191 -0.7187 -0.1791
11234TIP3   OH255192   6.131   4.466  12.780  0.2607  0.5648  0.4321
11234TIP3    H155193   6.162   4.530  12.844 -0.1565  0.5514  0.6510
11234TIP3    H255194   6.202   4.457  12.718  0.6755  0.5671  0.9049
11235TIP3   OH255195   3.010   1.173  15.386 -0.1605 -0.1761 -0.0860
11235TIP3    H155196   2.917   1.166  15.407  0.2916  1.4474  2.6964
11235TIP3    H255197   3.030   1.266  15.393  1.1005 -0.1026 -3.4971
11236TIP3   OH255198   5.874   4.850   5.604 -0.2408 -0.1099  0.4108
11236TIP3    H155199   5.858   4.920   5.667 -1.9596  0.3627 -0.4875
11236TIP3    H255200   5.795   4.795   5.609 -0.1125 -0.4251 -0.8330
11237TIP3   OH255201   5.585   3.583   4.268 -0.4638  0.1503 -0.4334
11237TIP3    H155202   5.587   3.671   4.303 -2.1834  0.3210 -0.6946
11237TIP3    H255203   5.526   3.534   4.326 -1.9487 -0.0078 -1.9970
11238TIP3   OH255204   0.557   0.880  15.405  0.1094 -0.0364 -0.5317
11238TIP3    H155205   0.523   0.916  15.487  0.4641 -1.3833  0.2282
11238TIP3    H255206   0.514   0.795  15.397 -0.0691  0.1701 -1.8557
11239TIP3   OH255207   2.565   6.672  14.529  0.3236  0.0910 -0.2467
11239TIP3    H155208   2.474   6.644  14.528  0.7524 -1.3513 -2.2750
11239TIP3    H255209   2.572   6.735  14.458  0.4734  1.7830  1.2253
11240TIP3   OH255210   6.363   0.356  15.983  1.2397  0.5024  0.4421
11240TIP3    H155211   6.369   0.340  15.889 -0.3104 -1.0411  0.5982
11240TIP3    H255212   6.428   0.425  15.999  0.8991  1.4304 -1.8969
11241TIP3   OH255213   6.570   2.447  16.006 -0.1432  0.2096  0.1025
11241TIP3    H155214   6.530   2.415  15.925  1.1210  2.4458 -1.4975
11241TIP3    H255215   6.506   2.428  16.074 -0.8689 -2.5155 -1.2735
11242TIP3   OH255216   6.434   1.502   1.706  0.5795  0.5210  0.6007
11242TIP3    H155217   6.391   1.579   1.743 -0.2209 -0.0203  0.8271
11242TIP3    H255218   6.388   1.486   1.623 -0.1029 -0.4485  1.1563
11243TIP3   OH255219   2.899   2.879   1.076  0.2048 -0.0642 -0.0336
11243TIP3    H155220   2.853   2.962   1.065  0.1628 -0.1851 -0.7656
11243TIP3    H255221   2.919   2.876   1.169  3.0769  2.2969 -0.4915
11244TIP3   OH255222   0.344   2.131   0.692 -0.1178  0.2732 -0.9150
11244TIP3    H155223   0.376   2.077   0.620  2.0703 -0.9224  0.8716
11244TIP3    H255224   0.306   2.068   0.753  0.4241  0.9816  0.1695
11245TIP3   OH255225   2.236   1.877   1.088 -0.3729  0.2191  0.3074
11245TIP3    H155226   2.269   1.790   1.065  1.4631  1.1090 -0.4959
11245TIP3    H255227   2.293   1.905   1.160  0.0699  1.3945 -0.4897
11246TIP3   OH255228   0.982   5.664   2.771  0.3725  0.3869 -0.0332
11246TIP3    H155229   1.049   5.642   2.705  0.6172 -0.7475  0.5675
11246TIP3    H255230   1.023   5.640   2.854 -0.2135  1.1329  0.4730
11247TIP3   OH255231   5.506   5.855   1.751 -0.5543 -0.2966  0.1703
11247TIP3    H155232   5.530   5.879   1.840  0.6790  0.0232 -0.2365
11247TIP3    H255233   5.436   5.916   1.728  0.4600  0.9317  0.2396
11248TIP3   OH255234   3.582   6.322  11.674  0.2876 -0.0112 -0.6007
11248TIP3    H155235   3.609   6.414  11.676  1.8960 -0.4320 -2.4428
11248TIP3    H255236   3.532   6.311  11.756 -0.0578  2.5149 -0.4097
11249TIP3   OH255237   0.703   2.160  16.257 -0.1755  0.9296  0.2969
11249TIP3    H155238   0.764   2.194  16.192  0.5968 -0.6249  0.1807
11249TIP3    H255239   0.668   2.238  16.301  1.1472  1.8758 -0.3015
11250TIP3   OH255240   4.266   2.796   5.008  0.2461  0.0569  0.2462
11250TIP3    H155241   4.261   2.804   5.103  2.0258  0.8871  0.3043
11250TIP3    H255242   4.352   2.832   4.986  1.2471 -3.1311 -1.3744
11251TIP3   OH255243   5.730   5.820  14.556 -0.0188  0.1208  0.1689
11251TIP3    H155244   5.718   5.787  14.466 -1.0896  0.1010  0.3150
11251TIP3    H255245   5.814   5.783  14.583  1.4746  2.0505 -1.6663
11252TIP3   OH255246   3.989   3.219  11.563  0.1145  0.6463  0.2400
11252TIP3    H155247   4.058   3.256  11.507  1.1516 -0.1289  0.9810
11252TIP3    H255248   4.029   3.214  11.650 -0.2419 -1.4752  0.3156
11253TIP3   OH255249   0.087   2.285   2.683  0.9458  0.0463 -0.0327
11253TIP3    H155250   0.062   2.193   2.672  0.6477 -0.0954  1.6680
11253TIP3    H255251   0.010   2.335   2.654  0.9291 -0.2521 -0.4990
11254TIP3   OH255252   5.920   3.446   6.193 -0.3062  0.1671  0.2943
11254TIP3    H155253   5.895   3.538   6.180  1.6615  0.7285  0.2839
11254TIP3    H255254   5.980   3.447   6.267 -1.2051 -1.3015  1.0784
11255TIP3   OH255255   4.555   1.398  17.255 -0.0603 -0.1336  0.3315
11255TIP3    H155256   4.559   1.385  17.350  0.9595  0.5142  0.3943
11255TIP3    H255257   4.589   1.317  17.218 -1.9761 -1.0133  0.4671
11256TIP3   OH255258   2.727   0.379  15.443  0.1211 -0.0660 -0.1853
11256TIP3    H155259   2.640   0.397  15.407 -0.5103 -1.4082  0.6145
11256TIP3    H255260   2.731   0.430  15.523 -0.7983 -1.6911  0.9201
11257TIP3   OH255261   3.150   2.558  13.084 -0.1189  0.5728  0.1138
11257TIP3    H155262   3.186   2.647  13.088 -1.0915  0.9945 -0.2786
11257TIP3    H255263   3.069   2.562  13.135 -0.3038 -0.0159 -0.1242
11258TIP3   OH255264   1.881   2.604  13.870  0.5325  0.1522 -0.0474
11258TIP3    H155265   1.817   2.535  13.885  0.7429 -0.7426 -2.8853
11258TIP3    H255266   1.953   2.583  13.930 -0.3974 -0.7309  0.7867
11259TIP3   OH255267   4.799   3.154   0.606  0.2777  0.3461  0.2975
11259TIP3    H155268   4.766   3.169   0.518  0.2115  0.7381  0.3906
11259TIP3    H255269   4.743   3.086   0.642  0.1860  0.3224  0.1061
11260TIP3   OH255270   6.067   0.186  13.461 -0.2390 -0.3183  0.0887
11260TIP3    H155271   6.087   0.221  13.548 -0.5113 -1.6267  0.6809
11260TIP3    H255272   6.009   0.252  13.422 -1.0396 -0.2704  1.3238
11261TIP3   OH255273   4.206   2.413  15.629  0.2811  0.0956  0.1600
11261TIP3    H155274   4.179   2.504  15.614 -2.3452 -0.8160 -1.0232
11261TIP3    H255275   4.226   2.379  15.542  0.0921 -0.8034  0.4628
11262TIP3   OH255276   0.386   3.677  15.877 -0.2635 -0.3773 -0.2845
11262TIP3    H155277   0.390   3.583  15.891  0.6369 -0.5844 -1.8085
11262TIP3    H255278   0.309   3.689  15.821  0.0464 -0.2790 -0.6856
11263TIP3   OH255279   1.661   1.161   2.831 -0.1717 -0.0860  0.2052
11263TIP3    H155280   1.712   1.178   2.752 -0.8786 -0.8252 -0.4234
11263TIP3    H255281   1.664   1.066   2.842 -1.1914 -0.1169  0.2886
11264TIP3   OH255282   4.941   1.168   3.437  0.1816  0.2187  0.3385
11264TIP3    H155283   4.850   1.194   3.449  0.2776  1.2926 -1.1534
11264TIP3    H255284   4.936   1.075   3.413 -0.7386  0.9639 -2.5321
11265TIP3   OH255285   1.377   3.954   2.500 -0.0359  0.9379  0.3985
11265TIP3    H155286   1.296   3.934   2.547  0.5932 -1.8772  0.3928
11265TIP3    H255287   1.429   4.004   2.562 -1.1365  1.3846  0.9754
11266TIP3   OH255288   0.959   3.696   1.950  0.4515 -0.5161 -0.3205
11266TIP3    H155289   0.960   3.695   2.046  1.1276  0.2397 -0.3219
11266TIP3    H255290   0.895   3.629   1.927 -0.6261  0.1517  0.6812
11267TIP3   OH255291   3.688   3.907  16.812 -0.0338  0.3513  0.3077
11267TIP3    H155292   3.699   3.835  16.749  2.0387  0.0581  0.9685
11267TIP3    H255293   3.751   3.887  16.882 -0.3741  2.1121  1.1319
11268TIP3   OH255294   2.155   2.066  15.022  0.2600  0.3717 -0.1614
11268TIP3    H155295   2.233   2.119  15.006  0.7348 -1.0504 -2.8213
11268TIP3    H255296   2.189   1.984  15.059 -0.0656  0.2220 -0.1943
11269TIP3   OH255297   4.714   0.931   0.869 -0.0899  0.0757  0.5382
11269TIP3    H155298   4.745   0.842   0.855  3.3142  1.2890 -0.1268
11269TIP3    H255299   4.651   0.924   0.941  1.7220 -2.5732  1.9397
11270TIP3   OH255300   4.699   4.158   1.273 -0.1184 -0.6042  0.6050
11270TIP3    H155301   4.651   4.112   1.204  1.8113 -2.2632  0.3247
11270TIP3    H255302   4.640   4.157   1.348 -0.9301 -1.7071 -0.0284
11271TIP3   OH255303   3.373   5.073   2.290 -1.0915  0.1064 -0.1360
11271TIP3    H155304   3.445   5.094   2.349 -2.1244 -0.6466  1.4396
11271TIP3    H255305   3.410   5.013   2.227 -0.7656 -1.7940  1.8090
11272TIP3   OH255306   1.381   0.011  12.732  0.3077  0.5094  0.7116
11272TIP3    H155307   1.322   0.046  12.799  1.0620  2.0269  0.6010
11272TIP3    H255308   1.342   0.039  12.649  0.0814 -0.2413  0.5648
11273TIP3   OH255309   2.051   4.122   5.843  0.1415  0.0918  0.1154
11273TIP3    H155310   2.072   4.140   5.935 -0.6274 -1.7438  0.6672
11273TIP3    H255311   2.048   4.208   5.802  2.1843  0.8273  1.4380
11274TIP3   OH255312   2.924   0.069  13.304  0.0147  0.1593 -0.7474
11274TIP3    H155313   2.887   0.096  13.388 -1.4189 -1.2392 -0.8941
11274TIP3    H255314   2.948   0.150  13.261  3.3016  0.8287  2.1002
11275TIP3   OH255315   5.582   4.602  11.550 -0.5199  0.2239  0.0591
11275TIP3    H155316   5.614   4.516  11.522 -0.2672  0.0171  0.9592
11275TIP3    H255317   5.493   4.607  11.516 -0.6667 -0.5496  0.3329
11276TIP3   OH255318   3.026   0.509  13.587  0.5568  0.1321 -0.2297
11276TIP3    H155319   3.075   0.561  13.650  1.2374  0.8032 -1.2971
11276TIP3    H255320   3.091   0.454  13.545  0.0989 -0.3505 -0.3204
11277TIP3   OH255321   6.130   6.539   4.637  0.0881  0.3829 -0.5126
11277TIP3    H155322   6.106   6.597   4.709  3.0316  0.9257  0.0949
11277TIP3    H255323   6.181   6.468   4.678 -3.1479 -2.5041 -1.2983
11278TIP3   OH255324   5.365   3.591  15.233  0.5700 -0.5044 -0.2798
11278TIP3    H155325   5.382   3.532  15.307 -0.2619 -0.5772 -0.1355
11278TIP3    H255326   5.424   3.665  15.247 -1.3943  0.7033  1.8836
11279TIP3   OH255327   0.473   3.488   4.566  0.1993  0.0394 -0.0524
11279TIP3    H155328   0.424   3.559   4.607  0.5685 -0.6868  1.6749
11279TIP3    H255329   0.537   3.461   4.632  1.0132 -0.9564 -1.2156
11280TIP3   OH255330   3.454   0.457   6.536 -0.1024 -0.3945 -0.6089
11280TIP3    H155331   3.449   0.542   6.580 -0.4055 -0.4275 -0.5808
11280TIP3    H255332   3.386   0.404   6.578  1.4951 -1.3472  0.8997
11281TIP3   OH255333   1.651   1.734   6.320 -0.0656 -0.7345  0.9881
11281TIP3    H155334   1.738   1.693   6.322 -0.2310 -1.0697  1.4520
11281TIP3    H255335   1.630   1.750   6.412  0.8942  2.3259  0.7232
11282TIP3   OH255336   3.307   0.180   2.445  0.4652 -0.2629 -0.1620
11282TIP3    H155337   3.217   0.211   2.435  0.7508  0.8299  0.5076
11282TIP3    H255338   3.300   0.103   2.500  0.1612  1.2778  2.0229
11283TIP3   OH255339   0.896   0.893   2.297 -0.2260  0.4825  0.2480
11283TIP3    H155340   0.831   0.922   2.233 -1.2372 -0.6999  0.7176
11283TIP3    H255341   0.868   0.933   2.379  1.1646  2.1322 -0.0486
11284TIP3   OH255342   4.264   4.241  15.685 -0.1516 -0.1627 -0.3651
11284TIP3    H155343   4.229   4.319  15.640 -0.1494  0.4894  0.7608
11284TIP3    H255344   4.342   4.273  15.730  0.1813 -0.9546 -0.3912
11285TIP3   OH255345   2.803   5.764   5.556  0.1902  0.2771  0.1411
11285TIP3    H155346   2.862   5.750   5.630  0.1714  1.6255  0.4201
11285TIP3    H255347   2.727   5.808   5.594  0.2170  1.0507 -0.6895
11286TIP3   OH255348   1.204   2.093  14.038 -0.6408  0.9048  0.7270
11286TIP3    H155349   1.217   2.014  14.090 -1.7310 -0.5849 -1.2244
11286TIP3    H255350   1.292   2.119  14.011 -0.5817 -3.0066 -3.4637
11287TIP3   OH255351   1.916   4.145   1.446  0.6462  0.1921 -0.6167
11287TIP3    H155352   1.820   4.145   1.453  0.6014  0.6896 -1.1843
11287TIP3    H255353   1.944   4.215   1.504  0.8632 -1.8681  1.8644
11288TIP3   OH255354   6.781   5.861  11.508 -0.0329  0.5276  0.1498
11288TIP3    H155355   6.750   5.773  11.485  0.9430 -0.2684  1.7484
11288TIP3    H255356   6.853   5.878  11.447 -0.9609  0.7057 -0.9105
11289TIP3   OH255357   1.934   1.525  13.094  0.3519 -0.0679 -0.2085
11289TIP3    H155358   2.003   1.458  13.093 -0.2416 -0.6781 -0.9309
11289TIP3    H255359   1.982   1.608  13.090  1.0686 -0.4732 -0.1518
11290TIP3   OH255360   0.955   3.922   2.810 -0.2441 -0.2600  0.3213
11290TIP3    H155361   0.928   4.004   2.852  0.0800 -1.0852  2.1644
11290TIP3    H255362   0.880   3.863   2.823 -0.5614 -0.2076 -1.1803
11291TIP3   OH255363   1.528   3.738   0.055 -0.4517 -0.4171  0.0840
11291TIP3    H155364   1.582   3.694   0.121  0.2667 -0.4613 -0.5254
11291TIP3    H255365   1.560   3.706  -0.029 -2.2693 -1.3853 -0.2636
11292TIP3   OH255366   1.030   2.565  11.114  0.0311 -0.1428  0.5542
11292TIP3    H155367   1.092   2.505  11.073  0.6586 -0.0280  1.3187
11292TIP3    H255368   1.080   2.606  11.186 -0.8535  0.1252  1.0247
11293TIP3   OH255369   5.336   6.389   1.929 -0.1760  0.9733 -0.0954
11293TIP3    H155370   5.292   6.345   2.002  1.2520  0.1122  0.2444
11293TIP3    H255371   5.360   6.475   1.965  0.6561  0.4966  0.5110
11294TIP3   OH255372   3.121   0.320   4.905 -0.4523  0.4501 -0.0257
11294TIP3    H155373   3.067   0.240   4.909  0.2608 -0.0089  0.5985
11294TIP3    H255374   3.082   0.378   4.971  1.8245 -1.1701  2.8778
11295TIP3   OH255375   1.838   2.176   4.466  0.3243 -0.3839  0.4238
11295TIP3    H155376   1.900   2.205   4.399 -0.5127  0.6429  0.0611
11295TIP3    H255377   1.839   2.081   4.461  0.4218 -0.3188 -0.9318
11296TIP3   OH255378   2.709   2.322  12.064 -0.2940  0.2182  0.3415
11296TIP3    H155379   2.774   2.251  12.060 -0.0514  0.3230  2.0530
11296TIP3    H255380   2.759   2.402  12.048  0.6339  0.6204  4.5547
11297TIP3   OH255381   0.239   1.950  14.824  0.0359 -0.1166  0.0132
11297TIP3    H155382   0.188   1.880  14.784 -1.0442 -0.0125  1.1993
11297TIP3    H255383   0.298   1.906  14.885 -0.9372  0.0236  1.0733
11298TIP3   OH255384   6.427   1.462  11.900  0.3028  0.0420  0.0699
11298TIP3    H155385   6.421   1.540  11.844  0.0196  0.1259  0.2198
11298TIP3    H255386   6.388   1.489  11.983 -2.2829 -1.0591 -0.7274
11299TIP3   OH255387   5.840   4.549   4.422 -0.1742  0.1977  0.2328
11299TIP3    H155388   5.817   4.495   4.497 -0.6893  1.3111  0.8812
11299TIP3    H255389   5.925   4.514   4.393 -0.1800 -0.5189  1.0518
11300TIP3   OH255390   3.421   4.911   2.606 -0.0373  0.1136  0.4129
11300TIP3    H155391   3.365   4.835   2.592  0.3062  0.1282 -1.1519
11300TIP3    H255392   3.387   4.952   2.686 -1.4948 -0.5576  0.1507
11301TIP3   OH255393   4.246   2.409  11.284 -0.5487  0.1808  0.2522
11301TIP3    H155394   4.154   2.435  11.277 -0.5293  0.1639 -0.0527
11301TIP3    H255395   4.271   2.435  11.373 -0.3312  1.8018 -0.2716
11302TIP3   OH255396   5.889   6.597   2.212  0.0429  0.1771 -0.0548
11302TIP3    H155397   5.853   6.622   2.127 -0.4648  0.0099  0.1085
11302TIP3    H255398   5.969   6.550   2.191  0.2126  0.6175 -0.4189
11303TIP3   OH255399   6.495   2.810  15.848 -0.3218  0.0658 -0.1046
11303TIP3    H155400   6.547   2.770  15.918 -0.2255  1.4531  0.6212
11303TIP3    H255401   6.537   2.894  15.831 -2.0957  1.0528  0.2361
11304TIP3   OH255402   0.218   2.161  15.006  0.3502  0.2388  0.0457
11304TIP3    H155403   0.220   2.073  14.968  0.0194  1.0880 -1.9830
11304TIP3    H255404   0.243   2.219  14.935  1.2698  1.7571  1.5581
11305TIP3   OH255405   1.652   6.302   3.658 -0.1461  0.5517 -0.3644
11305TIP3    H155406   1.748   6.297   3.659 -0.1651 -0.1062 -1.6668
11305TIP3    H255407   1.633   6.395   3.648  0.3407  0.7775  0.7102
11306TIP3   OH255408   1.945   3.629   3.499 -0.6662 -0.3586 -0.1208
11306TIP3    H155409   1.976   3.619   3.409 -1.0110 -1.0110 -0.1751
11306TIP3    H255410   1.850   3.636   3.491 -0.5947  1.0041  0.0924
11307TIP3   OH255411   1.936   3.690   1.295 -0.2597  0.2455 -0.3259
11307TIP3    H155412   1.903   3.664   1.209 -0.9347  0.6308 -0.1803
11307TIP3    H255413   1.969   3.779   1.283  0.1063  0.1158 -0.3041
11308TIP3   OH255414   4.781   2.692   4.655 -0.0030  0.2335 -0.6047
11308TIP3    H155415   4.753   2.781   4.635  1.2585  1.0977  1.2702
11308TIP3    H255416   4.868   2.702   4.694 -0.3085 -1.7101  0.7031
11309TIP3   OH255417   1.341   3.726  16.362  0.0982  0.1163  0.8628
11309TIP3    H155418   1.258   3.767  16.339 -0.2781 -0.8066  0.5288
11309TIP3    H255419   1.386   3.714  16.279  1.4789  2.4961  1.2375
11310TIP3   OH255420   1.351   2.866  11.500  0.0505  0.2203  0.1466
11310TIP3    H155421   1.332   2.944  11.553  0.1300  0.3087  0.0448
11310TIP3    H255422   1.417   2.895  11.437  0.1299  0.0519  0.1517
11311TIP3   OH255423   6.333   5.693   4.486  0.3073  0.1429 -0.1163
11311TIP3    H155424   6.333   5.599   4.469 -0.8223  0.3396 -1.2312
11311TIP3    H255425   6.243   5.721   4.470  0.3092  1.1780  1.5774
11312TIP3   OH255426   3.256   5.679  10.629 -0.5014  0.3468  0.4855
11312TIP3    H155427   3.202   5.604  10.653 -0.1312 -0.1919 -0.3341
11312TIP3    H255428   3.208   5.721  10.558  0.4739 -0.5286 -0.7124
11313TIP3   OH255429   0.202   3.371  13.517  0.3772 -0.5273 -0.5320
11313TIP3    H155430   0.251   3.303  13.470  2.3903  0.0947  0.6028
11313TIP3    H255431   0.138   3.322  13.569  0.8817 -1.4828 -0.7896
11314TIP3   OH255432   3.604   5.351   1.459  0.0825 -0.0807  0.0590
11314TIP3    H155433   3.519   5.359   1.503 -1.6744 -1.0738 -3.0382
11314TIP3    H255434   3.596   5.405   1.380  2.2647 -0.3570 -0.3878
11315TIP3   OH255435   0.671   3.144   0.049 -0.4213 -0.3739 -0.6750
11315TIP3    H155436   0.638   3.120  -0.038  1.0263 -3.1553 -0.5443
11315TIP3    H255437   0.758   3.180   0.032  0.3119 -1.9332 -0.3451
11316TIP3   OH255438   1.763   4.953   3.501 -0.3356  0.3560  0.4624
11316TIP3    H155439   1.707   4.899   3.558 -1.2480  0.2517 -0.5289
11316TIP3    H255440   1.738   4.928   3.412 -1.0473  2.6930 -0.0209
11317TIP3   OH255441   4.253   6.556  15.408 -0.3133  0.1518  0.3540
11317TIP3    H155442   4.220   6.489  15.468 -0.8089 -0.9065 -1.0728
11317TIP3    H255443   4.228   6.525  15.321  3.1495  0.0317 -0.6770
11318TIP3   OH255444   3.671   1.218  15.602 -0.1169  0.1802 -0.0930
11318TIP3    H155445   3.712   1.291  15.647  1.3514 -1.0929  0.7253
11318TIP3    H255446   3.679   1.144  15.663 -0.3369 -0.9793 -1.4234
11319TIP3   OH255447   1.950   1.215   3.528 -0.5430 -0.6057  0.2670
11319TIP3    H155448   1.939   1.138   3.472 -3.8626 -0.9419  1.2810
11319TIP3    H255449   1.911   1.190   3.611 -1.9143  2.2438  0.5450
11320TIP3   OH255450   6.415   1.792   1.479  0.1015  0.0848 -0.1067
11320TIP3    H155451   6.411   1.794   1.574  0.2826 -1.5019 -0.0564
11320TIP3    H255452   6.369   1.712   1.454 -0.5905  0.8620 -1.3979
11321TIP3   OH255453   3.302   1.904  12.008 -0.2113  0.5235  0.4232
11321TIP3    H155454   3.355   1.881  11.931  1.4061 -0.3117  1.7641
11321TIP3    H255455   3.238   1.833  12.014 -0.7658  0.9227 -0.5049
11322TIP3   OH255456   3.036   1.583   4.077  0.0597  0.0773 -0.0975
11322TIP3    H155457   3.122   1.607   4.042 -0.8645  1.8649 -1.1739
11322TIP3    H255458   2.974   1.607   4.009 -1.3174 -1.2886  0.6303
11323TIP3   OH255459   0.291   6.552  12.171  0.1457 -0.6296  0.3752
11323TIP3    H155460   0.245   6.571  12.253  1.7292 -0.8784  1.3247
11323TIP3    H255461   0.285   6.634  12.121  2.6520  0.8671  2.4093
11324TIP3   OH255462   0.763   3.013   1.482  0.3104 -0.6931 -0.6018
11324TIP3    H155463   0.765   2.922   1.513  0.3419 -0.5583 -0.2015
11324TIP3    H255464   0.796   3.064   1.556  4.1548 -0.7362 -2.2050
11325TIP3   OH255465   6.220   0.379  17.258 -0.9994 -0.1480  0.3286
11325TIP3    H155466   6.310   0.412  17.257 -0.5914 -1.1882  1.6741
11325TIP3    H255467   6.176   0.426  17.187  0.5357  0.5648 -0.1579
11326TIP3   OH255468   3.164   5.471  16.722 -0.5112  0.0118  0.8149
11326TIP3    H155469   3.194   5.410  16.790  0.5136  0.7775  1.0686
11326TIP3    H255470   3.135   5.548  16.770 -4.6508 -1.3770  0.6828
11327TIP3   OH255471   1.598   4.163   0.336  0.1242  0.1101  0.5878
11327TIP3    H155472   1.528   4.101   0.315 -1.4422  2.2371 -0.6023
11327TIP3    H255473   1.590   4.232   0.270  3.9472 -0.0418 -0.1500
11328TIP3   OH255474   5.040   1.111  11.002 -0.7512 -0.1016  0.5295
11328TIP3    H155475   4.981   1.183  11.023 -1.3849 -0.3503 -0.3508
11328TIP3    H255476   5.111   1.152  10.954 -0.5883  0.0912  0.9378
11329TIP3   OH255477   4.599   3.483  11.939 -0.2276  0.7664  0.1235
11329TIP3    H155478   4.684   3.456  11.973  0.0326  1.1964 -0.1762
11329TIP3    H255479   4.542   3.488  12.016 -0.0462  0.2294  0.2902
11330TIP3   OH255480   0.345   6.288  10.802  0.1652  0.0015 -0.0801
11330TIP3    H155481   0.361   6.344  10.877 -0.8833 -1.9325  1.6269
11330TIP3    H255482   0.429   6.245  10.786  0.9144  1.8319 -1.2608
11331TIP3   OH255483   2.606   4.955  13.797  0.0475  0.0786 -0.0961
11331TIP3    H155484   2.649   4.889  13.853 -0.4537 -0.7681 -0.7007
11331TIP3    H255485   2.617   4.922  13.708 -0.4407  0.6849 -0.3825
11332TIP3   OH255486   5.434   5.730  16.652  0.1730  0.1539 -0.4914
11332TIP3    H155487   5.355   5.784  16.643 -0.2838 -0.3293  0.5030
11332TIP3    H255488   5.405   5.642  16.628 -0.1285 -0.4212  1.8751
11333TIP3   OH255489   2.619   1.065   3.948 -0.1324 -0.6295  0.1638
11333TIP3    H155490   2.706   1.103   3.937 -0.0637 -1.0014 -0.6473
11333TIP3    H255491   2.559   1.138   3.933  0.0440 -0.2789  1.1395
11334TIP3   OH255492   2.582   1.549   4.756 -0.1652 -0.1766  0.2204
11334TIP3    H155493   2.533   1.631   4.764  0.5257  0.3745 -0.9879
11334TIP3    H255494   2.530   1.497   4.695  0.6970  0.4076 -1.0627
11335TIP3   OH255495   0.443   4.095   3.788 -0.7599  0.3147 -0.1494
11335TIP3    H155496   0.511   4.087   3.855 -0.8813 -0.2968 -0.0982
11335TIP3    H255497   0.466   4.175   3.740  0.8371 -0.6740 -1.0763
11336TIP3   OH255498   1.017   5.347  13.904 -0.2147 -0.4380  0.7699
11336TIP3    H155499   0.996   5.379  13.992  1.3029  1.8053  0.3567
11336TIP3    H255500   0.966   5.403  13.846  2.0174  0.8732  0.0469
11337TIP3   OH255501   4.156   3.978   1.230  0.0245 -0.0500 -0.3139
11337TIP3    H155502   4.081   4.038   1.231  0.0030 -0.0858  0.3024
11337TIP3    H255503   4.223   4.023   1.281 -0.2340 -0.8678  0.7528
11338TIP3   OH255504   1.892   3.504   3.744  0.2771 -0.7263  0.2755
11338TIP3    H155505   1.923   3.572   3.685  0.2019  0.0964  1.1548
11338TIP3    H255506   1.961   3.438   3.744  0.2041 -0.8058 -0.8350
11339TIP3   OH255507   1.523   1.171  15.904 -0.1037  0.7250  0.6703
11339TIP3    H155508   1.512   1.118  15.825  0.2660  2.3915 -0.5277
11339TIP3    H255509   1.599   1.226  15.885 -0.8047  2.0562  1.6937
11340TIP3   OH255510   1.319   4.289   2.037  0.2319  0.3325 -0.2354
11340TIP3    H155511   1.332   4.383   2.050 -1.2280  0.6321 -0.8761
11340TIP3    H255512   1.247   4.267   2.095  0.2947 -0.3223 -0.4044
11341TIP3   OH255513   3.164   5.432   2.553 -0.2982 -0.0206  0.3118
11341TIP3    H155514   3.191   5.341   2.537  1.7504  0.4431  0.9526
11341TIP3    H255515   3.074   5.425   2.584 -0.1090 -1.8654  0.5097
11342TIP3   OH255516   2.334   0.113  12.507 -0.2726  0.4829  0.9807
11342TIP3    H155517   2.413   0.159  12.535  0.0159 -0.8456  2.3987
11342TIP3    H255518   2.304   0.066  12.585  1.5371 -4.7364 -1.2277
11343TIP3   OH255519   3.703   4.520   5.796  0.4205 -0.3217 -0.2114
11343TIP3    H155520   3.614   4.485   5.799  1.1682 -2.1679  1.1809
11343TIP3    H255521   3.743   4.490   5.877  1.6085  2.4808  0.2849
11344TIP3   OH255522   4.122   6.192   3.886 -0.0599  0.4611 -0.2168
11344TIP3    H155523   4.174   6.146   3.820 -1.4820 -2.6576  0.7586
11344TIP3    H255524   4.081   6.264   3.837 -0.8051 -1.5719 -2.6855
11345TIP3   OH255525   0.443   3.856  16.259  0.2298  0.5200 -0.4282
11345TIP3    H155526   0.420   3.916  16.330  2.1366  0.6239  0.1329
11345TIP3    H255527   0.536   3.837  16.273 -0.5456 -3.4306  0.1003
11346TIP3   OH255528   3.305   5.892   4.864  0.4737 -0.4108  0.0044
11346TIP3    H155529   3.366   5.930   4.928 -1.2691  2.1661  0.2000
11346TIP3    H255530   3.354   5.893   4.781  0.9390  1.0326  0.2873
11347TIP3   OH255531   1.399   5.818   3.583 -0.3286 -0.1323  0.0288
11347TIP3    H155532   1.455   5.742   3.601  0.6556  0.1789 -1.6139
11347TIP3    H255533   1.447   5.892   3.619 -0.0361  0.0350 -0.6944
11348TIP3   OH255534   6.345   0.306   0.333  0.2384  0.4308 -0.5741
11348TIP3    H155535   6.273   0.297   0.395  0.4420 -3.4052 -0.7725
11348TIP3    H255536   6.420   0.330   0.386 -0.2596  0.2671  0.2153
11349TIP3   OH255537   3.542   3.180   0.047 -0.2270 -0.2768  0.2351
11349TIP3    H155538   3.553   3.132   0.129  0.0676 -1.7242 -0.6314
11349TIP3    H255539   3.466   3.139   0.005  1.2046 -1.2969 -1.4067
11350TIP3   OH255540   0.333   6.175   0.574  0.5489  0.0349  0.2337
11350TIP3    H155541   0.412   6.144   0.618  0.4666 -2.4923 -1.3425
11350TIP3    H255542   0.365   6.224   0.498  0.6616 -1.9583 -1.0574
11351TIP3   OH255543   0.459   5.347  11.557 -0.1929 -0.4883 -0.2663
11351TIP3    H155544   0.512   5.414  11.513  0.0062 -0.6122 -0.2159
11351TIP3    H255545   0.476   5.267  11.507  0.8850 -0.8711  0.6876
11352TIP3   OH255546   4.101   2.674  12.648  0.1335 -0.0719  0.4924
11352TIP3    H155547   4.056   2.753  12.617  1.3428  0.5721  0.3730
11352TIP3    H255548   4.059   2.655  12.732 -0.4435  0.4580  0.3327
11353TIP3   OH255549   5.090   3.307  11.950 -0.1558 -0.2900  0.0176
11353TIP3    H155550   5.076   3.243  11.881 -1.5033  0.6632 -0.6078
11353TIP3    H255551   5.165   3.273  11.999  0.5937 -1.1566 -1.6851
11354TIP3   OH255552   2.572   0.719   4.594 -0.0562 -0.1157  0.4976
11354TIP3    H155553   2.579   0.712   4.689  4.0859  0.4848  0.3238
11354TIP3    H255554   2.537   0.634   4.566  0.6350 -1.0350  2.3687
11355TIP3   OH255555   1.256   3.952  14.796  0.4707  0.0385 -0.0877
11355TIP3    H155556   1.221   3.889  14.732 -2.9111  0.1978  1.5061
11355TIP3    H255557   1.278   3.898  14.872  0.8319  0.3573  0.0326
11356TIP3   OH255558   3.728   4.835   0.251  0.4385  0.3130  0.0427
11356TIP3    H155559   3.714   4.842   0.345  0.1583  1.5841 -0.0880
11356TIP3    H255560   3.708   4.922   0.217  0.7419 -0.0805 -1.1678
11357TIP3   OH255561   1.685   3.288  14.085  0.0019 -0.0728 -0.2535
11357TIP3    H155562   1.658   3.201  14.057  0.0782 -0.0552 -0.3852
11357TIP3    H255563   1.744   3.318  14.015 -0.9229  0.5500 -0.7879
11358TIP3   OH255564   1.772   1.797  12.736  1.1231 -0.7568  0.2542
11358TIP3    H155565   1.828   1.853  12.682 -1.1142 -0.2600 -1.6119
11358TIP3    H255566   1.718   1.749  12.673 -1.3055 -0.4248  2.0198
11359TIP3   OH255567   3.861   6.212  15.145  0.2838 -0.2871  0.1911
11359TIP3    H155568   3.939   6.238  15.096 -0.5822 -0.5000 -1.3077
11359TIP3    H255569   3.788   6.249  15.096 -0.7410 -2.4377  0.0392
11360TIP3   OH255570   1.858   0.371   6.336 -0.1842  0.0031 -0.1692
11360TIP3    H155571   1.941   0.401   6.299 -0.5694 -2.2336 -3.0414
11360TIP3    H255572   1.863   0.276   6.331 -1.3251 -0.2960  3.3494
11361TIP3   OH255573   0.638   1.598  12.890 -0.0800  0.2813  0.3867
11361TIP3    H155574   0.626   1.609  12.984 -0.7718  2.3223  0.0837
11361TIP3    H255575   0.699   1.667  12.864  0.8578 -0.8653 -0.5153
11362TIP3   OH255576   6.123   3.573   4.137 -0.3241 -0.2006  0.0484
11362TIP3    H155577   6.055   3.560   4.203 -0.6075 -2.1055 -0.5883
11362TIP3    H255578   6.075   3.593   4.057 -0.0119  1.2153  0.2020
11363TIP3   OH255579   6.297   2.117  15.987  0.1692 -0.3674 -0.0184
11363TIP3    H155580   6.239   2.120  15.911 -3.1183 -1.5552  2.3162
11363TIP3    H255581   6.345   2.035  15.978  1.0512  0.3010 -1.6326
11364TIP3   OH255582   1.075   1.069   1.381 -0.9553  0.4058  0.0598
11364TIP3    H155583   1.148   1.007   1.372 -1.4312  0.1946 -2.7736
11364TIP3    H255584   1.017   1.029   1.446  0.0754 -0.7968  0.2521
11365TIP3   OH255585   0.933   4.475  12.023  0.0652 -0.1122 -0.1312
11365TIP3    H155586   0.942   4.493  12.117 -1.2745 -1.1495  0.2268
11365TIP3    H255587   0.980   4.545  11.980  0.3607  0.6026  1.3234
11366TIP3   OH255588   3.322   2.320  16.449 -0.1781 -0.0142  0.1757
11366TIP3    H155589   3.265   2.353  16.519 -0.8851  0.1188 -0.4552
11366TIP3    H255590   3.394   2.382  16.447 -0.4287  0.2902  0.4293
11367TIP3   OH255591   0.971   2.634   4.048 -0.3256  0.5785 -0.0122
11367TIP3    H155592   0.905   2.612   3.982  0.9657 -1.8458 -0.5407
11367TIP3    H255593   0.947   2.582   4.124  0.0682  0.8974  0.3277
11368TIP3   OH255594   3.973   3.064   3.349  0.2926  0.4685  0.1910
11368TIP3    H155595   3.951   3.152   3.317 -0.6948  0.0217 -0.4059
11368TIP3    H255596   3.941   3.063   3.439  0.5923  0.8247  0.3034
11369TIP3   OH255597   3.281   0.284  12.122  0.6812 -0.2552 -0.0219
11369TIP3    H155598   3.314   0.358  12.173 -1.1347 -0.9958  2.2556
11369TIP3    H255599   3.317   0.206  12.165 -2.4602 -0.9861  1.3813
11370TIP3   OH255600   5.665   0.383   0.009 -0.3313  0.4347  0.2495
11370TIP3    H155601   5.607   0.313  -0.021 -0.9821  0.7498  0.7565
11370TIP3    H255602   5.712   0.346   0.083 -2.0262  1.1071  1.7144
11371TIP3   OH255603   1.303   4.878  12.927  0.3028 -0.0498 -0.6336
11371TIP3    H155604   1.283   4.964  12.892  0.7056  0.6025  0.7175
11371TIP3    H255605   1.237   4.820  12.888  0.0989  0.8357 -1.6214
11372TIP3   OH255606   5.327   5.393  16.265 -0.0893  0.4653 -0.4199
11372TIP3    H155607   5.422   5.385  16.261 -0.1067  0.5575 -1.1160
11372TIP3    H255608   5.298   5.318  16.317  0.2577 -0.3467 -1.3889
11373TIP3   OH255609   2.008   2.051   2.903  0.5218  0.5094  0.2102
11373TIP3    H155610   1.969   2.139   2.896 -0.3538  0.2058  1.2452
11373TIP3    H255611   2.048   2.050   2.990  0.1639 -0.2676  0.3654
11374TIP3   OH255612   6.416   2.537   4.435  0.3874  0.2457  0.5722
11374TIP3    H155613   6.419   2.519   4.529  1.4061  1.5040  0.7928
11374TIP3    H255614   6.436   2.631   4.427  0.5449  0.1080 -0.9159
11375TIP3   OH255615   1.395   4.912  13.202 -0.6659  0.4150 -0.0314
11375TIP3    H155616   1.367   4.894  13.112  0.1968  1.2789 -0.4734
11375TIP3    H255617   1.392   4.826  13.245 -0.6736 -0.0798 -0.9989
11376TIP3   OH255618   2.774   5.802  14.768  0.2347  0.5676 -0.0660
11376TIP3    H155619   2.687   5.844  14.766 -0.5845 -1.1395 -2.2148
11376TIP3    H255620   2.830   5.860  14.716 -1.1154 -1.3069 -3.8233
11377TIP3   OH255621   6.048   3.668  13.557 -0.2467  0.3265 -0.2001
11377TIP3    H155622   6.131   3.672  13.604 -0.9237  0.9520  0.9377
11377TIP3    H255623   6.057   3.590  13.501  1.4215  0.8521 -0.7241
11378TIP3   OH255624   4.229   5.334  14.394  0.7956  0.1055 -0.2108
11378TIP3    H155625   4.320   5.362  14.391  1.1232 -1.0278 -1.0577
11378TIP3    H255626   4.232   5.240  14.376 -0.5721  0.1383 -0.6653
11379TIP3   OH255627   3.235   3.260   5.912  0.0949  0.1123 -0.0600
11379TIP3    H155628   3.145   3.272   5.884 -0.2548 -0.4190  0.8346
11379TIP3    H255629   3.230   3.243   6.006  0.8647 -3.1446 -0.5381
11380TIP3   OH255630   0.446   4.709  13.972 -0.3066  0.4256  0.1307
11380TIP3    H155631   0.499   4.631  13.960 -1.0689 -0.1351  0.3166
11380TIP3    H255632   0.509   4.780  13.984  0.3928 -0.1320 -0.2175
11381TIP3   OH255633   2.005   0.887  12.350  0.1375  0.3910  0.2934
11381TIP3    H155634   2.059   0.927  12.282  1.2712 -1.6857 -0.0853
11381TIP3    H255635   1.940   0.953  12.372  1.1688  1.9329 -1.1953
11382TIP3   OH255636   4.899   3.254  12.750 -0.3625  0.0629 -0.3786
11382TIP3    H155637   4.992   3.238  12.770 -0.6150  0.0016  0.7491
11382TIP3    H255638   4.881   3.340  12.787 -1.1815 -0.6303  0.8495
11383TIP3   OH255639   1.610   3.941  16.877 -0.2434 -0.1695 -0.3511
11383TIP3    H155640   1.585   3.940  16.784  1.0882  2.4948 -0.8051
11383TIP3    H255641   1.667   3.865  16.887 -0.6084 -0.6357 -1.6615
11384TIP3   OH255642   5.539   4.443  17.265 -0.1480  0.1284 -0.1591
11384TIP3    H155643   5.469   4.430  17.329 -1.2721  2.4408 -0.8462
11384TIP3    H255644   5.503   4.410  17.183 -0.1358  0.5856 -0.3504
11385TIP3   OH255645   4.721   4.447  11.217  0.1609 -0.2069 -0.2044
11385TIP3    H155646   4.637   4.445  11.169  0.4144 -0.2851 -0.6479
11385TIP3    H255647   4.787   4.450  11.148  0.4998  0.8118  0.1634
11386TIP3   OH255648   1.204   1.458  16.756  0.6128 -0.1013  0.1705
11386TIP3    H155649   1.155   1.531  16.794  1.1054  1.0216 -1.3201
11386TIP3    H255650   1.204   1.391  16.824 -0.4869  1.0038  1.2745
11387TIP3   OH255651   2.784   5.244  12.158  0.3146  0.0866  0.1291
11387TIP3    H155652   2.758   5.336  12.167 -1.5177 -0.3059 -0.9628
11387TIP3    H255653   2.755   5.219  12.070 -1.3888 -2.2007  1.2911
11388TIP3   OH255654   2.943   6.114   4.335  0.6506 -0.3229 -0.9714
11388TIP3    H155655   2.889   6.041   4.364  0.2351  0.7986  1.2091
11388TIP3    H255656   3.030   6.075   4.320  0.8098 -1.0515  1.5670
11389TIP3   OH255657   3.722   4.914   5.484 -0.3905  0.1973  0.8251
11389TIP3    H155658   3.782   4.962   5.426  0.8807 -1.1095  0.9970
11389TIP3    H255659   3.638   4.916   5.438  0.3172  0.1908 -0.5245
11390TIP3   OH255660   0.606   3.788  15.068  0.4461  0.1808 -0.6185
11390TIP3    H155661   0.579   3.777  14.977 -1.1855  0.9100 -0.2499
11390TIP3    H255662   0.573   3.875  15.092 -0.7283 -0.7451  1.2026
11391TIP3   OH255663   0.661   1.514  14.921  0.1536 -0.0164 -0.4360
11391TIP3    H155664   0.647   1.435  14.868  1.0826 -0.1119 -0.5370
11391TIP3    H255665   0.725   1.488  14.987 -1.2427  0.0057  0.9738
11392TIP3   OH255666   3.004   1.330  16.005  0.2041  1.0267 -0.5134
11392TIP3    H155667   2.940   1.333  15.934  1.2996 -0.7159 -1.6300
11392TIP3    H255668   3.018   1.421  16.029 -1.4790  1.5285 -1.3612
11393TIP3   OH255669   1.684   2.606  14.285  1.0352 -0.5928  0.2353
11393TIP3    H155670   1.619   2.611  14.215 -0.9149 -2.4095  1.8597
11393TIP3    H255671   1.681   2.692  14.328  0.4092 -0.3414 -0.3138
11394TIP3   OH255672   1.552   3.857   4.669  0.4921  0.1575  0.0005
11394TIP3    H155673   1.544   3.767   4.702 -0.8376  0.4911  0.6043
11394TIP3    H255674   1.625   3.853   4.607  0.9846 -1.1592  0.6411
11395TIP3   OH255675   1.221   1.387  14.823  0.1495 -0.5080 -0.1436
11395TIP3    H155676   1.190   1.296  14.817 -0.2613 -0.5695  2.3580
11395TIP3    H255677   1.316   1.379  14.835  0.5934 -0.4586 -3.1478
11396TIP3   OH255678   0.373   1.985   0.439  0.1683 -0.3606  0.3612
11396TIP3    H155679   0.452   2.009   0.392 -0.3882 -1.3049 -1.0775
11396TIP3    H255680   0.302   2.007   0.379 -0.5872 -0.7753  1.1001
11397TIP3   OH255681   4.560   3.515  12.261 -0.5663  0.1612 -0.3751
11397TIP3    H155682   4.578   3.422  12.267  0.9247  0.4080 -0.7096
11397TIP3    H255683   4.602   3.553  12.338  0.1240  0.7269 -1.0166
11398TIP3   OH255684   2.404   3.362   6.219  0.3814 -0.2535 -0.1158
11398TIP3    H155685   2.448   3.401   6.295  0.2171  0.0934 -0.1952
11398TIP3    H255686   2.370   3.278   6.251 -0.2473  0.1767  0.3793
11399TIP3   OH255687   5.364   2.547  12.721  0.0344 -0.0376  0.4145
11399TIP3    H155688   5.302   2.494  12.772 -1.7531  1.4046 -0.2260
11399TIP3    H255689   5.394   2.614  12.782  0.2382 -0.1469  0.4370
11400TIP3   OH255690   5.479   1.025   3.263 -0.2848 -0.1428  0.2755
11400TIP3    H155691   5.535   1.085   3.215 -0.3445 -0.4958 -0.2380
11400TIP3    H255692   5.520   1.017   3.349 -0.4977  0.9455  0.4822
11401TIP3   OH255693   2.098   3.248  11.656  0.1393 -0.1968 -0.1227
11401TIP3    H155694   2.177   3.194  11.660 -0.9991 -1.9101 -0.1466
11401TIP3    H255695   2.065   3.235  11.567  0.6591  1.7535 -0.6264
11402TIP3   OH255696   2.764   3.925  13.247 -0.2214 -0.6932 -0.4415
11402TIP3    H155697   2.770   3.901  13.339 -1.1110 -0.9564 -0.4443
11402TIP3    H255698   2.685   3.880  13.216 -0.4812  0.1895 -1.0809
11403TIP3   OH255699   6.279   3.120  15.978  0.6953 -0.0809 -0.0619
11403TIP3    H155700   6.361   3.160  15.950  0.1093  1.2717  0.1035
11403TIP3    H255701   6.235   3.095  15.896  0.1707  1.4505 -0.2612
11404TIP3   OH255702   1.880   5.295   0.183  0.2015  0.3624  0.3764
11404TIP3    H155703   1.890   5.304   0.278 -2.7361  1.5336  0.5991
11404TIP3    H255704   1.833   5.212   0.172 -0.5608  0.8476  0.0024
11405TIP3   OH255705   2.048   4.308   0.274 -0.4696 -0.0687 -0.0538
11405TIP3    H155706   2.120   4.325   0.335 -0.5994  1.1109 -0.2190
11405TIP3    H255707   2.074   4.351   0.193 -1.2560  0.1696 -0.1841
11406TIP3   OH255708   1.553   0.274  11.009 -0.5034  0.1890  0.2190
11406TIP3    H155709   1.484   0.336  11.033 -0.9612 -0.3187  0.2259
11406TIP3    H255710   1.506   0.198  10.976  0.0662 -0.0392 -0.0668
11407TIP3   OH255711   4.118   6.049  13.362  0.0464 -0.3816  0.1444
11407TIP3    H155712   4.096   6.135  13.398  0.6839 -0.5008  0.8118
11407TIP3    H255713   4.197   6.064  13.310  0.0530 -0.5350  0.1103
11408TIP3   OH255714   1.771   5.378   5.118  0.2821  0.0029 -0.1259
11408TIP3    H155715   1.813   5.439   5.057  0.2915  0.1779  0.0553
11408TIP3    H255716   1.710   5.328   5.063 -0.6050  1.0017 -0.0616
11409TIP3   OH255717   3.639   4.867  17.070  0.1860 -0.2234  0.1060
11409TIP3    H155718   3.670   4.931  17.133 -3.0684  2.0526 -0.4794
11409TIP3    H255719   3.679   4.893  16.987 -0.9754  0.9644 -0.0931
11410TIP3   OH255720   3.208   5.137   1.754  0.1038 -0.9498  0.3712
11410TIP3    H155721   3.294   5.170   1.729 -0.6142  0.2293 -0.6332
11410TIP3    H255722   3.198   5.055   1.706  0.6956 -1.1347  0.5607
11411TIP3   OH255723   4.818   5.535   0.401 -0.3922 -0.0204  0.0930
11411TIP3    H155724   4.823   5.514   0.308 -0.5829 -0.6566  0.2248
11411TIP3    H255725   4.828   5.451   0.446 -2.3539 -0.0154  0.5981
11412TIP3   OH255726   6.723   3.620  13.494  0.3330  0.2718  0.2042
11412TIP3    H155727   6.745   3.607  13.402  1.5439  0.5008  0.4589
11412TIP3    H255728   6.706   3.714  13.501 -0.0827  0.2032  0.1539
11413TIP3   OH255729   2.765   0.196  11.500 -0.2293  0.2233 -0.1350
11413TIP3    H155730   2.710   0.121  11.520 -0.1569  0.2201  0.0510
11413TIP3    H255731   2.834   0.161  11.443 -1.0313  0.4420 -1.2587
11414TIP3   OH255732   0.578   6.616  16.881  0.3723  0.2614 -0.1530
11414TIP3    H155733   0.657   6.666  16.904  0.3181  0.1749  0.2211
11414TIP3    H255734   0.506   6.677  16.898  0.3712  0.4091 -0.6865
11415TIP3   OH255735   3.605   5.755   1.538 -0.0928  0.2451  0.3341
11415TIP3    H155736   3.575   5.734   1.450 -2.7417 -0.0476  1.2593
11415TIP3    H255737   3.529   5.797   1.579  1.0604  0.2283  2.5212
11416TIP3   OH255738   6.130   0.379   2.633  0.2104  0.1829 -0.3627
11416TIP3    H155739   6.043   0.368   2.671 -0.3718 -0.3683 -1.7918
11416TIP3    H255740   6.185   0.405   2.706 -0.7228 -1.4956  0.9945
11417TIP3   OH255741   4.471   1.998  12.245 -0.4557  0.0396  0.1200
11417TIP3    H155742   4.503   2.054  12.316 -0.0509 -1.0498  0.8012
11417TIP3    H255743   4.478   2.053  12.166 -0.8968  1.2456  0.9083
11418TIP3   OH255744   6.300   1.299  14.268 -0.8626  0.1991  0.6540
11418TIP3    H155745   6.256   1.238  14.209 -0.0549  1.6564 -1.5310
11418TIP3    H255746   6.393   1.275  14.263 -1.0495 -1.1546  3.1662
11419TIP3   OH255747   5.898   4.511  16.961 -0.1175 -0.2068 -0.3335
11419TIP3    H155748   5.899   4.556  16.876 -1.1022 -1.0070 -0.7789
11419TIP3    H255749   5.873   4.578  17.024  0.4010  0.3407 -0.7121
11420TIP3   OH255750   0.260   1.261   3.395  0.5236  0.0448  0.3282
11420TIP3    H155751   0.334   1.230   3.447  1.1372 -0.9537 -1.1237
11420TIP3    H255752   0.240   1.347   3.432  1.3302 -0.3901  1.8156
11421TIP3   OH255753   4.791   4.499  14.037 -0.0072 -0.1640 -0.0593
11421TIP3    H155754   4.704   4.486  14.076 -1.0012 -0.4132 -2.2246
11421TIP3    H255755   4.772   4.543  13.954  1.9598 -0.2494 -0.5611
11422TIP3   OH255756   4.420   6.176  11.647  0.4014  0.1611 -0.1319
11422TIP3    H155757   4.369   6.112  11.597  1.9877 -0.3354 -1.1470
11422TIP3    H255758   4.371   6.188  11.728 -0.3804 -1.6617 -0.3187
11423TIP3   OH255759   4.066   4.559  14.513  0.2682  0.0139 -0.2129
11423TIP3    H155760   4.121   4.533  14.587  0.0970 -0.8494 -0.3829
11423TIP3    H255761   4.127   4.569  14.440  0.1964 -1.1101 -0.4443
11424TIP3   OH255762   4.943   3.313  11.603 -0.0209 -0.4431 -1.1630
11424TIP3    H155763   4.849   3.301  11.589  0.1300 -1.2880 -1.5010
11424TIP3    H255764   4.982   3.293  11.518  0.2713  2.4737 -1.7644
11425TIP3   OH255765   5.303   3.902   4.201  0.1647 -0.3485  0.4537
11425TIP3    H155766   5.379   3.862   4.243  1.1584  0.9195 -0.0868
11425TIP3    H255767   5.243   3.922   4.273  0.2920 -1.4614  0.8704
11426TIP3   OH255768   4.522   4.986  12.145 -0.6765  0.0689  0.1960
11426TIP3    H155769   4.496   5.030  12.064  1.2534  0.8754  0.0026
11426TIP3    H255770   4.543   5.057  12.205  0.5963 -0.5704  0.5096
11427TIP3   OH255771   2.289   0.696   1.985 -0.0646 -0.1650  0.3265
11427TIP3    H155772   2.275   0.624   1.923  1.5215 -0.1397 -0.1100
11427TIP3    H255773   2.366   0.669   2.036  1.4598  1.8066 -0.8038
11428TIP3   OH255774   2.370   1.436  15.313  0.5623 -0.2849 -0.1435
11428TIP3    H155775   2.450   1.477  15.347 -0.3049  0.1133  1.4886
11428TIP3    H255776   2.332   1.502  15.255  0.3154  0.3886  0.7636
11429TIP3   OH255777   3.038   3.384  14.189  0.5670  0.3885 -0.3580
11429TIP3    H155778   3.058   3.309  14.133 -0.7633  0.5329 -1.0434
11429TIP3    H255779   3.097   3.453  14.158 -0.1603  0.4659 -1.5875
11430TIP3   OH255780   1.353   1.300  11.668 -0.4707  0.2360 -0.0100
11430TIP3    H155781   1.370   1.379  11.720  3.2616 -1.2617  1.2577
11430TIP3    H255782   1.411   1.308  11.592  0.2049 -1.3656  0.2980
11431TIP3   OH255783   3.360   6.231  15.152  0.4849  0.4440  0.0968
11431TIP3    H155784   3.397   6.261  15.235  1.3682 -1.0768  0.2661
11431TIP3    H255785   3.302   6.159  15.176 -1.2580  1.6412 -0.3590
11432TIP3   OH255786   3.132   6.165  14.176  0.2237 -0.6050  0.1946
11432TIP3    H155787   3.118   6.166  14.270 -3.4540 -0.7239 -0.2719
11432TIP3    H255788   3.120   6.073  14.150 -0.4690 -0.3029 -0.5911
11433TIP3   OH255789   2.316   3.121   4.496 -0.3803  0.0105  0.4982
11433TIP3    H155790   2.369   3.197   4.476 -0.4483  0.0297  0.3923
11433TIP3    H255791   2.247   3.121   4.430 -0.1503 -0.3702  0.2578
11434TIP3   OH255792   3.199   1.812  14.007  0.2365  0.1480 -0.3164
11434TIP3    H155793   3.288   1.843  14.025 -0.0481  1.3394 -0.9649
11434TIP3    H255794   3.142   1.876  14.050 -0.3438  0.2408 -1.2233
11435TIP3   OH255795   2.239   3.810   0.991  0.5976 -0.0573 -0.5543
11435TIP3    H155796   2.220   3.886   1.047  0.7411  1.2617 -2.2730
11435TIP3    H255797   2.263   3.741   1.053 -2.0048  0.5251  1.2372
11436TIP3   OH255798   2.872   1.040  12.917 -0.9201  0.2768  0.4208
11436TIP3    H155799   2.848   1.009  13.004  0.0880 -2.2999 -0.1859
11436TIP3    H255800   2.917   1.123  12.933 -0.1777 -0.4821  2.3800
11437TIP3   OH255801   2.796   1.229  13.740 -0.1197  0.0703  0.7736
11437TIP3    H155802   2.847   1.308  13.722  0.5843 -0.5626 -0.0704
11437TIP3    H255803   2.837   1.161  13.686 -1.5243 -0.5777  0.4793
11438TIP3   OH255804   2.270   0.491   4.871 -0.1953  0.3600 -0.2558
11438TIP3    H155805   2.308   0.579   4.874 -0.4895  0.4813 -0.1232
11438TIP3    H255806   2.249   0.472   4.963  1.4798 -0.5415 -0.0260
11439TIP3   OH255807   4.888   4.376   0.309  0.4526 -0.0026 -0.1140
11439TIP3    H155808   4.925   4.419   0.386  1.8930 -0.8494 -0.3097
11439TIP3    H255809   4.799   4.412   0.301  1.1592  1.9629  0.4683
11440TIP3   OH255810   0.764   4.331   3.141 -0.2908 -0.2450  0.1067
11440TIP3    H155811   0.674   4.299   3.128 -0.3607  1.1863 -3.4926
11440TIP3    H255812   0.754   4.418   3.178 -0.4368  0.0778 -0.6733
11441TIP3   OH255813   0.874   1.882  11.792  0.3650 -0.1341 -0.0669
11441TIP3    H155814   0.792   1.840  11.766 -0.8772  1.8565  0.5316
11441TIP3    H255815   0.919   1.899  11.709 -0.9147  0.9064 -0.5677
11442TIP3   OH255816   6.601   4.756  12.073  0.3326 -0.0783 -0.1455
11442TIP3    H155817   6.616   4.849  12.090 -0.8228  0.3513 -1.4015
11442TIP3    H255818   6.518   4.737  12.117  0.9246 -0.7083  0.7263
11443TIP3   OH255819   6.038   4.135  15.853 -0.0263  0.0048 -0.4175
11443TIP3    H155820   6.093   4.160  15.779 -0.6660  1.0921 -0.5294
11443TIP3    H255821   6.027   4.215  15.904 -0.4517 -0.4940  0.2995
11444TIP3   OH255822   4.910   2.548  12.277  0.3545 -0.2356  0.0107
11444TIP3    H155823   4.817   2.530  12.263  0.1636 -1.1185  2.2542
11444TIP3    H255824   4.923   2.636  12.240 -0.8224 -1.0183 -2.3841
11445TIP3   OH255825   5.197   5.399   4.909 -0.6641 -0.3769 -0.2165
11445TIP3    H155826   5.139   5.413   4.834 -3.8319 -0.5850  2.0816
11445TIP3    H255827   5.172   5.467   4.971  1.6785 -0.4062  0.8112
11446TIP3   OH255828   0.280   2.407   2.463  0.0364 -0.7683  0.5783
11446TIP3    H155829   0.201   2.355   2.447 -0.3657 -0.1181  0.4374
11446TIP3    H255830   0.255   2.467   2.534  0.6945 -1.1976  1.1822
11447TIP3   OH255831   0.368   5.734   3.867  0.6353  0.8318 -0.4423
11447TIP3    H155832   0.422   5.656   3.875  1.0526  1.1224 -0.3628
11447TIP3    H255833   0.430   5.803   3.841  0.8814  1.8682  2.7347
11448TIP3   OH255834   1.993   4.079  15.791 -0.0843 -0.3243  0.2849
11448TIP3    H155835   2.082   4.090  15.759  0.4676 -1.6628  1.3019
11448TIP3    H255836   1.955   4.167  15.790  0.4039 -0.0991 -2.5397
11449TIP3   OH255837   6.593   1.009  16.539  0.0516 -0.4802  0.2017
11449TIP3    H155838   6.566   1.033  16.450 -0.0600  0.2678  0.4381
11449TIP3    H255839   6.633   1.088  16.574 -2.2901  0.0667  1.7567
11450TIP3   OH255840   0.527   5.409  13.005 -0.0076 -0.2469 -0.5917
11450TIP3    H155841   0.583   5.456  12.943 -1.3268  2.0164 -0.1201
11450TIP3    H255842   0.464   5.362  12.949 -0.1054  0.3867 -1.0203
11451TIP3   OH255843   3.407   4.707  14.365  0.1169 -0.3916 -0.2856
11451TIP3    H155844   3.499   4.700  14.341  0.7678  0.0326  1.9589
11451TIP3    H255845   3.372   4.774  14.306  1.6099  0.5348 -0.1475
11452TIP3   OH255846   0.607   6.816   2.397  0.4614  0.2250 -0.0178
11452TIP3    H155847   0.537   6.781   2.451  0.4349  2.2964  1.3548
11452TIP3    H255848   0.667   6.857   2.460  1.3082  1.1650 -1.4180
11453TIP3   OH255849   5.072   4.982  12.071  0.4401  0.1725  0.7454
11453TIP3    H155850   5.124   5.037  12.013 -1.6972  0.6317 -0.8262
11453TIP3    H255851   5.052   5.038  12.146 -1.6215  1.5802 -0.7859
11454TIP3   OH255852   2.521   0.267  16.076  0.1940  0.3661  0.2518
11454TIP3    H155853   2.492   0.179  16.050  0.1197  0.9323 -1.6733
11454TIP3    H255854   2.454   0.298  16.137 -1.3936  0.2714 -1.4051
11455TIP3   OH255855   2.698   5.749  11.973  1.3900  0.3315  0.1160
11455TIP3    H155856   2.613   5.776  11.936  0.7558 -1.2841  0.3673
11455TIP3    H255857   2.736   5.830  12.006 -0.1216  1.0576  0.1305
11456TIP3   OH255858   2.550   3.237   0.989  0.3046 -0.2567 -0.6750
11456TIP3    H155859   2.549   3.141   0.984 -0.4040 -0.2819 -0.0816
11456TIP3    H255860   2.529   3.265   0.900 -0.0841 -0.6574 -0.7100
11457TIP3   OH255861   6.556   1.537  12.554 -0.6287 -0.0510  0.0863
11457TIP3    H155862   6.617   1.472  12.518 -2.1485 -2.0765  1.0313
11457TIP3    H255863   6.612   1.601  12.598  0.9616 -0.0969 -1.8246
11458TIP3   OH255864   2.648   2.881  16.573 -0.4409 -0.5791 -0.0957
11458TIP3    H155865   2.565   2.838  16.595 -0.9379  0.8711  0.9062
11458TIP3    H255866   2.622   2.964  16.533  0.5319 -0.4818 -0.5479
11459TIP3   OH255867   2.343   5.107   1.999 -0.0175 -0.0006  0.4174
11459TIP3    H155868   2.425   5.156   2.006  0.1782 -0.5087  1.8183
11459TIP3    H255869   2.289   5.159   1.939  1.1224  0.6173 -0.0835
11460TIP3   OH255870   4.610   3.520  15.486  0.0824  0.4133  0.1725
11460TIP3    H155871   4.668   3.515  15.562 -0.0600 -1.7144  0.1624
11460TIP3    H255872   4.666   3.502  15.411  0.2993  2.8926 -0.2897
11461TIP3   OH255873   3.090   0.316  13.263 -0.0593  0.8881 -0.0039
11461TIP3    H155874   3.044   0.378  13.205 -0.8010  0.7093  0.3957
11461TIP3    H255875   3.097   0.362  13.346 -3.1702 -0.6339  1.1692
11462TIP3   OH255876   5.213   4.502  13.410 -0.1803 -0.1430  0.2584
11462TIP3    H155877   5.256   4.588  13.415 -1.3534  0.5356 -0.9866
11462TIP3    H255878   5.156   4.508  13.333 -0.3373 -2.0172  0.2045
11463TIP3   OH255879   1.980   3.033  16.362 -0.0892  0.3320 -0.2101
11463TIP3    H155880   1.964   3.115  16.409  1.5895 -0.1936  1.3601
11463TIP3    H255881   1.901   2.982  16.376 -0.0417  0.6156  1.1614
11464TIP3   OH255882   1.179   1.131  14.955 -0.4992  0.0592 -0.6561
11464TIP3    H155883   1.183   1.049  15.004  1.0179  0.0331 -0.8232
11464TIP3    H255884   1.215   1.196  15.015 -0.8017  0.4363 -0.8843
11465TIP3   OH255885   1.115   5.446  14.250  0.1925 -0.0944 -0.6008
11465TIP3    H155886   1.191   5.420  14.197  0.5862  1.5709 -0.8739
11465TIP3    H255887   1.150   5.452  14.339  0.0870 -0.5518 -0.5283
11466TIP3   OH255888   3.259   6.065   1.793 -0.4320  0.1383 -0.1769
11466TIP3    H155889   3.252   5.971   1.776  1.9645 -0.7559  3.2367
11466TIP3    H255890   3.344   6.090   1.759 -0.3451  0.6911  0.4256
11467TIP3   OH255891   0.226   0.221   4.910 -0.3410  0.2214  0.1764
11467TIP3    H155892   0.211   0.205   5.004 -0.2692  0.9549  0.3142
11467TIP3    H255893   0.293   0.157   4.886 -0.7163 -0.3052  0.5125
11468TIP3   OH255894   3.753   2.510  14.159 -0.0987  0.0548 -0.0366
11468TIP3    H155895   3.777   2.516  14.252  1.9103 -0.0350 -0.5139
11468TIP3    H255896   3.679   2.569  14.150 -0.7650 -0.4695  1.7673
11469TIP3   OH255897   4.136   2.545  16.280  0.2117 -0.1118  0.1969
11469TIP3    H155898   4.094   2.626  16.250  0.9660  0.2898  0.2050
11469TIP3    H255899   4.221   2.545  16.235  0.8487 -0.1206  1.3801
11470TIP3   OH255900   0.478   3.454  14.802 -0.0355  0.0089 -0.5509
11470TIP3    H155901   0.516   3.406  14.729  0.6701 -0.5678  0.1939
11470TIP3    H255902   0.383   3.452  14.785  0.0291 -1.2091 -0.7787
11471TIP3   OH255903   4.743   0.164  11.117  0.3350 -0.2097 -0.3787
11471TIP3    H155904   4.734   0.259  11.108  1.3770  0.1387  1.8255
11471TIP3    H255905   4.829   0.152  11.158  0.0385 -2.0862 -0.2778
11472TIP3   OH255906   4.042   5.910  11.015 -0.5402  0.0552 -0.2642
11472TIP3    H155907   4.112   5.865  10.967 -0.0199  0.1651  0.3797
11472TIP3    H255908   4.040   5.866  11.100  1.0464  2.2369  0.9555
11473TIP3   OH255909   1.357   4.114   4.908  0.2552 -0.0004  0.0616
11473TIP3    H155910   1.418   4.049   4.943  1.7490  0.9704 -0.7221
11473TIP3    H255911   1.393   4.138   4.823 -1.0186  0.8553 -0.2426
11474TIP3   OH255912   0.022   0.443  13.903 -0.3830 -0.2329  0.1548
11474TIP3    H155913  -0.056   0.499  13.904 -0.7812 -0.7763  1.9380
11474TIP3    H255914   0.089   0.493  13.949  0.2750  0.1529 -1.2086
11475TIP3   OH255915   6.132   0.621   3.644  0.3631 -0.0506 -0.2188
11475TIP3    H155916   6.082   0.541   3.663  1.4382 -1.0887 -1.5890
11475TIP3    H255917   6.217   0.605   3.686  0.3291  0.7093  0.1361
11476TIP3   OH255918   2.016   3.305  12.593 -0.2825 -0.2336 -0.2319
11476TIP3    H155919   1.961   3.318  12.516 -0.2203  0.6143 -0.1467
11476TIP3    H255920   1.991   3.220  12.627  1.0389 -1.5135 -2.3044
11477TIP3   OH255921   1.412   4.840   6.482 -0.5642 -0.8056 -0.1691
11477TIP3    H155922   1.420   4.923   6.437 -1.8932 -1.3721 -1.5156
11477TIP3    H255923   1.443   4.775   6.419  1.2269 -1.2684  1.1628
11478TIP3   OH255924   4.439   4.403   3.281 -0.1194  0.2768 -0.4475
11478TIP3    H155925   4.519   4.448   3.310  0.9395  1.3382 -4.6397
11478TIP3    H255926   4.383   4.473   3.249 -0.9317 -0.8357 -1.4993
11479TIP3   OH255927   4.394   1.874  13.096  0.0006  0.1115  0.0344
11479TIP3    H155928   4.370   1.782  13.082  0.4063  0.3139 -2.0821
11479TIP3    H255929   4.321   1.924  13.061 -0.5726  0.6314  1.8749
11480TIP3   OH255930   2.498   1.457  12.397  0.2480  0.0879 -0.1953
11480TIP3    H155931   2.448   1.381  12.429 -0.9033  0.4165 -1.1559
11480TIP3    H255932   2.554   1.482  12.471  0.3263 -1.4273  0.2795
11481TIP3   OH255933   1.283   2.996  15.430  0.1840 -0.4226 -0.1112
11481TIP3    H155934   1.195   3.014  15.464  0.0189 -0.2012 -0.6484
11481TIP3    H255935   1.283   2.902  15.412  0.0224 -0.4037 -0.2107
11482TIP3   OH255936   6.781   3.511  13.808 -0.1789  0.1353 -0.9446
11482TIP3    H155937   6.729   3.493  13.730 -1.0733 -0.7436 -0.1533
11482TIP3    H255938   6.730   3.475  13.880  1.0118  0.2363 -0.0347
11483TIP3   OH255939   3.282   0.517   5.046  0.1087  0.9536 -0.2973
11483TIP3    H155940   3.188   0.502   5.060  0.1988  0.1887 -0.5223
11483TIP3    H255941   3.298   0.488   4.957  0.1208  3.1449 -1.0345
11484TIP3   OH255942   6.401   2.606   1.844  0.5331  0.1642  0.1682
11484TIP3    H155943   6.335   2.553   1.800  0.1976 -0.2058  1.1033
11484TIP3    H255944   6.360   2.692   1.857 -0.1605 -0.3819  1.6925
11485TIP3   OH255945   3.373   3.711  13.557  0.0002  0.3207 -0.2678
11485TIP3    H155946   3.359   3.717  13.462 -2.7907  1.1881  0.1541
11485TIP3    H255947   3.422   3.790  13.579  0.8362  0.0147 -1.0146
11486TIP3   OH255948   3.349   4.201   5.184 -0.2603  0.1376 -0.0573
11486TIP3    H155949   3.363   4.164   5.271 -0.4705  0.3469  0.0670
11486TIP3    H255950   3.313   4.288   5.201 -1.6033 -0.3490 -0.3642
11487TIP3   OH255951   0.022   6.183   2.773  0.3458 -0.0190  0.7271
11487TIP3    H155952   0.048   6.273   2.791 -0.7019  0.2004  1.2008
11487TIP3    H255953  -0.047   6.165   2.838  0.8205 -1.2847  0.8958
11488TIP3   OH255954   3.038   4.622   6.058  0.0989  0.2989  0.6804
11488TIP3    H155955   3.002   4.552   6.003  0.7068 -0.1452  0.8454
11488TIP3    H255956   2.961   4.664   6.097 -0.3786  1.0203 -0.9822
11489TIP3   OH255957   1.282   6.461   3.345  0.0402 -1.0799  0.0510
11489TIP3    H155958   1.287   6.426   3.255 -0.9922 -0.5501 -0.2148
11489TIP3    H255959   1.235   6.393   3.394 -1.5018 -0.3134 -0.3480
11490TIP3   OH255960   3.335   6.301   1.211  0.4163 -0.5017 -0.2220
11490TIP3    H155961   3.252   6.281   1.168 -0.6815 -0.0344  1.5936
11490TIP3    H255962   3.347   6.230   1.273  0.1015  0.6957  1.2497
11491TIP3   OH255963   3.381   5.292  11.126  0.4974 -0.0782 -0.5392
11491TIP3    H155964   3.323   5.271  11.200 -2.0846  0.2331 -2.4291
11491TIP3    H255965   3.438   5.215  11.119 -1.3977 -1.5603 -0.2593
11492TIP3   OH255966   6.157   6.677  12.659  0.0720 -0.0852 -0.4540
11492TIP3    H155967   6.123   6.766  12.670  0.0208  0.0164 -1.3423
11492TIP3    H255968   6.213   6.663  12.735 -0.0787  0.6363 -0.2052
11493TIP3   OH255969   2.338   1.521   5.414 -0.3135 -0.0810 -0.2498
11493TIP3    H155970   2.303   1.495   5.499 -0.1915  0.0871 -0.1478
11493TIP3    H255971   2.378   1.441   5.379  3.2658  0.7749  1.6559
11494TIP3   OH255972   5.172   1.128   0.248  0.5096 -0.4402 -0.0486
11494TIP3    H155973   5.155   1.221   0.263  3.0043  0.0127  0.1138
11494TIP3    H255974   5.181   1.120   0.153  1.4454 -0.3048  0.0269
11495TIP3   OH255975   1.344   4.587   5.089  0.4064 -0.0876 -0.2073
11495TIP3    H155976   1.390   4.623   5.013  0.5123  0.1885 -0.0112
11495TIP3    H255977   1.394   4.618   5.165  0.4470 -0.5674 -0.0321
11496TIP3   OH255978   4.060   4.685  12.289 -0.5205  0.6567  0.4080
11496TIP3    H155979   4.137   4.651  12.335  0.0456 -1.8707 -2.2522
11496TIP3    H255980   3.993   4.618  12.301 -1.1956  1.2285 -0.1600
11497TIP3   OH255981   2.633   5.202  15.142 -0.3258  0.3806  0.4787
11497TIP3    H155982   2.572   5.217  15.214 -1.1366 -0.2259 -0.0786
11497TIP3    H255983   2.688   5.281  15.140 -1.2201  1.0159  0.8553
11498TIP3   OH255984   2.558   3.634  13.695 -0.0884  0.1404 -0.1588
11498TIP3    H155985   2.566   3.689  13.773 -1.1473 -1.2102  0.9183
11498TIP3    H255986   2.481   3.668  13.649  0.5206  0.9186 -0.6249
11499TIP3   OH255987   1.847   2.185  12.124 -0.2581  0.4199 -0.4200
11499TIP3    H155988   1.856   2.194  12.029 -0.0664 -0.1565 -0.4641
11499TIP3    H255989   1.762   2.142  12.135 -0.9815  1.8708 -0.2453
11500TIP3   OH255990   1.151   1.700  16.501 -0.0642 -0.6939  0.9192
11500TIP3    H155991   1.098   1.761  16.449 -0.1025 -1.4026  0.1255
11500TIP3    H255992   1.220   1.671  16.442  2.3539  1.6074  2.4667
11501TIP3   OH255993   2.708   4.437  14.713 -0.3382 -0.0259 -0.2221
11501TIP3    H155994   2.789   4.484  14.731 -1.2018  1.1243  0.6620
11501TIP3    H255995   2.698   4.378  14.787 -0.3149 -0.1735 -0.3364
11502TIP3   OH255996   1.369   2.572  14.390  0.9058  0.0021  0.1263
11502TIP3    H155997   1.350   2.543  14.301  0.9020  0.0239  0.1206
11502TIP3    H255998   1.456   2.537  14.409  0.7146 -0.3913  0.2799
11503TIP3   OH255999   5.355   3.810  17.227 -0.5112 -0.2330  0.4504
11503TIP3    H156000   5.319   3.797  17.314 -2.7412 -2.5061 -0.7332
11503TIP3    H256001   5.434   3.754  17.225  0.6863  1.3774  1.6250
11504TIP3   OH256002   0.018   5.483  13.731  0.2709  0.0004 -0.5249
11504TIP3    H156003   0.027   5.568  13.774  2.3851 -0.4418 -0.0516
11504TIP3    H256004  -0.050   5.438  13.781  0.9840  0.4251  0.8657
11505TIP3   OH256005   1.828   1.278  15.097  0.3021 -0.4671 -0.2333
11505TIP3    H156006   1.734   1.292  15.091 -0.0466 -2.1237  1.0246
11505TIP3    H256007   1.848   1.218  15.025  0.0448 -1.6514  0.6551
11506TIP3   OH256008   2.150   3.797   2.326 -0.2787 -0.9814 -0.1053
11506TIP3    H156009   2.105   3.730   2.274 -0.3980 -1.9141  1.1783
11506TIP3    H256010   2.226   3.752   2.362  1.9061  0.6492 -2.4805
11507TIP3   OH256011   3.529   6.334  16.199  0.3068  0.8175  0.5778
11507TIP3    H156012   3.544   6.334  16.104 -2.9429 -1.1887 -0.0427
11507TIP3    H256013   3.454   6.392  16.211 -0.1744 -0.0325  1.7524
11508TIP3   OH256014   0.990   4.693   3.956  0.6550  0.3839 -0.9012
11508TIP3    H156015   0.965   4.654   3.872  1.0548 -0.3566 -0.6787
11508TIP3    H256016   1.051   4.630   3.994  0.7043  0.8637 -0.1873
11509TIP3   OH256017   6.250   4.199   0.975  0.4212 -0.3340  0.4850
11509TIP3    H156018   6.276   4.267   1.038 -0.3783  0.0556  0.4024
11509TIP3    H256019   6.247   4.244   0.891  0.4229 -0.6014  0.3417
11510TIP3   OH256020   1.625   2.040   6.000  0.1386  0.3300 -0.6232
11510TIP3    H156021   1.536   2.004   6.006  0.2607  0.1858  0.5535
11510TIP3    H256022   1.626   2.112   6.064  1.0107  0.0032 -0.2558
11511TIP3   OH256023   6.192   3.825   4.038  0.2789 -0.1871  0.6321
11511TIP3    H156024   6.234   3.763   3.979 -1.1917 -0.6703  0.0676
11511TIP3    H256025   6.194   3.782   4.124 -1.2264 -1.2843  0.1408
11512TIP3   OH256026   6.470   4.628  10.656 -0.5363 -0.0254  0.4545
11512TIP3    H156027   6.521   4.557  10.616  0.1875  0.9064 -0.2921
11512TIP3    H256028   6.528   4.664  10.723  0.5583  2.2728 -1.6705
11513TIP3   OH256029   5.084   6.795   4.117  0.9338 -0.3714 -0.3327
11513TIP3    H156030   5.039   6.876   4.093  0.2796 -0.5134  0.4162
11513TIP3    H256031   5.171   6.805   4.079  0.2197 -0.1838 -1.9713
11514TIP3   OH256032   4.053   2.838   5.271  0.1081  0.2003 -0.2064
11514TIP3    H156033   4.057   2.827   5.366  0.9575  0.0109 -0.2625
11514TIP3    H256034   3.959   2.840   5.251 -0.0750 -0.8361  0.5088
11515TIP3   OH256035   2.059   0.739  14.394 -0.7255 -0.3156  0.3930
11515TIP3    H156036   2.036   0.714  14.304  0.4858  0.9083 -0.2757
11515TIP3    H256037   1.979   0.777  14.429 -0.6440  1.1434 -0.9057
11516TIP3   OH256038   2.954   1.165  15.078 -0.3305  0.2354 -0.1032
11516TIP3    H156039   2.934   1.229  15.147 -0.7039  1.0523 -0.9574
11516TIP3    H256040   3.008   1.214  15.015  3.4609 -1.5837  1.5610
11517TIP3   OH256041   3.798   3.492   5.723 -0.1868 -0.0684  0.2438
11517TIP3    H156042   3.814   3.401   5.697  0.6583 -0.0264  0.6296
11517TIP3    H256043   3.739   3.485   5.799  1.4324 -0.3706  1.4931
11518TIP3   OH256044   0.078   5.784   1.427  0.4397 -0.2382  0.1381
11518TIP3    H156045   0.019   5.852   1.394  1.1134  0.2228 -0.1218
11518TIP3    H256046   0.025   5.704   1.426 -0.0584  0.0970 -0.4747
11519TIP3   OH256047   0.150   2.477  12.061 -0.2529  0.0745  0.4661
11519TIP3    H156048   0.085   2.547  12.068  2.1615  2.3090  1.6068
11519TIP3    H256049   0.140   2.427  12.142 -1.1114 -0.0981  0.2553
11520TIP3   OH256050   3.106   4.153  12.185 -0.0267  0.3464  0.0288
11520TIP3    H156051   3.150   4.152  12.270  0.7861  1.7293 -0.3674
11520TIP3    H256052   3.134   4.072  12.142 -2.1218 -1.4351  1.9061
11521TIP3   OH256053   5.536   5.580  17.136 -0.1200  0.1396 -0.6446
11521TIP3    H156054   5.510   5.650  17.076  2.8216  0.5222 -1.5546
11521TIP3    H256055   5.586   5.624  17.204 -1.8681 -0.5507  1.1364
11522TIP3   OH256056   5.569   5.645   3.887 -0.2362 -1.1352  0.5423
11522TIP3    H156057   5.518   5.564   3.893  0.5108 -1.6627 -0.2170
11522TIP3    H256058   5.644   5.630   3.944  0.1524 -1.1602  0.0196
11523TIP3   OH256059   6.195   4.083  16.814  0.7552 -0.3554  0.0746
11523TIP3    H156060   6.254   4.114  16.745  0.8444 -3.3430 -1.2415
11523TIP3    H256061   6.243   4.014  16.859 -0.1247  0.1174  1.8034
11524TIP3   OH256062   2.316   2.224   5.365 -0.0575 -0.1786  0.1239
11524TIP3    H156063   2.288   2.187   5.449  0.2634 -1.4726 -0.3332
11524TIP3    H256064   2.274   2.169   5.299 -1.0671  1.4103 -0.5749
11525TIP3   OH256065   0.270   1.932   5.160  0.3699  0.6264  0.4243
11525TIP3    H156066   0.318   1.909   5.240  1.9556  1.2869 -0.3032
11525TIP3    H256067   0.334   1.981   5.108 -0.4413 -0.3541 -1.5306
11526TIP3   OH256068   3.954   0.232   2.237  0.1221 -0.3402  0.6559
11526TIP3    H156069   4.024   0.197   2.292  1.5999  2.0748  0.3648
11526TIP3    H256070   3.904   0.290   2.294  0.4396  0.5946  0.0042
11527TIP3   OH256071   2.907   4.647  11.525 -0.0498 -0.2838 -0.3294
11527TIP3    H156072   2.915   4.578  11.458  0.1555 -0.8447  0.2683
11527TIP3    H256073   2.907   4.599  11.608 -1.3095  0.3328  0.0343
11528TIP3   OH256074   5.314   5.106   2.014 -0.1537  0.2203  0.4785
11528TIP3    H156075   5.344   5.088   1.925 -1.3181  0.1901  0.0737
11528TIP3    H256076   5.294   5.200   2.013  1.2070  0.5190  1.1332
11529TIP3   OH256077   1.251   0.328   5.446  0.2225 -0.2463  0.0936
11529TIP3    H156078   1.252   0.308   5.540  0.4750 -0.8567 -0.0382
11529TIP3    H256079   1.224   0.246   5.404 -0.7981  0.2841 -0.3072
11530TIP3   OH256080   3.808   4.165  16.527 -0.1353  0.4647  0.0564
11530TIP3    H156081   3.850   4.239  16.571 -0.8392  1.4612 -0.9277
11530TIP3    H256082   3.877   4.125  16.475  0.4736 -0.1416  1.3212
11531TIP3   OH256083   2.390   0.406  15.628 -0.3530 -0.6741  0.4441
11531TIP3    H156084   2.450   0.359  15.685 -0.7236 -0.5994  0.8929
11531TIP3    H256085   2.306   0.361  15.637 -0.8777  0.4638  1.3765
11532TIP3   OH256086   4.808   6.767  16.742 -0.2220 -0.2484 -0.5130
11532TIP3    H156087   4.733   6.821  16.715  0.7618  0.5179 -1.7470
11532TIP3    H256088   4.770   6.703  16.803 -1.7092  0.7562 -0.3397
11533TIP3   OH256089   6.814   4.298   3.504 -0.1488  0.6048 -0.4676
11533TIP3    H156090   6.741   4.360   3.506  1.6713  2.8107  0.0456
11533TIP3    H256091   6.783   4.222   3.553 -1.5101  2.1922  1.1894
11534TIP3   OH256092   0.931   6.816  12.721 -0.2504 -0.4770  0.2574
11534TIP3    H156093   0.991   6.870  12.669  1.3218 -2.4048  0.0073
11534TIP3    H256094   0.917   6.865  12.801  0.7187  0.5468 -0.1980
11535TIP3   OH256095   0.034   0.877  16.526 -0.5187 -0.4930  0.3918
11535TIP3    H156096   0.052   0.820  16.452  0.0585 -0.0783  0.2071
11535TIP3    H256097  -0.053   0.914  16.508  0.7907  1.7781 -1.4932
11536TIP3   OH256098   2.424   4.068  16.292  0.1867  0.2940 -0.1344
11536TIP3    H156099   2.418   4.154  16.251 -0.4733  0.8805  1.1651
11536TIP3    H256100   2.457   4.086  16.380  0.5658 -0.8343 -0.0462
11537TIP3   OH256101   0.713   1.333   0.274 -0.4955  0.5407  0.0876
11537TIP3    H156102   0.786   1.386   0.304 -0.2698  1.3103 -1.7616
11537TIP3    H256103   0.642   1.351   0.335  0.8072 -0.1324  1.8317
11538TIP3   OH256104   0.146   0.011  16.079  0.3452 -0.2448  0.2972
11538TIP3    H156105   0.081  -0.044  16.122 -0.2161  0.4190  0.3076
11538TIP3    H256106   0.172   0.075  16.145 -0.1189  0.4364 -0.1683
11539TIP3   OH256107   5.997   0.366  12.805  0.4505 -0.2174 -0.0682
11539TIP3    H156108   6.038   0.451  12.785  0.8974 -0.1146  1.2299
11539TIP3    H256109   5.903   0.382  12.794  0.5402  0.4170  0.0637
11540TIP3   OH256110   6.203   3.953  13.967 -0.5284  0.3643 -0.4163
11540TIP3    H156111   6.153   4.028  14.000  1.7307  2.3379 -1.3268
11540TIP3    H256112   6.194   3.959  13.872 -0.8700 -0.9208 -0.4685
11541TIP3   OH256113   0.387   6.376  16.884  0.3069 -0.2870 -0.5381
11541TIP3    H156114   0.451   6.446  16.867  1.0358 -0.8561 -0.1532
11541TIP3    H256115   0.331   6.375  16.806  1.2152 -0.2714 -1.1977
11542TIP3   OH256116   0.950   2.029  14.885 -0.0375  0.2853 -0.4155
11542TIP3    H156117   0.891   1.953  14.888 -0.5662  0.6861 -0.6693
11542TIP3    H256118   0.893   2.103  14.866  0.3071  0.9341  0.9928
11543TIP3   OH256119   1.494   1.246   0.221 -0.3712 -0.1024 -0.3960
11543TIP3    H156120   1.571   1.220   0.170 -1.1269  1.1827 -2.2609
11543TIP3    H256121   1.528   1.261   0.309  1.6544  1.0193 -1.3201
11544TIP3   OH256122   4.133   3.088  17.276  0.0333  0.1448 -0.2307
11544TIP3    H156123   4.179   3.015  17.234 -1.6627 -1.1796  0.1730
11544TIP3    H256124   4.164   3.166  17.229  1.3538 -0.8808 -1.1151
11545TIP3   OH256125   2.275   5.248   1.340  0.2696  0.1802 -0.2770
11545TIP3    H156126   2.358   5.225   1.380 -1.2906 -2.5211  1.5961
11545TIP3    H256127   2.242   5.166   1.303 -2.6700  0.6050  1.2240
11546TIP3   OH256128   3.606   4.216   3.194  0.3363  0.7542 -0.0836
11546TIP3    H156129   3.544   4.227   3.266  0.8579  0.2212  0.4543
11546TIP3    H256130   3.634   4.124   3.200  0.2549  0.6555 -1.0718
11547TIP3   OH256131   5.712   5.282  13.682 -0.2840  0.5241 -0.0224
11547TIP3    H156132   5.733   5.329  13.602 -2.4616 -1.9451 -2.1656
11547TIP3    H256133   5.770   5.206  13.680 -1.4199 -0.3643 -0.1333
11548TIP3   OH256134   2.624   2.830   4.230  0.2245 -0.0997  0.2835
11548TIP3    H156135   2.701   2.806   4.179 -0.8779 -0.9874 -1.0136
11548TIP3    H256136   2.629   2.775   4.308  1.3457  0.4681  0.6229
11549TIP3   OH256137   0.543   5.983   2.849 -0.1489 -0.0495 -0.9534
11549TIP3    H156138   0.508   5.911   2.797 -1.1575 -0.8718  0.7936
11549TIP3    H256139   0.637   5.984   2.829 -0.5010 -0.3932 -2.6886
11550TIP3   OH256140   4.745   2.120   6.061  0.3184  0.0913  0.0356
11550TIP3    H156141   4.805   2.147   6.131  0.0634  0.7865 -0.0114
11550TIP3    H256142   4.658   2.141   6.095  0.3423  3.3676 -1.7296
11551TIP3   OH256143   1.421   5.030  11.466 -0.2173  0.8408 -0.4978
11551TIP3    H156144   1.449   4.951  11.419  0.3467  0.5024  0.4009
11551TIP3    H256145   1.452   5.017  11.555  2.0692  3.1899 -0.9067
11552TIP3   OH256146   4.005   4.929  11.326 -0.0247  0.3178 -0.7250
11552TIP3    H156147   4.015   4.999  11.261  1.9219  2.0137  1.3172
11552TIP3    H256148   3.930   4.957  11.379 -0.1066  0.1505 -0.7522
11553TIP3   OH256149   0.610   5.982  13.861  0.0778 -0.7910  0.0359
11553TIP3    H156150   0.643   5.920  13.796 -0.7190 -1.3885  0.1912
11553TIP3    H256151   0.633   6.068  13.827  2.3842 -1.2157  0.4731
11554TIP3   OH256152   5.853   5.269  15.923 -0.3243 -0.2418 -0.1259
11554TIP3    H156153   5.910   5.256  15.998  2.4527  1.9909 -1.7745
11554TIP3    H256154   5.899   5.227  15.850 -1.8927 -0.3988 -1.0437
11555TIP3   OH256155   4.092   5.376  14.779  0.5240  0.6103 -0.4740
11555TIP3    H156156   4.046   5.436  14.837  1.2165 -0.9376  1.7641
11555TIP3    H256157   4.100   5.295  14.830  1.9976 -0.5037 -2.3877
11556TIP3   OH256158   3.044   6.162   2.337  0.5090 -0.0298 -0.0430
11556TIP3    H156159   2.987   6.164   2.260  0.7224  1.6372 -0.1677
11556TIP3    H256160   3.015   6.235   2.391  2.3016  0.6527  0.0389
11557TIP3   OH256161   1.893   2.190   2.536  0.1627  0.4740  0.0476
11557TIP3    H156162   1.966   2.130   2.554  1.2146  1.8092  0.3854
11557TIP3    H256163   1.815   2.136   2.541  1.0593 -0.7759  0.7886
11558TIP3   OH256164   4.549   4.052   3.898  0.0655  0.3112 -0.1034
11558TIP3    H156165   4.638   4.088   3.896  0.0129  0.4589  0.3168
11558TIP3    H256166   4.547   3.991   3.824  0.5666  0.1958 -0.0246
11559TIP3   OH256167   2.232   3.704  12.698 -0.1131  0.1376 -0.0089
11559TIP3    H156168   2.237   3.640  12.627  0.9172  1.0391 -0.7662
11559TIP3    H256169   2.161   3.762  12.673 -1.1237 -0.7398  0.7340
11560TIP3   OH256170   6.138   2.309   3.813 -0.4895  0.1075  0.2239
11560TIP3    H156171   6.210   2.259   3.776 -0.4350 -0.9388  1.6929
11560TIP3    H256172   6.180   2.372   3.871 -0.7933 -1.3887  2.1128
11561TIP3   OH256173   0.562   6.011   5.521 -0.7942 -0.6304 -0.1692
11561TIP3    H156174   0.652   6.033   5.496 -1.1251  0.5747 -0.3670
11561TIP3    H256175   0.539   5.937   5.466 -0.1295 -0.5598 -0.5514
11562TIP3   OH256176   2.508   3.135   2.124  0.1477 -0.0564  0.3699
11562TIP3    H156177   2.588   3.082   2.130 -0.2295 -0.6333  0.3110
11562TIP3    H256178   2.534   3.211   2.072  0.4209 -0.6924 -0.4398
11563TIP3   OH256179   0.290   6.103  11.720 -0.1600 -0.5473  0.4239
11563TIP3    H156180   0.317   6.062  11.637 -2.0883 -1.6376  0.3141
11563TIP3    H256181   0.234   6.038  11.762 -0.1759  0.4856  2.0339
11564TIP3   OH256182   3.692   1.052   3.793  0.6455 -0.1695 -0.0071
11564TIP3    H156183   3.756   1.081   3.728  1.2860 -1.2975  0.1083
11564TIP3    H256184   3.744   1.016   3.864 -0.1274 -1.8567 -0.2770
11565TIP3   OH256185   2.867   2.274  15.725 -0.2137 -0.6027  0.5413
11565TIP3    H156186   2.927   2.275  15.651  2.6126 -1.0596  2.7661
11565TIP3    H256187   2.791   2.225  15.692  0.8306 -0.5373 -2.1379
11566TIP3   OH256188   4.855   2.974  11.510 -0.5156 -0.6784 -0.5913
11566TIP3    H156189   4.872   2.889  11.470  1.8386 -1.2508  1.5450
11566TIP3    H256190   4.893   3.037  11.448  1.8062 -1.4669  0.0004
11567TIP3   OH256191   2.712   1.401  17.277  0.0437  0.2919 -0.3810
11567TIP3    H156192   2.775   1.343  17.319 -0.3285  0.7135  0.7844
11567TIP3    H256193   2.680   1.458  17.348 -0.7550  0.8734 -1.1873
11568TIP3   OH256194   1.756   2.433   4.233 -0.2281  0.0210 -0.4813
11568TIP3    H156195   1.814   2.357   4.232  0.0000  0.2160 -1.9468
11568TIP3    H256196   1.694   2.417   4.162 -1.4467  0.2384  0.5044
11569TIP3   OH256197   2.904   4.236   4.306  0.1620  0.0867 -0.0817
11569TIP3    H156198   2.847   4.160   4.311 -0.1234  0.3522  0.7710
11569TIP3    H256199   2.981   4.213   4.358 -1.2531  1.5069  2.7677
11570TIP3   OH256200   3.078   1.666   1.582 -0.3327 -0.6137 -0.4917
11570TIP3    H156201   3.163   1.691   1.618  0.2640 -3.3827  0.0897
11570TIP3    H256202   3.098   1.598   1.517 -2.0606 -1.0374 -0.6081
11571TIP3   OH256203   0.989   5.048  13.748 -0.2753  0.1564  0.6590
11571TIP3    H156204   0.896   5.072  13.754 -0.1877  1.1758 -1.4700
11571TIP3    H256205   0.989   4.953  13.752 -1.4229  0.1449  0.6441
11572TIP3   OH256206   6.337   5.278  16.325  0.1285  0.4390 -0.0240
11572TIP3    H156207   6.272   5.212  16.351  0.6463 -0.3003 -0.5987
11572TIP3    H256208   6.367   5.315  16.408 -1.0867  0.8376  0.2468
11573TIP3   OH256209   3.307   3.460  13.383 -0.2291  0.0563 -0.1420
11573TIP3    H156210   3.236   3.520  13.406 -1.4479 -0.8449 -1.4533
11573TIP3    H256211   3.293   3.384  13.441  0.3634  0.3564  0.4016
11574TIP3   OH256212   0.669   2.445  11.647 -0.6815 -0.2090 -0.5993
11574TIP3    H156213   0.616   2.522  11.670 -0.3664 -0.1419 -0.0989
11574TIP3    H256214   0.712   2.470  11.565 -0.2148  0.3339 -0.1975
11575TIP3   OH256215   4.383   1.412  11.179 -0.3169  0.1412 -0.0786
11575TIP3    H156216   4.305   1.359  11.193  0.2321 -0.4516  0.8002
11575TIP3    H256217   4.361   1.469  11.106 -1.4757 -0.2096 -0.0072
11576TIP3   OH256218   0.253   2.808   1.374 -0.2520  0.7773  0.5371
11576TIP3    H156219   0.327   2.749   1.386 -0.1811  0.8837  0.6233
11576TIP3    H256220   0.227   2.834   1.462  0.9772  2.4332  0.4486
11577TIP3   OH256221   3.472   3.424  14.624 -0.1746  0.0158  0.2771
11577TIP3    H156222   3.563   3.420  14.653  0.1973  1.2948 -0.6542
11577TIP3    H256223   3.424   3.374  14.690  1.2039 -0.7532  0.7319
11578TIP3   OH256224   0.105   0.019  11.656 -0.0408  0.5147 -0.7155
11578TIP3    H156225   0.060   0.035  11.573 -2.2739  0.9420  0.5180
11578TIP3    H256226   0.151   0.100  11.675 -1.6982  1.3892 -0.2749
11579TIP3   OH256227   1.824   0.262   4.330 -0.0335  0.7238 -0.2241
11579TIP3    H156228   1.813   0.201   4.257  0.3000  0.5381 -0.1216
11579TIP3    H256229   1.819   0.207   4.408  1.4097  0.6502 -0.1652
11580TIP3   OH256230   1.887   6.685   0.244  0.3158 -0.0833  0.4711
11580TIP3    H156231   1.876   6.726   0.158  3.0388  1.1797  0.6730
11580TIP3    H256232   1.901   6.758   0.303  2.1968 -1.1214  1.3527
11581TIP3   OH256233   4.981   3.663  11.708  0.1339 -0.3668 -0.4123
11581TIP3    H156234   5.024   3.743  11.736 -0.7594 -0.5189  1.4873
11581TIP3    H256235   5.036   3.592  11.743  0.1560 -0.5692 -0.8589
11582TIP3   OH256236   4.197   5.486   5.485 -0.6130 -0.2597 -0.3252
11582TIP3    H156237   4.217   5.574   5.516  0.1301 -0.5508  0.0564
11582TIP3    H256238   4.275   5.460   5.435 -1.3010 -0.2657 -1.4047
11583TIP3   OH256239   5.287   0.437   3.809 -0.3415  0.1398  0.1937
11583TIP3    H156240   5.354   0.384   3.852 -0.3610 -0.7368 -0.8488
11583TIP3    H256241   5.298   0.525   3.847  1.6324  0.0910 -0.2284
11584TIP3   OH256242   1.455   5.184   1.785 -0.2311  0.0896 -0.0200
11584TIP3    H156243   1.439   5.243   1.858  1.2387 -0.0569  0.4302
11584TIP3    H256244   1.445   5.240   1.707  2.8377  1.3875  0.4476
11585TIP3   OH256245   4.665   6.378  14.003  0.0858  0.3226 -0.2401
11585TIP3    H156246   4.700   6.467  14.005 -1.4131  0.9460 -0.7612
11585TIP3    H256247   4.725   6.327  14.057  2.2772  1.1583 -1.8459
11586TIP3   OH256248   6.387   4.139  14.767 -0.1448 -0.1050  0.6807
11586TIP3    H156249   6.363   4.087  14.690 -0.4014 -0.3774  0.9434
11586TIP3    H256250   6.387   4.076  14.839  1.3961 -0.1154  0.6852
11587TIP3   OH256251   5.148   2.181   3.160 -0.9749 -0.1293  0.3629
11587TIP3    H156252   5.100   2.230   3.227  1.3332  2.4404  0.2272
11587TIP3    H256253   5.185   2.248   3.103  0.0761 -2.1629 -1.4067
11588TIP3   OH256254   5.155   1.214  17.115  0.1031  0.8594 -0.2283
11588TIP3    H156255   5.069   1.250  17.094 -0.9036 -1.3181 -0.0004
11588TIP3    H256256   5.153   1.125  17.079  2.1471  0.6748  0.0575
11589TIP3   OH256257   2.427   0.290  17.124 -0.0191  0.4201 -0.0027
11589TIP3    H156258   2.507   0.340  17.114  0.7216 -0.7929 -0.2508
11589TIP3    H256259   2.454   0.199  17.113 -1.7483  0.1234 -2.0216
11590TIP3   OH256260   2.454   5.513   1.333 -0.3850  0.9773 -0.8318
11590TIP3    H156261   2.451   5.494   1.240 -0.5981  0.1586 -0.6644
11590TIP3    H256262   2.501   5.438   1.371 -3.2987 -0.4351  0.1449
11591TIP3   OH256263   0.958   0.960  16.152 -0.6281 -0.4554  0.2547
11591TIP3    H156264   1.031   0.902  16.130 -0.4764 -0.9364  1.8980
11591TIP3    H256265   0.889   0.935  16.091  0.0738 -1.0556 -0.3158
11592TIP3   OH256266   2.177   6.268   6.205 -0.8590  0.4132 -0.2331
11592TIP3    H156267   2.101   6.265   6.263 -1.4021 -2.8132 -1.0467
11592TIP3    H256268   2.250   6.290   6.263 -1.9582  0.8401  1.0120
11593TIP3   OH256269   6.567   2.411   3.857 -0.3236 -0.0778  0.8399
11593TIP3    H156270   6.539   2.337   3.910  0.5351 -0.3570  0.9087
11593TIP3    H256271   6.590   2.479   3.920 -0.2149 -0.0798  0.8029
11594TIP3   OH256272   0.561   2.824  16.037  0.0454 -0.9173 -0.1221
11594TIP3    H156273   0.491   2.882  16.007 -0.3477 -0.9955  0.6302
11594TIP3    H256274   0.596   2.785  15.957 -0.1503 -0.1636 -0.5732
11595TIP3   OH256275   6.618   4.666  15.980 -0.2846 -0.3343  0.2217
11595TIP3    H156276   6.706   4.629  15.988 -0.5836 -0.6772  2.1944
11595TIP3    H256277   6.587   4.637  15.894  1.6697  0.1259 -0.6548
11596TIP3   OH256278   1.257   4.089   5.617  0.6889 -0.0974 -0.0643
11596TIP3    H156279   1.220   4.001   5.615  0.0628  0.1828 -1.2715
11596TIP3    H256280   1.203   4.137   5.680  0.6789 -0.4308  0.1770
11597TIP3   OH256281   5.917   2.798  15.325  0.3435  0.4251 -0.1898
11597TIP3    H156282   5.998   2.829  15.285  0.4368 -0.4663 -0.7159
11597TIP3    H256283   5.848   2.850  15.284  0.3698 -0.9576 -2.0775
11598TIP3   OH256284   1.732   2.783  14.066 -0.5214  0.5851 -0.8581
11598TIP3    H156285   1.809   2.806  14.014 -0.0952  0.8254 -0.1270
11598TIP3    H256286   1.695   2.708  14.021 -0.2108  0.8514 -1.5675
11599TIP3   OH256287   0.274   4.888   2.840  0.2555 -0.1269 -0.5448
11599TIP3    H156288   0.264   4.922   2.751 -0.2909 -0.7974 -0.7432
11599TIP3    H256289   0.191   4.908   2.883 -0.1221 -1.3599 -0.7116
11600TIP3   OH256290   0.188   6.217  16.330  0.1402  0.1969  0.0691
11600TIP3    H156291   0.174   6.182  16.243  0.9731 -0.5327  0.2297
11600TIP3    H256292   0.104   6.205  16.375  0.7507 -2.7243  0.5213
11601TIP3   OH256293   4.319   6.694  14.488  0.3000 -0.0623  0.4617
11601TIP3    H156294   4.355   6.672  14.402  1.1235  4.3695 -0.4365
11601TIP3    H256295   4.233   6.653  14.489  1.5247 -2.8809 -1.1188
11602TIP3   OH256296   3.010   2.937  11.899 -0.6180  0.1979 -0.1940
11602TIP3    H156297   2.942   2.932  11.966  0.3928 -0.8557  0.7766
11602TIP3    H256298   2.978   2.880  11.829 -1.0276  0.1826  0.0014
11603TIP3   OH256299   1.188   4.764  13.464 -0.0454  0.3950  0.2132
11603TIP3    H156300   1.276   4.733  13.445 -0.0020  0.1718  0.7704
11603TIP3    H256301   1.178   4.843  13.411  0.6015  0.5960  0.3915
11604TIP3   OH256302   4.925   3.132   4.480 -0.6611 -0.3076  0.4338
11604TIP3    H156303   4.964   3.067   4.421  0.9060 -1.7963  3.0118
11604TIP3    H256304   4.848   3.088   4.516  0.5830 -0.8707  2.4300
11605TIP3   OH256305   6.217   5.733  14.890 -0.1123  0.0208 -0.0167
11605TIP3    H156306   6.305   5.758  14.920  0.5274 -2.3001  0.1145
11605TIP3    H256307   6.160   5.758  14.962  0.1759  3.1689 -0.8171
11606TIP3   OH256308   5.280   5.995  14.503 -0.3098 -0.1312 -0.3454
11606TIP3    H156309   5.370   5.998  14.535  0.6373  2.2008 -3.0954
11606TIP3    H256310   5.283   5.935  14.429 -0.5797  1.4538 -1.6596
11607TIP3   OH256311   6.489   0.220  11.843 -0.1335 -0.3449 -0.0816
11607TIP3    H156312   6.446   0.200  11.760 -0.1356 -0.4146 -0.0627
11607TIP3    H256313   6.445   0.164  11.907  0.9553 -1.4650 -0.3077
11608TIP3   OH256314   2.239   1.274   2.331  0.2672 -0.5111  0.5072
11608TIP3    H156315   2.255   1.296   2.423  1.8617  0.2942  0.0524
11608TIP3    H256316   2.326   1.253   2.296 -0.3612 -1.0465 -0.7606
11609TIP3   OH256317   4.507   1.069   5.781 -0.0465 -0.1282 -0.6062
11609TIP3    H156318   4.559   1.134   5.829  3.9174 -2.7951 -1.1511
11609TIP3    H256319   4.472   1.011   5.849  0.7793 -0.5191 -0.5167
11610TIP3   OH256320   6.317   2.580  10.885  0.0633 -0.5280 -0.5587
11610TIP3    H156321   6.267   2.503  10.910  0.1864 -0.0999  1.0205
11610TIP3    H256322   6.345   2.619  10.967  1.2446  0.3940 -1.3719
11611TIP3   OH256323   1.816   2.566   3.958  0.2132 -0.2118  0.3605
11611TIP3    H156324   1.817   2.561   3.863  0.3798 -1.9185  0.4372
11611TIP3    H256325   1.908   2.577   3.982  0.2875 -0.8131  0.3629
11612TIP3   OH256326   4.412   0.799   1.272 -0.1263 -0.3742  0.3513
11612TIP3    H156327   4.350   0.857   1.317 -0.3007 -0.0963 -0.2459
11612TIP3    H256328   4.362   0.762   1.199  0.1528 -0.8382  0.3942
11613TIP3   OH256329   4.245   6.101  12.701  0.0091  0.1345  0.6193
11613TIP3    H156330   4.171   6.117  12.642 -1.0496 -0.3835  1.7884
11613TIP3    H256331   4.322   6.126  12.650 -0.9354  0.2588 -0.7744
11614TIP3   OH256332   6.718   0.968  17.243 -0.6700  0.2629  0.0614
11614TIP3    H156333   6.689   0.921  17.321  0.1548 -1.0176 -0.3813
11614TIP3    H256334   6.654   0.946  17.176 -0.5677  0.1633 -0.0076
11615TIP3   OH256335   5.162   4.651   2.272 -0.3477 -0.1066 -0.1102
11615TIP3    H156336   5.111   4.586   2.223  1.4098 -1.3472 -0.3758
11615TIP3    H256337   5.155   4.731   2.220 -3.2254  0.1770  0.6489
11616TIP3   OH256338   2.812   1.741   1.547 -0.9851  0.1445 -0.4604
11616TIP3    H156339   2.901   1.719   1.519 -0.1407  1.2105  1.2776
11616TIP3    H256340   2.768   1.769   1.467  0.3803  0.0721 -1.2550
11617TIP3   OH256341   6.457   6.601   6.188 -0.1226 -0.3447  0.4139
11617TIP3    H156342   6.536   6.625   6.235  0.3557  1.5580 -1.2979
11617TIP3    H256343   6.488   6.552   6.112 -0.4239  1.9296 -1.2162
11618TIP3   OH256344   3.115   2.377  11.903  0.1078 -0.3700  0.3113
11618TIP3    H156345   3.113   2.446  11.969 -0.4964 -1.1943  1.1752
11618TIP3    H256346   3.130   2.423  11.820  3.5516  0.4279  1.3055
11619TIP3   OH256347   6.704   0.144  11.443 -0.0085 -0.0832  0.1558
11619TIP3    H156348   6.777   0.146  11.381 -2.1793 -2.1280 -2.5935
11619TIP3    H256349   6.689   0.236  11.465  0.8625  0.7047 -2.3504
11620TIP3   OH256350   4.923   5.865   4.247 -0.6581  0.3860  0.2618
11620TIP3    H156351   4.842   5.901   4.284 -1.2465  1.9043 -2.3680
11620TIP3    H256352   4.982   5.940   4.241  0.0438 -0.2065 -0.2314
11621TIP3   OH256353   6.417   1.148   1.154  0.1144 -0.2970  0.3507
11621TIP3    H156354   6.446   1.141   1.245 -0.4195  0.7041  0.5970
11621TIP3    H256355   6.440   1.237   1.128  2.5825 -1.3549 -1.3126
11622TIP3   OH256356   1.453   2.892   5.751 -0.3346 -0.1085 -0.3374
11622TIP3    H156357   1.407   2.942   5.818 -0.7068 -0.8153 -0.0493
11622TIP3    H256358   1.501   2.957   5.701 -0.1840  0.4482  0.5122
11623TIP3   OH256359   3.894   5.686  14.595 -0.4090 -0.2680  0.4731
11623TIP3    H156360   3.798   5.680  14.599 -0.3920  0.0429  1.5727
11623TIP3    H256361   3.921   5.607  14.549 -1.3290  0.6819 -1.7786
11624TIP3   OH256362   4.337   2.821   3.977 -0.5194  0.4254 -0.5114
11624TIP3    H156363   4.329   2.888   3.909 -0.5218  0.3038 -0.6311
11624TIP3    H256364   4.254   2.827   4.025  1.1108  3.4228  2.1787
11625TIP3   OH256365   6.387   6.134  12.742  0.8497  1.0318 -0.1708
11625TIP3    H156366   6.353   6.044  12.749 -1.0230  1.8205  1.2767
11625TIP3    H256367   6.403   6.146  12.649  1.1328 -0.8037 -0.3926
11626TIP3   OH256368   0.433   6.551  11.902  0.1903  0.2156  0.4735
11626TIP3    H156369   0.432   6.464  11.861  0.8437 -0.4320  1.8079
11626TIP3    H256370   0.370   6.602  11.851  0.8444 -0.6244 -1.1987
11627TIP3   OH256371   2.488   4.476   1.586  0.4539  0.7647 -0.2131
11627TIP3    H156372   2.554   4.520   1.531  0.5750 -0.3212 -0.9473
11627TIP3    H256373   2.497   4.384   1.565 -1.0247  0.5635 -0.0011
11628TIP3   OH256374   6.340   1.451  12.391  0.0101  0.2362 -0.3234
11628TIP3    H156375   6.373   1.382  12.333  0.3914  0.9641 -0.9735
11628TIP3    H256376   6.410   1.463  12.456  1.1511  1.9406 -1.8364
11629TIP3   OH256377   3.179   3.334  16.143  0.0310 -0.1645 -0.4429
11629TIP3    H156378   3.226   3.250  16.140  1.9315  0.8103  1.0711
11629TIP3    H256379   3.248   3.400  16.138 -1.0473  1.3078  2.5775
11630TIP3   OH256380   1.967   4.429   2.776  0.0416 -0.0492 -0.4267
11630TIP3    H156381   1.913   4.476   2.839 -0.6755 -2.6072  0.9444
11630TIP3    H256382   2.056   4.460   2.791 -0.5701  1.6429 -0.2969
11631TIP3   OH256383   5.974   3.225  15.319 -0.0854 -1.0578 -0.2061
11631TIP3    H156384   6.055   3.274  15.335 -0.5310 -0.3740  0.0159
11631TIP3    H256385   5.984   3.145  15.370  1.0964 -1.6863 -1.4051
11632TIP3   OH256386   0.945   5.991   0.510  0.0451 -0.4647 -0.4300
11632TIP3    H156387   0.889   6.050   0.560  1.0344  1.2069 -1.2710
11632TIP3    H256388   0.964   5.919   0.570 -0.9661  0.1926  0.6944
11633TIP3   OH256389   1.994   1.186  14.334 -0.2892  0.0783  0.1512
11633TIP3    H156390   1.927   1.249  14.306 -0.0220  0.2117 -0.1972
11633TIP3    H256391   2.068   1.203  14.276  1.4022  2.4243  2.8720
11634TIP3   OH256392   4.286   5.426  12.925 -0.7539 -0.1802  0.2761
11634TIP3    H156393   4.257   5.495  12.865 -1.1331  0.5702  1.3143
11634TIP3    H256394   4.364   5.462  12.967 -0.8282 -0.4701  0.6645
11635TIP3   OH256395   2.911   1.736  15.593  0.1916  0.6988 -0.2001
11635TIP3    H156396   2.939   1.800  15.658  3.8191  0.3292 -1.3018
11635TIP3    H256397   2.928   1.778  15.509 -2.2834  0.2612 -0.9572
11636TIP3   OH256398   6.037   4.431   3.868 -0.3938  0.1687 -0.0495
11636TIP3    H156399   6.106   4.446   3.803  0.0912  0.3747  0.5061
11636TIP3    H256400   6.023   4.336   3.867  1.4545 -0.1543  1.3978
11637TIP3   OH256401   3.148   4.807  15.747 -0.4468 -0.1119 -0.1079
11637TIP3    H156402   3.139   4.712  15.744  0.7036 -0.1990 -2.8637
11637TIP3    H256403   3.239   4.823  15.720 -0.5529  1.7460  0.5821
11638TIP3   OH256404   3.999   0.604  11.205  0.5287  0.2800 -0.4877
11638TIP3    H156405   3.986   0.510  11.213  2.4163 -0.1867 -2.5080
11638TIP3    H256406   3.917   0.642  11.237 -0.6777 -2.0651 -0.6809
11639TIP3   OH256407   1.361   6.271  15.806 -0.4099  0.0730 -0.4042
11639TIP3    H156408   1.342   6.257  15.899  0.1303  0.5115 -0.2295
11639TIP3    H256409   1.427   6.205  15.785  0.8101  1.1590 -0.0219
11640TIP3   OH256410   5.107   2.463   1.618  0.0834  0.6757 -0.0148
11640TIP3    H156411   5.021   2.433   1.588  0.3743 -0.3050  0.1364
11640TIP3    H256412   5.132   2.530   1.554 -1.5018  2.1483  0.8437
11641TIP3   OH256413   6.640   4.486  14.758  0.2615  0.1949  0.2069
11641TIP3    H156414   6.710   4.551  14.762 -0.2126  0.7509 -0.5065
11641TIP3    H256415   6.625   4.461  14.850  1.1879  0.2869  0.3861
11642TIP3   OH256416   6.041   6.197   6.166  0.6053  0.0366 -0.4919
11642TIP3    H156417   6.009   6.164   6.250  0.5459 -0.6690 -0.7888
11642TIP3    H256418   6.045   6.120   6.109  2.7179  0.1355 -0.5124
11643TIP3   OH256419   2.151   1.458  14.354  0.3749 -0.1117  0.6022
11643TIP3    H156420   2.230   1.510  14.342  0.6589 -0.2006  1.9620
11643TIP3    H256421   2.135   1.417  14.269  1.5264  0.2814  0.1933
11644TIP3   OH256422   2.547   4.274  12.846  0.1694 -0.3949 -0.3329
11644TIP3    H156423   2.571   4.366  12.862 -1.6405 -0.0271  0.3243
11644TIP3    H256424   2.541   4.235  12.933  0.1943 -0.9669 -0.5835
11645TIP3   OH256425   4.269   1.522   1.648  0.1071 -0.3427 -0.5174
11645TIP3    H156426   4.330   1.519   1.722  0.0885  0.4336 -0.4611
11645TIP3    H256427   4.184   1.498   1.686 -0.0481  0.7674 -0.1132
11646TIP3   OH256428   3.858   6.223   5.067 -0.1421  0.1540 -0.9772
11646TIP3    H156429   3.834   6.143   5.114 -0.4738  0.2426 -0.9946
11646TIP3    H256430   3.837   6.294   5.129 -0.6946  0.2779 -1.3024
11647TIP3   OH256431   3.603   5.604   2.981  0.0792  0.7480 -0.2179
11647TIP3    H156432   3.507   5.601   2.975  0.1389 -0.4092 -0.8092
11647TIP3    H256433   3.630   5.512   2.971  1.2164  0.9936  0.5262
11648TIP3   OH256434   3.274   4.769   5.974  0.0029 -0.7721  0.5522
11648TIP3    H156435   3.189   4.753   6.015 -0.2741 -1.6102 -0.3443
11648TIP3    H256436   3.272   4.862   5.951 -1.0801 -1.0258 -0.4017
11649TIP3   OH256437   6.516   6.390  15.767  0.0390  0.1129  0.4745
11649TIP3    H156438   6.493   6.408  15.676  1.0028 -0.0970  0.1834
11649TIP3    H256439   6.524   6.476  15.808  3.0716  0.3644 -0.5179
11650TIP3   OH256440   3.784   4.726  16.760  0.4103 -0.6395 -0.3703
11650TIP3    H156441   3.779   4.816  16.790  1.3072  0.0213 -2.1408
11650TIP3    H256442   3.703   4.685  16.792 -0.2440  0.9112 -0.0210
11651TIP3   OH256443   3.881   0.653  14.441 -0.1231 -0.5184 -0.3922
11651TIP3    H156444   3.939   0.649  14.516 -0.5519 -0.7895 -0.0716
11651TIP3    H256445   3.863   0.746  14.429  0.2011 -0.4513 -0.3582
11652TIP3   OH256446   6.267   5.889  12.064  0.3491  0.2776 -0.5024
11652TIP3    H156447   6.322   5.918  11.991  0.0651  0.1551 -0.7603
11652TIP3    H256448   6.207   5.826  12.026  0.6170 -0.2611 -0.0361
11653TIP3   OH256449   4.523   6.649   3.444 -0.1935  0.0865  0.7104
11653TIP3    H156450   4.539   6.636   3.538  0.5089 -0.0295  0.5773
11653TIP3    H256451   4.577   6.724   3.421 -0.8480  0.5062  0.5272
11654TIP3   OH256452   5.518   6.056  15.630 -0.4233 -0.1315 -0.5045
11654TIP3    H156453   5.533   6.143  15.593  0.2613 -0.5454 -1.2143
11654TIP3    H256454   5.534   5.996  15.557 -1.7334 -0.8045 -0.2546
11655TIP3   OH256455   1.790   6.627  16.824  0.5676 -0.1931  0.1475
11655TIP3    H156456   1.796   6.601  16.917  1.6063  0.7987  0.3682
11655TIP3    H256457   1.812   6.547  16.776  3.0324  0.0463  0.8191
11656TIP3   OH256458   2.196   3.108  13.297  0.2052  0.4590  0.3406
11656TIP3    H156459   2.232   3.086  13.383  1.8809 -1.8082 -0.8816
11656TIP3    H256460   2.256   3.173  13.261  0.3384  0.3028  0.2806
11657TIP3   OH256461   0.386   4.778   2.540 -0.1207 -0.3928  0.0903
11657TIP3    H156462   0.417   4.702   2.491  0.8262 -0.6304  1.0376
11657TIP3    H256463   0.460   4.805   2.594 -1.0623 -0.0163  1.2437
11658TIP3   OH256464   4.317   5.049  15.628 -0.4306  0.0465  0.2309
11658TIP3    H156465   4.335   4.984  15.560 -0.4410  0.1393  0.1398
11658TIP3    H256466   4.292   5.128  15.580  0.1953  0.3045  0.3191
11659TIP3   OH256467   3.120   1.659  15.173  0.0006  0.5163  0.4680
11659TIP3    H156468   3.046   1.659  15.111 -0.6047 -0.3952  1.1817
11659TIP3    H256469   3.152   1.569  15.172  1.2304  0.9465  0.0373
11660TIP3   OH256470   2.223   1.884  13.705  0.2732  0.6371 -0.5148
11660TIP3    H156471   2.159   1.833  13.655  0.5273 -2.0491  1.7970
11660TIP3    H256472   2.306   1.865  13.663  0.1529  0.4559 -0.6733
11661TIP3   OH256473   4.643   1.642  11.089  0.2899 -0.5551 -0.0247
11661TIP3    H156474   4.610   1.721  11.047  0.7835 -0.5857 -0.4810
11661TIP3    H256475   4.675   1.587  11.017 -3.4578 -2.8327 -0.0738
11662TIP3   OH256476   1.284   1.090  14.227  0.1255 -0.8798 -0.1659
11662TIP3    H156477   1.254   1.071  14.138 -1.6106  2.3889 -0.3467
11662TIP3    H256478   1.261   1.012  14.277 -0.6410 -1.9885 -2.1755
11663TIP3   OH256479   0.746   6.277   5.378 -0.4413  0.8981 -0.0798
11663TIP3    H156480   0.794   6.284   5.460 -1.3480 -0.8808  0.6384
11663TIP3    H256481   0.812   6.253   5.313  0.1877  1.7685  0.2350
11664TIP3   OH256482   5.461   1.023  10.709 -0.1321 -0.0412 -0.7181
11664TIP3    H156483   5.383   1.018  10.654  0.4744 -0.2121 -1.5842
11664TIP3    H256484   5.530   1.055  10.650  0.8694 -1.5893 -0.4440
11665TIP3   OH256485   6.292   0.398   4.279 -0.4818 -0.5185 -0.0522
11665TIP3    H156486   6.358   0.413   4.346 -0.8017  0.2318  0.1073
11665TIP3    H256487   6.312   0.312   4.243 -0.1101 -0.7843  0.7844
11666TIP3   OH256488   1.988   1.821   5.149  0.5760 -0.5791  0.2350
11666TIP3    H156489   1.907   1.865   5.124  0.4487 -0.8397  0.1834
11666TIP3    H256490   1.962   1.755   5.213  0.7571 -0.6150  0.2747
11667TIP3   OH256491   5.224   5.706   3.977  0.0200  1.1290  0.2824
11667TIP3    H156492   5.153   5.665   4.026 -0.5036  1.2499 -0.3598
11667TIP3    H256493   5.264   5.767   4.039  0.0613  0.4944  0.8848
11668TIP3   OH256494   3.941   5.699   3.223 -0.0820 -0.2759 -0.1672
11668TIP3    H156495   3.916   5.774   3.168 -0.7668 -0.5800 -0.2683
11668TIP3    H256496   4.008   5.735   3.282 -1.7857  0.9248  1.0844
11669TIP3   OH256497   4.946   4.955  10.663  0.1453 -0.0432 -0.4348
11669TIP3    H156498   5.030   4.914  10.643  0.6174  0.8828 -0.3802
11669TIP3    H256499   4.922   5.003  10.584 -0.2568 -0.1716 -0.3935
11670TIP3   OH256500   5.185   5.052  13.408 -0.0179  0.1665  0.7868
11670TIP3    H156501   5.197   5.038  13.314  0.0824 -1.0039  0.9657
11670TIP3    H256502   5.272   5.077  13.440 -0.0933  0.7552  0.5408
11671TIP3   OH256503   2.228   6.538  17.146 -1.1273 -0.3852 -0.0835
11671TIP3    H156504   2.220   6.515  17.238 -0.5304 -0.4980 -0.0593
11671TIP3    H256505   2.214   6.633  17.144  3.7339  0.5160  0.7910
11672TIP3   OH256506   3.663   5.403   6.015  0.4592  1.0105  0.5039
11672TIP3    H156507   3.672   5.343   5.941 -1.1175 -0.3856  1.4074
11672TIP3    H256508   3.683   5.351   6.092 -1.7458  1.3766  1.3784
11673TIP3   OH256509   6.484   0.344   4.497  0.1310 -0.5055  0.0013
11673TIP3    H156510   6.547   0.320   4.429  0.2007  0.7810 -0.4165
11673TIP3    H256511   6.499   0.438   4.511 -2.4793  0.1040 -0.9669
11674TIP3   OH256512   0.994   3.716  12.884 -0.5304  0.3226 -0.1653
11674TIP3    H156513   1.035   3.786  12.832 -0.8732 -0.5403 -1.6270
11674TIP3    H256514   1.048   3.639  12.865 -0.8960 -0.0903  0.4794
11675TIP3   OH256515   4.205   6.358  10.822  0.3970  0.4287 -0.1386
11675TIP3    H156516   4.189   6.324  10.734  3.5208  1.0267 -0.9778
11675TIP3    H256517   4.183   6.451  10.815 -0.2766  0.2843 -0.0093
11676TIP3   OH256518   1.236   5.934  15.253 -0.0726  0.3393 -0.1143
11676TIP3    H156519   1.315   5.971  15.214 -0.1619  0.0725 -0.5581
11676TIP3    H256520   1.193   6.008  15.296  0.5629  0.4290  0.3803
11677TIP3   OH256521   0.521   6.732   0.021  0.0565 -0.4511 -0.2297
11677TIP3    H156522   0.454   6.729   0.089 -0.3143 -1.7600 -0.6266
11677TIP3    H256523   0.564   6.647   0.027  2.4102  0.7821  0.7302
11678TIP3   OH256524   1.003   4.789  13.118  0.2444  0.1170  0.0933
11678TIP3    H156525   0.913   4.799  13.147  0.4172 -0.7153  0.9251
11678TIP3    H256526   1.036   4.879  13.113 -1.1483  0.5566 -1.9604
11679TIP3   OH256527   2.600   2.282  12.707 -0.5100 -0.7813 -0.3043
11679TIP3    H156528   2.524   2.314  12.659  0.1305 -1.2371 -1.6426
11679TIP3    H256529   2.621   2.353  12.768 -1.9720 -0.6397  0.0523
11680TIP3   OH256530   6.515   6.709  13.236 -0.4792  0.0459  0.3536
11680TIP3    H156531   6.464   6.630  13.217  0.4693 -0.9558  1.8769
11680TIP3    H256532   6.598   6.694  13.191  0.3980 -0.6845  2.1652
11681TIP3   OH256533   6.260   5.839  16.833 -0.0698  0.0981 -0.1134
11681TIP3    H156534   6.203   5.872  16.764 -0.8389 -0.7037  0.1299
11681TIP3    H256535   6.333   5.901  16.836 -0.0419  0.1544 -1.6318
11682TIP3   OH256536   3.790   6.736  15.405 -0.1955  0.3044 -0.5310
11682TIP3    H156537   3.788   6.703  15.495  2.1762 -0.8923 -0.8801
11682TIP3    H256538   3.767   6.828  15.412 -4.1528 -0.6577  0.8121
11683TIP3   OH256539   2.190   6.770  13.280  0.2004 -0.1577  0.8522
11683TIP3    H156540   2.141   6.739  13.356 -2.3737  1.9168  0.1146
11683TIP3    H256541   2.224   6.855  13.306  1.0712 -0.3592  0.3864
11684TIP3   OH256542   2.559   4.225   0.680  0.4990  0.2006  0.0991
11684TIP3    H156543   2.473   4.193   0.708 -0.0446 -0.8679 -2.6063
11684TIP3    H256544   2.616   4.148   0.687  0.3548 -0.0792 -1.6388
11685TIP3   OH256545   5.924   5.149   4.631 -0.1649  0.2944 -0.1518
11685TIP3    H156546   5.861   5.189   4.691  1.3729  1.4510  0.7454
11685TIP3    H256547   5.949   5.220   4.572  2.5875  0.7167  1.4434
11686TIP3   OH256548   3.183   0.412   2.748  0.0234 -0.5405 -0.6199
11686TIP3    H156549   3.094   0.433   2.720 -0.4363  0.3320  1.4333
11686TIP3    H256550   3.178   0.323   2.781 -0.8113  0.5497  2.3569
11687TIP3   OH256551   4.800   5.787   3.593  0.1844 -0.4989  0.3932
11687TIP3    H156552   4.820   5.856   3.530 -0.2548  1.2971  2.1648
11687TIP3    H256553   4.874   5.788   3.653  0.2287 -1.6773  0.3745
11688TIP3   OH256554   4.320   4.068  12.490  0.9175 -0.6055 -0.6268
11688TIP3    H156555   4.342   3.977  12.470  0.7438 -0.7144 -0.3186
11688TIP3    H256556   4.285   4.066  12.579  1.1327 -0.2031 -0.5275
11689TIP3   OH256557   0.920   2.974   0.618  0.1623 -0.1769 -0.7430
11689TIP3    H156558   0.854   2.968   0.549  0.9941 -2.1579 -1.3842
11689TIP3    H256559   0.991   2.917   0.589  1.1650  0.1275  1.0510
11690TIP3   OH256560   1.192   0.182  15.851  0.3117 -0.7087  0.1096
11690TIP3    H156561   1.129   0.113  15.832  0.4565 -0.5803 -0.8434
11690TIP3    H256562   1.213   0.220  15.766  0.6736  0.1281  0.5633
11691TIP3   OH256563   3.603   4.004   4.655 -0.0139 -0.2473  0.8257
11691TIP3    H156564   3.665   4.000   4.583 -0.4509 -2.5741  0.5488
11691TIP3    H256565   3.527   3.954   4.625 -0.9811  0.3892  2.1556
11692TIP3   OH256566   2.033   5.595  11.361  0.2245  0.0277 -0.4357
11692TIP3    H156567   2.089   5.519  11.375  1.0783  0.7957  0.3961
11692TIP3    H256568   1.966   5.564  11.300  1.1628 -1.0924 -0.9279
11693TIP3   OH256569   1.305   2.776  17.090  0.0365  0.1852  0.5909
11693TIP3    H156570   1.399   2.764  17.101  0.2640  0.7612 -0.5734
11693TIP3    H256571   1.295   2.870  17.071 -0.8459  0.2740  1.4312
11694TIP3   OH256572   1.041   4.844   6.621  0.6612  0.2705 -0.0629
11694TIP3    H156573   0.969   4.868   6.563  1.3818  0.0126 -1.0982
11694TIP3    H256574   1.000   4.827   6.705 -0.6104 -0.7114 -0.8521
11695TIP3   OH256575   0.285   1.106   0.156  0.0525 -0.2476 -0.0886
11695TIP3    H156576   0.238   1.024   0.139  0.0437 -0.1193 -0.6764
11695TIP3    H256577   0.218   1.167   0.186 -0.4089  0.3648 -2.3074
11696TIP3   OH256578   4.245   2.813   4.361  0.3013 -0.3559  0.1236
11696TIP3    H156579   4.196   2.872   4.304  1.2145  1.1669  0.8667
11696TIP3    H256580   4.336   2.843   4.354  0.8386 -1.9436  0.2093
11697TIP3   OH256581   0.787   0.768  13.363 -0.2018 -0.5103  0.0301
11697TIP3    H156582   0.824   0.841  13.315  1.0536 -1.2933 -0.2199
11697TIP3    H256583   0.794   0.793  13.455 -0.0840 -0.1843 -0.0682
11698TIP3   OH256584   5.974   5.659  11.603  0.3422 -0.6780 -0.3635
11698TIP3    H156585   6.006   5.648  11.514 -0.2093 -1.0026 -0.5223
11698TIP3    H256586   6.046   5.630  11.659  0.4098 -1.1927 -0.7186
11699TIP3   OH256587   3.571   5.784  13.895 -0.4438 -0.3018 -0.4635
11699TIP3    H156588   3.615   5.699  13.901 -0.0509 -0.1206 -0.7208
11699TIP3    H256589   3.479   5.764  13.907 -0.2137 -0.5805  0.9181
11700TIP3   OH256590   6.658   2.054   3.103 -0.7284  0.1966  0.6898
11700TIP3    H156591   6.736   2.050   3.159  0.1744  0.6431 -0.5067
11700TIP3    H256592   6.666   2.137   3.057 -0.3866 -1.0853 -1.6260
11701TIP3   OH256593   0.941   5.420   2.970  0.1983  0.5744  0.3484
11701TIP3    H156594   0.946   5.356   3.041 -0.0105  0.4538  0.2532
11701TIP3    H256595   0.848   5.439   2.962  0.0447 -0.6936 -1.0460
11702TIP3   OH256596   3.907   6.038  16.135  0.1638  0.1818  0.3606
11702TIP3    H156597   3.869   6.021  16.048  0.0057 -1.6525  0.7723
11702TIP3    H256598   3.958   6.118  16.123 -0.3266  0.2725 -1.2820
11703TIP3   OH256599   6.012   3.872  14.433 -0.2572  0.0568 -0.4299
11703TIP3    H156600   6.012   3.926  14.354 -2.5227 -2.8941 -2.5389
11703TIP3    H256601   6.098   3.830  14.434 -0.5285 -0.5469 -1.8169
11704TIP3   OH256602   3.463   1.446  15.793 -0.6436 -0.6079 -0.2706
11704TIP3    H156603   3.531   1.382  15.814 -1.1223 -0.7282  0.9576
11704TIP3    H256604   3.385   1.415  15.839 -1.0899  0.4221 -0.3100
11705TIP3   OH256605   2.677   1.898   4.789  0.6212 -0.0674 -0.0905
11705TIP3    H156606   2.694   1.951   4.867  1.5174  0.3375 -0.5561
11705TIP3    H256607   2.600   1.939   4.749  1.6429  1.2477 -0.7496
11706TIP3   OH256608   2.344   5.772  15.229  0.2662  0.4331  0.3729
11706TIP3    H156609   2.370   5.860  15.202  0.4137  0.6005  1.0592
11706TIP3    H256610   2.371   5.716  15.156  0.5870  0.8967  0.1349
11707TIP3   OH256611   3.314   3.281  14.796  0.7612  0.1155  0.1844
11707TIP3    H156612   3.239   3.306  14.742  1.9709 -0.5519 -1.8772
11707TIP3    H256613   3.286   3.297  14.886 -2.1074 -0.7928 -0.4929
11708TIP3   OH256614   1.507   3.708   5.194 -0.0213  0.5737  0.1449
11708TIP3    H156615   1.495   3.796   5.227  0.7058  0.6588  0.1960
11708TIP3    H256616   1.476   3.711   5.103 -2.2782  0.2685  0.8791
11709TIP3   OH256617   3.870   1.526  11.354 -0.3334 -0.3677  0.0748
11709TIP3    H156618   3.845   1.567  11.272 -2.8728  0.3201  1.1601
11709TIP3    H256619   3.882   1.434  11.332 -1.3757 -0.2561 -1.0005
11710TIP3   OH256620   2.855   2.898  15.867  0.1492  0.0760  0.0582
11710TIP3    H156621   2.862   2.808  15.836 -0.3932  0.2714 -0.6436
11710TIP3    H256622   2.784   2.897  15.930  0.1681  0.0052  0.0793
11711TIP3   OH256623   3.013   6.554   4.658 -0.3597 -0.1844 -0.3216
11711TIP3    H156624   2.956   6.548   4.734 -1.5631 -0.7129 -1.2568
11711TIP3    H256625   3.026   6.463   4.631  1.4595 -0.1242  0.2697
11712TIP3   OH256626   1.755   3.509  12.554 -0.7741  0.8510 -0.0279
11712TIP3    H156627   1.818   3.477  12.489 -0.0870 -1.1785  1.6059
11712TIP3    H256628   1.806   3.569  12.609 -0.4393 -0.2156  0.8365
11713TIP3   OH256629   0.786   0.773  16.928 -0.2378 -0.2015  0.2853
11713TIP3    H156630   0.784   0.766  17.024 -0.4969  0.1228  0.3073
11713TIP3    H256631   0.729   0.702  16.898 -0.4515 -0.0782  0.3903
11714TIP3   OH256632   4.266   3.426   4.763 -0.7926 -0.5070  0.4440
11714TIP3    H156633   4.284   3.520   4.758 -3.5144  0.0874  0.8476
11714TIP3    H256634   4.351   3.386   4.778  0.3458  1.9345  0.7869
11715TIP3   OH256635   5.600   5.857  15.459  0.6838 -0.1024 -0.7737
11715TIP3    H156636   5.568   5.834  15.372  0.8735 -0.5920 -0.7182
11715TIP3    H256637   5.581   5.779  15.512  0.3402  0.2893 -0.3197
11716TIP3   OH256638   6.618   5.814  15.561 -0.6069  0.4617  0.0599
11716TIP3    H156639   6.713   5.812  15.578 -0.1575  1.5928 -2.1343
11716TIP3    H256640   6.589   5.895  15.601 -0.4432  0.6631 -0.2247
11717TIP3   OH256641   3.332   5.170   3.536 -0.0987  0.0244  0.5096
11717TIP3    H156642   3.250   5.183   3.489  0.3623 -0.6815 -0.5040
11717TIP3    H256643   3.399   5.202   3.477  0.6119 -2.1700  0.0797
11718TIP3   OH256644   4.077   5.298   2.986 -0.6867  0.9582  0.3121
11718TIP3    H156645   4.124   5.277   2.905  1.8919  0.8147  1.8052
11718TIP3    H256646   4.040   5.215   3.015 -0.4230  0.7471  0.0455
11719TIP3   OH256647   2.873   3.343   4.328  0.0819 -0.1050  0.0074
11719TIP3    H156648   2.928   3.373   4.256  1.7596  0.0910  1.3530
11719TIP3    H256649   2.877   3.247   4.324 -0.2326 -0.1028 -0.4457
11720TIP3   OH256650   6.024   3.567  13.106 -0.2366  0.4469  0.6307
11720TIP3    H156651   5.955   3.616  13.061  1.0090  1.0724 -0.6244
11720TIP3    H256652   6.015   3.478  13.073 -1.0578  0.3086  1.2078
11721TIP3   OH256653   2.388   4.145   5.395 -0.3606 -0.3016 -0.1134
11721TIP3    H156654   2.398   4.088   5.319  1.3999  0.2531 -0.3208
11721TIP3    H256655   2.442   4.105   5.463 -1.0433 -0.1866  0.5114
11722TIP3   OH256656   4.497   0.348   3.110 -0.1983  0.4207 -0.1915
11722TIP3    H156657   4.537   0.430   3.081  1.1631 -0.0170  0.4199
11722TIP3    H256658   4.561   0.281   3.088  0.3100 -0.0687  2.5270
11723TIP3   OH256659   6.557   2.246  11.437 -0.0548 -0.4564  0.1233
11723TIP3    H156660   6.603   2.320  11.397 -0.0832 -0.7775 -0.5013
11723TIP3    H256661   6.465   2.265  11.424 -0.0757 -0.3035  0.4979
11724TIP3   OH256662   6.391   3.230   5.174  0.1647 -0.5590 -0.0948
11724TIP3    H156663   6.367   3.275   5.093 -1.3915  0.6847  1.0164
11724TIP3    H256664   6.376   3.138   5.156 -1.1184 -0.2007 -0.9056
11725TIP3   OH256665   5.771   1.698   6.263  0.1358  0.2995 -0.2028
11725TIP3    H156666   5.847   1.643   6.280  0.2629  0.1386 -1.2465
11725TIP3    H256667   5.697   1.637   6.263 -0.0705  0.5439  1.4039
11726TIP3   OH256668   6.287   4.824  13.491  0.7982 -0.4852  0.6894
11726TIP3    H156669   6.240   4.782  13.564  0.6030  0.5642  1.1693
11726TIP3    H256670   6.222   4.832  13.422  0.0818  1.5206  1.5679
11727TIP3   OH256671   4.922   1.862   3.641 -0.0140 -0.4615 -0.1465
11727TIP3    H156672   5.003   1.828   3.602  1.3771 -0.3555  2.5750
11727TIP3    H256673   4.899   1.799   3.709 -1.4670  0.2569  0.0460
11728TIP3   OH256674   2.868   0.657  15.007 -0.1851  0.4204  0.1755
11728TIP3    H156675   2.795   0.656  15.069 -0.3072  0.6126  0.0336
11728TIP3    H256676   2.917   0.736  15.030  1.0343 -0.6893  1.5139
11729TIP3   OH256677   4.847   4.766   3.968  0.3140 -0.1244  0.1508
11729TIP3    H156678   4.818   4.683   4.005 -0.2183 -0.0888 -0.1872
11729TIP3    H256679   4.926   4.788   4.018  0.8560 -1.1760 -0.2119
11730TIP3   OH256680   3.247   1.338   4.108 -0.3449  0.2748  0.1443
11730TIP3    H156681   3.319   1.394   4.082  0.6748 -1.7550 -1.5391
11730TIP3    H256682   3.169   1.382   4.074  0.4848  0.4269 -1.6262
11731TIP3   OH256683   0.670   5.134  13.079 -0.3238  0.0127  0.2678
11731TIP3    H156684   0.737   5.108  13.142  1.7018  1.0024 -1.3902
11731TIP3    H256685   0.599   5.169  13.132  0.6295 -0.7176  2.0598
11732TIP3   OH256686   2.514   1.668  11.510  0.1752  0.1688 -0.6338
11732TIP3    H156687   2.533   1.735  11.576 -1.8664  0.2983 -0.1466
11732TIP3    H256688   2.556   1.589  11.544 -0.0937  0.4518  0.3799
11733TIP3   OH256689   0.628   2.717  11.381  0.5784 -0.0528  0.0490
11733TIP3    H156690   0.595   2.797  11.340 -0.5367 -0.3808  0.3148
11733TIP3    H256691   0.576   2.706  11.460  0.5374 -1.1946 -0.1254
11734TIP3   OH256692   6.543   5.657   0.822 -0.4489 -0.2679 -0.3620
11734TIP3    H156693   6.547   5.736   0.768 -0.0600  1.1163  1.6468
11734TIP3    H256694   6.452   5.651   0.851 -0.4344 -0.4591 -0.3525
11735TIP3   OH256695   1.970   5.997   3.948 -0.7315 -0.0255  0.0618
11735TIP3    H156696   2.023   6.033   3.877  0.6640  3.2741  2.6567
11735TIP3    H256697   2.021   5.922   3.980 -0.0231  0.1480 -0.6411
11736TIP3   OH256698   4.107   0.239   2.652 -0.3628 -0.1220 -0.5776
11736TIP3    H156699   4.016   0.208   2.649  0.2360 -2.0713  0.1451
11736TIP3    H256700   4.159   0.159   2.643  1.2776  0.7039  1.1186
11737TIP3   OH256701   1.392   6.100   2.508 -0.1661 -0.2677  0.1285
11737TIP3    H156702   1.470   6.122   2.457 -1.7570 -0.4176 -2.4170
11737TIP3    H256703   1.376   6.178   2.561  0.5446  0.5406 -0.8306
11738TIP3   OH256704   2.389   5.066  16.939  0.5346  0.2137  0.1405
11738TIP3    H156705   2.434   4.984  16.920 -0.4460 -0.5293  1.0188
11738TIP3    H256706   2.444   5.133  16.898  0.4715 -1.0032 -2.0149
11739TIP3   OH256707   2.564   0.884  16.888 -0.5236 -0.0274 -0.6832
11739TIP3    H156708   2.566   0.796  16.925  0.3268  0.7342  1.1445
11739TIP3    H256709   2.475   0.894  16.854 -0.7917 -1.3787 -0.3904
11740TIP3   OH256710   4.310   6.513  16.436  0.0450 -0.3215 -0.1505
11740TIP3    H156711   4.220   6.486  16.419 -0.1544  1.1164 -1.5740
11740TIP3    H256712   4.304   6.574  16.510  0.2392 -2.4522  1.6723
11741TIP3   OH256713   0.282   3.431   5.026 -0.2559 -0.1602 -0.7046
11741TIP3    H156714   0.195   3.471   5.028 -0.2594 -0.1677  1.7462
11741TIP3    H256715   0.342   3.505   5.021 -0.3649 -0.0127  0.0273
11742TIP3   OH256716   3.101   1.048   0.684 -0.2101 -0.1071  0.4461
11742TIP3    H156717   3.117   1.142   0.690  3.9408 -0.5646 -1.4890
11742TIP3    H256718   3.017   1.041   0.641 -0.3447  2.7371  0.1430
11743TIP3   OH256719   3.743   5.923   2.939 -0.0992  0.4127 -0.2001
11743TIP3    H156720   3.752   5.828   2.925 -0.0379  0.2719  0.7337
11743TIP3    H256721   3.657   5.932   2.980  1.0915  0.4450  2.3733
11744TIP3   OH256722   2.612   6.686  16.600  0.3707  0.2553 -0.5985
11744TIP3    H156723   2.704   6.662  16.608 -0.0161 -1.3423 -0.8235
11744TIP3    H256724   2.577   6.675  16.688  0.6239  1.9285 -0.2679
11745TIP3   OH256725   0.978   3.568   2.720  0.5693  0.3036  0.1763
11745TIP3    H156726   1.061   3.614   2.716 -0.2647  1.9084  0.8582
11745TIP3    H256727   0.978   3.526   2.806  0.6584  0.3431  0.1953
11746TIP3   OH256728   2.719   1.461  16.184 -0.1901 -0.2457  0.5044
11746TIP3    H156729   2.645   1.432  16.236 -1.1882  0.7084 -0.3517
11746TIP3    H256730   2.792   1.466  16.246 -1.5851  1.8276  2.0516
11747TIP3   OH256731   1.563   1.479   4.254 -0.1977 -0.5280  0.0613
11747TIP3    H156732   1.554   1.411   4.321  0.8262  0.0056  0.7558
11747TIP3    H256733   1.493   1.460   4.191 -0.9722 -1.2401  1.1054
11748TIP3   OH256734   1.050   0.320   0.811  0.1618  0.2151 -0.5714
11748TIP3    H156735   0.995   0.374   0.754 -0.1618  0.3811 -0.1060
11748TIP3    H256736   1.132   0.368   0.817  0.4114 -0.0897 -1.3620
11749TIP3   OH256737   1.751   5.141   4.878  0.1040  0.0724 -0.1288
11749TIP3    H156738   1.665   5.183   4.880 -0.8118 -1.7041 -0.8913
11749TIP3    H256739   1.733   5.048   4.892  1.4729 -0.8946 -3.9348
11750TIP3   OH256740   2.528   3.551   3.103  0.1648 -0.2735  0.2195
11750TIP3    H156741   2.519   3.455   3.100  0.4204 -0.2611 -1.4779
11750TIP3    H256742   2.509   3.580   3.013  3.0702  0.9728 -0.0638
11751TIP3   OH256743   4.113   3.113  15.147  0.0981 -0.5804 -0.0175
11751TIP3    H156744   4.080   3.072  15.227  0.3728 -3.0780 -1.1229
11751TIP3    H256745   4.205   3.131  15.165  0.9756 -3.9243 -0.7302
11752TIP3   OH256746   4.159   3.158   2.594 -0.1090  0.1903  0.0143
11752TIP3    H156747   4.197   3.146   2.681  0.7426  3.0887  0.1128
11752TIP3    H256748   4.158   3.071   2.555 -0.9042 -1.2211  3.0823
11753TIP3   OH256749   0.500   2.627   2.948  0.0520  0.4463 -0.0331
11753TIP3    H156750   0.515   2.695   2.882 -1.2004 -0.4657 -1.2916
11753TIP3    H256751   0.405   2.627   2.961  0.3553  1.1747  2.4063
11754TIP3   OH256752   3.615   0.573  13.772  0.1279  0.4553  0.0278
11754TIP3    H156753   3.596   0.660  13.805 -0.2383  0.8479 -1.1960
11754TIP3    H256754   3.599   0.515  13.847  1.6013  1.5369  1.2301
11755TIP3   OH256755   2.892   4.501  13.288  0.0957 -0.4385 -0.3458
11755TIP3    H156756   2.914   4.567  13.353  1.5822 -0.8997 -0.3595
11755TIP3    H256757   2.975   4.480  13.246 -0.7749 -0.4671 -2.0938
11756TIP3   OH256758   6.317   2.404  12.495 -0.5201  0.7189  0.1414
11756TIP3    H156759   6.258   2.477  12.515 -2.6634 -0.8452 -0.2978
11756TIP3    H256760   6.285   2.370  12.412 -1.0043 -2.1090  1.4307
11757TIP3   OH256761   1.948   2.959   2.661  0.0979  0.4723  0.3158
11757TIP3    H156762   1.983   2.870   2.665 -1.2398 -0.0566  0.3813
11757TIP3    H256763   1.914   2.976   2.749  2.1129  1.7898  0.8670
11758TIP3   OH256764   6.548   3.303  16.250  0.8170  0.1798 -0.1403
11758TIP3    H156765   6.479   3.343  16.303  1.7679  1.5510  0.0989
11758TIP3    H256766   6.530   3.209  16.253 -0.7381  0.4788  0.3301
11759TIP3   OH256767   1.183   4.724  12.061 -0.5350  0.2606 -0.7012
11759TIP3    H156768   1.175   4.730  12.156  1.7955 -1.5006 -0.3652
11759TIP3    H256769   1.275   4.741  12.043 -0.7685 -0.2848 -2.5708
11760TIP3   OH256770   5.371   5.049   6.157 -0.2566  0.3322 -0.3545
11760TIP3    H156771   5.420   4.973   6.124  0.4566  0.8363 -0.4748
11760TIP3    H256772   5.408   5.066   6.244 -0.4015  0.5437 -0.3338
11761TIP3   OH256773   3.670   1.158  12.888 -0.0015  0.6177 -0.0743
11761TIP3    H156774   3.668   1.223  12.818 -0.7266 -1.8591 -2.4114
11761TIP3    H256775   3.761   1.155  12.916 -0.1872  3.6074  1.0583
11762TIP3   OH256776   3.298   5.514  10.993 -0.3332 -0.2727 -0.2772
11762TIP3    H156777   3.329   5.447  11.055  0.2903  1.0871  0.9136
11762TIP3    H256778   3.206   5.525  11.014  0.3057  1.5924  1.8045
11763TIP3   OH256779   4.975   6.660  11.405  0.1407  1.0041 -0.1480
11763TIP3    H156780   4.997   6.679  11.496  2.9085 -1.3503 -0.2336
11763TIP3    H256781   4.970   6.564  11.401 -3.4335  1.1683 -1.7683
11764TIP3   OH256782   0.342   4.755  10.760  0.0949  0.3146  0.8006
11764TIP3    H156783   0.263   4.809  10.753  1.3107  1.8550 -1.8748
11764TIP3    H256784   0.312   4.667  10.739 -1.0647  0.7216  0.6852
11765TIP3   OH256785   6.716   3.735   5.363  0.9084  0.4063  0.1276
11765TIP3    H156786   6.737   3.757   5.272 -2.7525  0.1988 -0.8665
11765TIP3    H256787   6.767   3.797   5.415  0.4160  2.9041 -2.2232
11766TIP3   OH256788   4.935   2.684   2.630 -0.2836 -0.2664 -0.3560
11766TIP3    H156789   4.880   2.729   2.566 -0.7200  0.4420  0.5065
11766TIP3    H256790   4.875   2.657   2.698  0.4105  0.4120  0.5394
11767TIP3   OH256791   1.565   1.238  13.915 -0.3412  0.4216  0.2757
11767TIP3    H156792   1.637   1.302  13.922  1.2302 -1.2298 -0.4350
11767TIP3    H256793   1.492   1.288  13.879  0.7972  1.8611 -0.0855
11768TIP3   OH256794   6.798   3.969   2.405  0.1916 -0.3458 -0.2129
11768TIP3    H156795   6.714   3.985   2.448  0.6419 -1.5137  1.1376
11768TIP3    H256796   6.861   3.965   2.476  1.2200 -0.6330 -1.1247
11769TIP3   OH256797   4.084   3.576  16.005  0.1074 -0.0235  0.2022
11769TIP3    H156798   4.082   3.660  16.050 -1.9682 -0.7358  1.5136
11769TIP3    H256799   4.177   3.556  15.996  0.6255  2.6107 -0.5428
11770TIP3   OH256800   3.480   0.261   2.247  0.1132 -0.5179  0.5533
11770TIP3    H156801   3.514   0.179   2.212 -1.6013 -0.7503 -0.6285
11770TIP3    H256802   3.422   0.234   2.318 -0.9009 -0.3802 -0.2104
11771TIP3   OH256803   0.370   3.021   4.831 -0.3710 -0.0609  0.1274
11771TIP3    H156804   0.389   3.114   4.817 -1.0627  0.2130  0.9719
11771TIP3    H256805   0.455   2.982   4.850 -0.2029  0.5863  0.7454
11772TIP3   OH256806   6.009   5.295  11.031  0.0782 -0.0505  0.0994
11772TIP3    H156807   6.029   5.350  10.955  0.9025  0.3859  0.6231
11772TIP3    H256808   5.942   5.234  10.999  0.2227  0.2952 -0.9013
11773TIP3   OH256809   2.183   0.248  14.188 -0.1720  0.3423 -0.0574
11773TIP3    H156810   2.111   0.185  14.186  0.7085 -0.7588  1.4382
11773TIP3    H256811   2.146   0.326  14.229 -0.7130  0.0443  0.0234
11774TIP3   OH256812   1.649   5.589   4.186 -0.1845 -0.2043  0.0309
11774TIP3    H156813   1.585   5.524   4.214 -1.0105  0.5699 -0.0243
11774TIP3    H256814   1.616   5.672   4.222  0.5875  0.2554 -0.3114
11775TIP3   OH256815   4.147   3.228  11.303  0.4023 -0.7115  0.0279
11775TIP3    H156816   4.087   3.216  11.229  2.7723 -1.0869 -1.9126
11775TIP3    H256817   4.192   3.143  11.311 -0.1835 -0.8367  2.2549
11776TIP3   OH256818   3.688   1.306  15.115 -0.4933 -0.1136  0.8437
11776TIP3    H156819   3.629   1.239  15.080  0.0762 -1.0152  1.5808
11776TIP3    H256820   3.634   1.384  15.124 -0.6791  0.1132 -1.9482
11777TIP3   OH256821   0.230   3.164  16.135  0.5213 -0.3091  0.5752
11777TIP3    H156822   0.291   3.148  16.207  0.7811  0.4333  0.5187
11777TIP3    H256823   0.165   3.224  16.171  1.2917  0.9772 -0.1471
11778TIP3   OH256824   2.827   5.057  15.611 -0.2573  0.0228 -0.4213
11778TIP3    H156825   2.866   4.978  15.574 -0.5896  0.5445 -1.9380
11778TIP3    H256826   2.887   5.127  15.585 -0.8587  0.4880 -0.5564
11779TIP3   OH256827   3.439   3.614  17.081  0.2386  0.0615  0.3867
11779TIP3    H156828   3.395   3.699  17.075 -0.3478 -0.0710  2.1988
11779TIP3    H256829   3.501   3.624  17.154  1.3397 -0.5600 -0.4545
11780TIP3   OH256830   5.493   5.454   4.192  0.2573 -0.0604 -0.3037
11780TIP3    H156831   5.402   5.437   4.219  0.6468 -1.2672  0.3170
11780TIP3    H256832   5.519   5.531   4.243  0.0475 -0.6075  0.6624
11781TIP3   OH256833   2.087   1.164   4.613  0.0245  0.8301 -0.3647
11781TIP3    H156834   2.050   1.161   4.701  1.5563  0.9751  0.2916
11781TIP3    H256835   2.143   1.242   4.613  2.7304 -1.0620 -0.3638
11782TIP3   OH256836   1.407   5.277  15.880  0.0068 -0.3051 -0.1999
11782TIP3    H156837   1.490   5.284  15.927  0.3094 -1.2080 -0.6020
11782TIP3    H256838   1.385   5.184  15.883 -0.9835 -0.0693 -0.1031
11783TIP3   OH256839   0.424   3.054   1.363 -0.4272 -0.0407  0.4872
11783TIP3    H156840   0.396   2.985   1.303 -1.7317  0.1696  0.8507
11783TIP3    H256841   0.431   3.010   1.448 -0.1142  0.0147  0.4916
11784TIP3   OH256842   1.047   0.414  10.859  0.2083  0.1519  0.1679
11784TIP3    H156843   0.980   0.359  10.898  0.3168 -0.8778 -1.0710
11784TIP3    H256844   1.115   0.353  10.830  0.5682  0.9687 -0.7447
11785TIP3   OH256845   6.442   3.216   0.030 -0.1953 -1.1742 -0.0146
11785TIP3    H156846   6.374   3.224  -0.036 -2.2247 -2.3012  1.8736
11785TIP3    H256847   6.403   3.253   0.109  2.1847  0.1646  0.5716
11786TIP3   OH256848   4.021   3.336   2.077  0.4165  0.0593 -0.1442
11786TIP3    H156849   3.995   3.320   2.168 -2.7535 -1.1424 -1.2217
11786TIP3    H256850   4.033   3.431   2.072 -2.0259  0.4541  0.8830
11787TIP3   OH256851   5.262   3.639  14.924  0.2109  0.1911  0.1053
11787TIP3    H156852   5.186   3.676  14.880 -1.6386  0.4640  3.3882
11787TIP3    H256853   5.253   3.544  14.913  0.0111  0.2792 -0.4879
11788TIP3   OH256854   0.497   1.567   5.041 -0.1822  0.4199  0.0935
11788TIP3    H156855   0.404   1.590   5.031 -0.2710  0.1680  0.3397
11788TIP3    H256856   0.496   1.490   5.097  0.1345 -0.0159 -0.4959
11789TIP3   OH256857   2.784   3.348   2.308 -0.4430 -0.1844  0.4627
11789TIP3    H156858   2.822   3.377   2.391 -0.5637  0.4114  0.3065
11789TIP3    H256859   2.716   3.285   2.334 -0.2204 -0.2914  0.7970
11790TIP3   OH256860   2.137   1.889  12.102  0.2066 -0.1979  0.1672
11790TIP3    H156861   2.151   1.806  12.056  2.3366  0.2837 -0.1268
11790TIP3    H256862   2.220   1.936  12.091 -0.6513  1.5770  1.1323
11791TIP3   OH256863   4.239   5.356  16.963 -0.0872  0.3647  0.2387
11791TIP3    H156864   4.313   5.372  16.904 -0.7190 -1.1203 -0.9828
11791TIP3    H256865   4.173   5.420  16.937 -0.5356 -0.5777 -0.9891
11792TIP3   OH256866   3.917   0.354  11.645 -0.2330 -0.2145  0.1743
11792TIP3    H156867   3.892   0.427  11.589 -1.6532 -0.2744  0.7144
11792TIP3    H256868   4.012   0.359  11.650 -0.2556  1.0448 -0.5310
11793TIP3   OH256869   2.768   1.582  16.899  0.1572  0.1598 -0.0338
11793TIP3    H156870   2.694   1.620  16.851  1.4841 -0.5687 -2.8049
11793TIP3    H256871   2.728   1.523  16.962 -1.7308  2.2559  0.7876
11794TIP3   OH256872   1.692   3.584   3.410  0.4073 -0.2714  0.1852
11794TIP3    H156873   1.613   3.639   3.411  0.1944 -0.5800  0.4347
11794TIP3    H256874   1.660   3.496   3.429  0.9783 -0.1656  1.7785
11795TIP3   OH256875   3.154   2.065  14.465 -0.7518 -0.0346 -0.1656
11795TIP3    H156876   3.230   2.120  14.445 -1.1012  0.1373 -1.0365
11795TIP3    H256877   3.190   1.977  14.474 -0.3087  0.2027  0.3914
11796TIP3   OH256878   5.269   5.229  11.567  0.2911 -0.4444  0.7350
11796TIP3    H156879   5.226   5.226  11.652 -1.3157 -0.1055 -0.0525
11796TIP3    H256880   5.344   5.287  11.580 -1.8398  2.3441  1.0884
11797TIP3   OH256881   4.425   3.081   0.856 -0.1498 -0.1434 -0.3463
11797TIP3    H156882   4.436   2.995   0.896 -0.9146  0.0341  0.2549
11797TIP3    H256883   4.433   3.143   0.928  0.6142  0.3094 -0.8099
11798TIP3   OH256884   1.134   2.383   4.668 -0.0673  0.2506 -0.1035
11798TIP3    H156885   1.196   2.317   4.637 -0.0500  0.1686  0.1014
11798TIP3    H256886   1.139   2.377   4.764 -0.9115 -0.2461 -0.0810
11799TIP3   OH256887   3.469   5.866   0.923 -0.1775  0.7509 -0.0779
11799TIP3    H156888   3.561   5.841   0.929 -0.7278 -1.0963  0.9320
11799TIP3    H256889   3.457   5.892   0.831  0.8460 -1.0706 -0.7473
11800TIP3   OH256890   6.737   2.722  11.288  0.1859  0.0217  0.1823
11800TIP3    H156891   6.810   2.730  11.226  0.6501  0.9502  0.8285
11800TIP3    H256892   6.772   2.757  11.370 -0.6144 -0.6356  0.8110
11801TIP3   OH256893   2.355   3.693  12.935 -0.3012 -0.1163 -0.0740
11801TIP3    H156894   2.448   3.688  12.917 -0.3126 -0.9149  0.0870
11801TIP3    H256895   2.316   3.721  12.852 -0.3476 -3.7454 -1.3807
11802TIP3   OH256896   0.645   4.823  17.170 -0.3248  0.6181  0.2563
11802TIP3    H156897   0.567   4.859  17.127 -0.9676  0.1684  1.0336
11802TIP3    H256898   0.637   4.850  17.261 -0.1962 -0.4450  0.5918
11803TIP3   OH256899   5.088   2.813  14.306  0.1005 -0.4678 -0.2034
11803TIP3    H156900   5.057   2.738  14.256 -0.2145 -0.8001  0.4803
11803TIP3    H256901   5.037   2.887  14.271 -0.9668 -0.8951  0.4236
11804TIP3   OH256902   5.046   2.619   3.491  0.2677  0.2947  0.5186
11804TIP3    H156903   5.029   2.525   3.498 -0.7623  0.4384 -0.0293
11804TIP3    H256904   4.962   2.657   3.468  0.7617  1.3200  0.3907
11805TIP3   OH256905   1.083   0.399   3.459  0.0155 -0.4352  0.0781
11805TIP3    H156906   1.042   0.485   3.450 -1.7113 -1.5500 -3.3373
11805TIP3    H256907   1.172   0.412   3.426  0.0728  0.2561  0.4869
11806TIP3   OH256908   2.340   0.467   2.406 -0.1353  0.0907 -0.1353
11806TIP3    H156909   2.264   0.414   2.380 -0.5627  0.2535  0.7724
11806TIP3    H256910   2.306   0.529   2.470  1.1425 -1.1485  1.7931
11807TIP3   OH256911   0.788   2.491  17.002 -0.6475 -0.0757  0.0568
11807TIP3    H156912   0.736   2.518  16.927  1.1529 -0.3248 -1.2949
11807TIP3    H256913   0.879   2.503  16.975  0.0411 -0.3054  2.1373
11808TIP3   OH256914   3.280   1.590   1.987 -0.2793 -0.1430 -0.5062
11808TIP3    H156915   3.214   1.533   1.948 -0.9821  0.2969  0.0257
11808TIP3    H256916   3.363   1.560   1.950 -0.8924  0.0734 -2.1055
11809TIP3   OH256917   6.728   2.038  12.532 -0.3214 -0.3658  0.6247
11809TIP3    H156918   6.649   2.067  12.487  0.5250  0.4528 -0.3744
11809TIP3    H256919   6.740   1.947  12.505  0.2165  0.1390 -0.8711
11810TIP3   OH256920   2.705   1.718   0.934 -0.2944 -0.5680  0.1957
11810TIP3    H156921   2.773   1.763   0.884 -1.3418 -0.3300 -1.0510
11810TIP3    H256922   2.697   1.633   0.891  0.0435 -1.0597  1.0888
11811TIP3   OH256923   3.125   4.284  13.070 -0.2142 -0.0380  0.2123
11811TIP3    H156924   3.193   4.263  13.134 -0.2302  0.8072  0.5082
11811TIP3    H256925   3.117   4.379  13.073 -2.2774 -0.2145  1.0718
11812TIP3   OH256926   1.209   2.776  13.503  0.3250 -0.0371 -0.0691
11812TIP3    H156927   1.183   2.686  13.483  0.1163 -0.5196  2.2391
11812TIP3    H256928   1.235   2.813  13.418 -0.1273 -2.0773 -1.1315
11813TIP3   OH256929   0.740   3.622  17.087  0.5460 -0.1217  0.5190
11813TIP3    H156930   0.765   3.531  17.068  0.6368  0.0358 -0.0966
11813TIP3    H256931   0.652   3.630  17.051  0.8874  0.3045 -0.2152
11814TIP3   OH256932   6.291   6.580  15.383 -0.0543 -0.6348  0.1372
11814TIP3    H156933   6.249   6.572  15.468  2.7573  1.5620  1.8506
11814TIP3    H256934   6.285   6.674  15.362  1.7160 -0.6990 -0.7417
11815TIP3   OH256935   3.309   6.453  13.963  0.0075 -0.2440  0.3212
11815TIP3    H156936   3.234   6.500  14.001  1.0602  0.0982  2.0426
11815TIP3    H256937   3.317   6.374  14.017 -0.4997 -1.4288 -1.2902
11816TIP3   OH256938   4.739   2.177   1.853  0.1495 -0.1667 -0.0609
11816TIP3    H156939   4.647   2.158   1.869  0.3469 -2.0989 -1.0726
11816TIP3    H256940   4.783   2.154   1.935 -0.0079 -1.2647 -0.2741
11817TIP3   OH256941   2.851   4.905   5.658 -0.5461  0.3949  0.2032
11817TIP3    H156942   2.872   4.862   5.741 -0.0412 -0.7550 -0.5151
11817TIP3    H256943   2.775   4.857   5.625 -0.4451  0.5436 -0.2402
11818TIP3   OH256944   4.154   1.395  10.744  0.3003 -0.0438 -0.0123
11818TIP3    H156945   4.090   1.326  10.760 -0.8189  0.8935 -0.3872
11818TIP3    H256946   4.168   1.393  10.649 -0.4999  0.9174 -0.1515
11819TIP3   OH256947   6.742   1.666  16.775 -0.0528  0.0125 -0.0960
11819TIP3    H156948   6.829   1.702  16.795  0.0030  1.3483 -2.5370
11819TIP3    H256949   6.743   1.578  16.812  1.0966  1.2139  2.9449
11820TIP3   OH256950   2.687   2.838   4.789 -0.4125  0.5079  0.3636
11820TIP3    H156951   2.724   2.862   4.704 -1.6455 -0.6487 -0.5271
11820TIP3    H256952   2.702   2.915   4.844  0.0231  1.4469 -1.0278
11821TIP3   OH256953   6.001   2.218  17.036 -0.0415 -0.1229  0.8387
11821TIP3    H156954   6.047   2.255  17.112 -0.5047  1.5971  0.3058
11821TIP3    H256955   5.908   2.230  17.056 -0.1540  0.8367 -0.2449
11822TIP3   OH256956   5.003   6.036  13.124  0.0835 -0.0637  0.0973
11822TIP3    H156957   5.067   6.082  13.069  0.2846 -1.1377 -0.6027
11822TIP3    H256958   4.967   6.103  13.181 -1.1175  1.3899 -2.2634
11823TIP3   OH256959   4.389   2.782  13.615  0.2401  0.6803 -0.1620
11823TIP3    H156960   4.460   2.840  13.587 -0.6821  0.9776 -1.9608
11823TIP3    H256961   4.380   2.799  13.708  2.1642  1.0418 -0.0222
11824TIP3   OH256962   2.902   4.466  15.066  0.6656  0.5715 -0.1718
11824TIP3    H156963   2.821   4.473  15.115 -0.4561 -0.4058 -1.8344
11824TIP3    H256964   2.892   4.385  15.015  1.5049  1.8964 -2.4985
11825TIP3   OH256965   5.943   5.649  14.528 -0.5963  0.0340  0.3706
11825TIP3    H156966   5.971   5.560  14.545 -2.1362 -0.7245 -0.9419
11825TIP3    H256967   5.973   5.668  14.440 -1.7335  0.1961  0.0074
11826TIP3   OH256968   0.914   6.108   2.595 -0.2461 -0.3784 -0.2358
11826TIP3    H156969   0.989   6.065   2.555 -0.3100 -0.4791 -0.2496
11826TIP3    H256970   0.839   6.054   2.569 -0.1511 -1.1532  1.0321
11827TIP3   OH256971   0.419   5.767   1.858  0.4911  0.3801  0.6796
11827TIP3    H156972   0.367   5.842   1.887 -1.6202 -0.5012 -0.7173
11827TIP3    H256973   0.466   5.799   1.781 -2.6193 -0.4850 -1.6663
11828TIP3   OH256974   2.176   5.835   3.202  0.5882 -0.2651 -0.0002
11828TIP3    H156975   2.168   5.756   3.149  0.8369 -2.4239  3.0382
11828TIP3    H256976   2.262   5.871   3.179 -0.5320  0.5319 -3.1706
11829TIP3   OH256977   0.434   3.036  16.293  0.2008  0.2585  0.1544
11829TIP3    H156978   0.467   3.067  16.377  1.9656  0.4067 -0.5681
11829TIP3    H256979   0.407   2.946  16.310 -0.6365  0.6878  1.1712
11830TIP3   OH256980   0.158   2.060  15.591 -0.6533  0.1963 -0.2931
11830TIP3    H156981   0.196   2.129  15.646 -0.3096 -0.4273  0.2564
11830TIP3    H256982   0.195   2.074  15.504  0.8044 -0.3827  0.2264
11831TIP3   OH256983   2.014   1.208   4.275  0.3377  0.2020  0.5183
11831TIP3    H156984   2.092   1.224   4.222 -1.1581  1.9429 -1.2016
11831TIP3    H256985   2.027   1.121   4.311  2.1024 -0.3856 -1.4692
11832TIP3   OH256986   1.814   5.347  12.385  0.3372 -0.0086 -0.4393
11832TIP3    H156987   1.789   5.438  12.375  2.1148  0.5008 -0.3964
11832TIP3    H256988   1.880   5.347  12.454  0.3359 -1.3137 -0.4253
11833TIP3   OH256989   2.320   2.412   3.131  0.2243 -1.0676 -0.1241
11833TIP3    H156990   2.258   2.349   3.095 -0.9998  0.5019 -0.8000
11833TIP3    H256991   2.298   2.495   3.088  2.1718 -0.2914  0.3292
11834TIP3   OH256992   5.284   5.105  15.227 -0.0475 -0.0673 -0.2198
11834TIP3    H156993   5.350   5.038  15.241  0.1803  0.3918  0.9771
11834TIP3    H256994   5.309   5.177  15.285 -1.3757  0.2616 -0.0187
11835TIP3   OH256995   0.886   3.327   2.069  0.1196 -0.4476 -0.2631
11835TIP3    H156996   0.937   3.316   1.989 -0.9004 -1.6021 -0.7711
11835TIP3    H256997   0.796   3.342   2.039 -0.2777 -0.9021  0.6586
11836TIP3   OH256998   5.068   3.730  14.592 -0.4463  0.6836 -0.0784
11836TIP3    H156999   5.024   3.647  14.614  0.5291  0.2100  0.0996
11836TIP3    H257000   5.154   3.704  14.560 -0.6409  1.5572 -1.3804
11837TIP3   OH257001   2.597   5.553  16.487  0.4712 -0.9793  0.4151
11837TIP3    H157002   2.532   5.577  16.421  0.1082 -0.7489  0.8552
11837TIP3    H257003   2.667   5.510  16.437 -0.3517 -1.8886  0.0374
11838TIP3   OH257004   3.234   5.160  11.660  0.0324 -0.4122 -0.4172
11838TIP3    H157005   3.183   5.155  11.741 -0.7980  0.6648 -0.8647
11838TIP3    H257006   3.313   5.207  11.685  0.3908 -1.2447  0.0593
11839TIP3   OH257007   0.195   2.887   4.976 -0.1527 -0.4898 -0.1122
11839TIP3    H157008   0.168   2.933   5.055 -0.9498 -0.8777 -0.1582
11839TIP3    H257009   0.248   2.951   4.928 -1.2161  0.3760 -0.1541
11840TIP3   OH257010   1.228   3.758  13.387  0.1949  0.1417  0.4861
11840TIP3    H157011   1.237   3.723  13.298 -2.0634 -1.9362  1.0045
11840TIP3    H257012   1.137   3.785  13.393  0.6735  1.5372  1.7551
11841TIP3   OH257013   6.511   5.499   0.038 -0.2377  0.5317 -0.0163
11841TIP3    H157014   6.467   5.578   0.070 -1.9858 -1.0201  1.4921
11841TIP3    H257015   6.495   5.433   0.105  2.0210 -0.8722 -0.8013
11842TIP3   OH257016   1.994   1.267   1.854  0.0917  0.7785  0.1006
11842TIP3    H157017   2.035   1.301   1.774  1.0541 -2.0297 -0.6724
11842TIP3    H257018   1.944   1.191   1.825  1.4400 -1.0322  2.2827
11843TIP3   OH257019   3.055   2.138   0.408  0.0513  0.2325  0.2814
11843TIP3    H157020   3.090   2.055   0.374 -1.1920 -0.1260 -0.1469
11843TIP3    H257021   3.106   2.205   0.362 -0.6176 -0.2693 -1.2372
11844TIP3   OH257022   5.318   2.693  17.257 -0.3030  0.3021 -0.2468
11844TIP3    H157023   5.400   2.738  17.277 -1.2049  1.7695  0.2232
11844TIP3    H257024   5.328   2.663  17.167  1.0572 -0.2476  0.0743
11845TIP3   OH257025   5.835   4.985  16.389 -0.3467  0.5209  0.0328
11845TIP3    H157026   5.765   4.949  16.444 -0.6174  0.8265 -0.1128
11845TIP3    H257027   5.857   4.914  16.328 -1.4862  0.9037 -0.8308
11846TIP3   OH257028   6.043   5.311  11.782  0.1103 -0.5568 -0.2155
11846TIP3    H157029   6.065   5.382  11.842 -1.6195 -2.5059  2.8739
11846TIP3    H257030   5.960   5.337  11.742  0.0001 -0.3566  0.1404
11847TIP3   OH257031   3.724   5.593   4.307 -0.9190 -0.0984  0.9654
11847TIP3    H157032   3.741   5.631   4.221 -0.3171  0.4916  1.3380
11847TIP3    H257033   3.658   5.525   4.291  0.5235 -1.2373 -0.2343
11848TIP3   OH257034   4.234   2.261  12.276 -0.1625 -0.1757  0.3642
11848TIP3    H157035   4.196   2.174  12.261 -2.8753  1.2944 -1.6928
11848TIP3    H257036   4.305   2.267  12.213 -0.6654 -0.5102 -0.2460
11849TIP3   OH257037   4.286   4.612   4.217  0.1943  0.0316  0.2192
11849TIP3    H157038   4.294   4.542   4.153 -3.7533  0.0712 -0.4182
11849TIP3    H257039   4.249   4.571   4.295  0.9114  0.8052  0.9855
11850TIP3   OH257040   3.809   3.956  11.875  0.1812  0.2339 -0.4109
11850TIP3    H157041   3.890   3.965  11.925 -0.8714 -0.7301  1.5544
11850TIP3    H257042   3.814   4.023  11.807  1.4936  1.8645  1.2523
11851TIP3   OH257043   6.264   3.729  14.533 -0.3323  0.1867  0.1553
11851TIP3    H157044   6.228   3.643  14.517 -0.3738  0.2979 -0.3729
11851TIP3    H257045   6.299   3.757  14.447 -0.8808  0.9520  0.1746
11852TIP3   OH257046   5.894   5.803   2.109 -0.0246 -0.1473  0.2346
11852TIP3    H157047   5.800   5.815   2.096  0.2966  0.2340 -1.9928
11852TIP3    H257048   5.925   5.886   2.144 -0.3659  0.0787  0.0058
11853TIP3   OH257049   1.050   4.709   2.780  0.3744  0.0264  0.3225
11853TIP3    H157050   1.100   4.791   2.777  0.9316 -0.3353 -0.6870
11853TIP3    H257051   0.960   4.737   2.798  0.6127  0.8423  0.2880
11854TIP3   OH257052   5.695   4.680   1.193 -0.3365  0.0699  0.1185
11854TIP3    H157053   5.745   4.610   1.150 -1.1376 -1.2918  1.3249
11854TIP3    H257054   5.752   4.756   1.190  1.1982 -1.0532  0.1349
11855TIP3   OH257055   4.752   5.827  13.640 -0.2165 -0.5611  0.2897
11855TIP3    H157056   4.829   5.776  13.665  1.2004  1.3106 -0.1182
11855TIP3    H257057   4.725   5.790  13.556  0.3035 -1.1438  0.3771
11856TIP3   OH257058   0.317   4.827  15.757 -0.8608  0.0392  0.5919
11856TIP3    H157059   0.227   4.793  15.757 -1.2031  0.9246  1.2360
11856TIP3    H257060   0.310   4.914  15.719 -0.4799  0.6129  1.7941
11857TIP3   OH257061   1.181   4.867   2.492  0.0285 -0.1003 -0.1536
11857TIP3    H157062   1.092   4.901   2.495  0.6207  1.6680 -1.8121
11857TIP3    H257063   1.216   4.883   2.580 -0.4312  1.5809 -0.2632
11858TIP3   OH257064   4.365   4.358   4.115  0.0441  0.2062 -0.1375
11858TIP3    H157065   4.336   4.304   4.043 -0.2838  0.3629 -0.1214
11858TIP3    H257066   4.368   4.299   4.190 -0.4218  0.2396 -0.0949
11859TIP3   OH257067   1.063   3.088   6.014  0.2840 -0.1918 -0.0427
11859TIP3    H157068   0.999   3.094   5.944  1.0341  0.6437 -0.6571
11859TIP3    H257069   1.033   3.014   6.067 -0.6701 -0.3860 -0.8440
11860TIP3   OH257070   1.880   6.511   2.653 -0.6997 -0.0880 -0.2159
11860TIP3    H157071   1.826   6.575   2.699 -1.7480 -0.0763 -1.4716
11860TIP3    H257072   1.881   6.541   2.562  2.0139  0.3249 -0.0960
11861TIP3   OH257073   1.174   1.810  12.425 -0.3945 -0.1787 -0.2732
11861TIP3    H157074   1.136   1.879  12.371 -1.5793 -0.1182  0.6013
11861TIP3    H257075   1.168   1.731  12.371 -0.6857  0.0658 -0.6018
11862TIP3   OH257076   6.162   3.777  17.048  0.3900 -0.0286 -0.4951
11862TIP3    H157077   6.173   3.705  17.111  0.2808 -1.1831 -1.7604
11862TIP3    H257078   6.251   3.807  17.031  0.4493  0.0393 -0.0686
11863TIP3   OH257079   6.308   5.762  10.683  0.1362 -0.0837  0.2778
11863TIP3    H157080   6.385   5.784  10.632 -0.1251 -0.1054 -0.1250
11863TIP3    H257081   6.287   5.842  10.731 -0.5937  0.4501 -0.9004
11864TIP3   OH257082   4.851   4.251   2.523  0.3915 -0.2414 -0.5377
11864TIP3    H157083   4.839   4.258   2.428 -1.1806  0.6250 -0.2848
11864TIP3    H257084   4.819   4.164   2.545 -0.3373 -0.0011 -0.6390
11865TIP3   OH257085   0.043   1.361   2.117  0.3445 -0.3920 -0.3940
11865TIP3    H157086  -0.022   1.297   2.144 -0.2783  0.7416  0.8251
11865TIP3    H257087  -0.004   1.444   2.115  2.4283  1.0470  3.6680
11866TIP3   OH257088   2.055   3.133  12.302 -0.2732 -0.0808  0.0552
11866TIP3    H157089   2.035   3.040  12.287 -0.9580 -0.1248  1.2031
11866TIP3    H257090   2.149   3.135  12.318 -0.1936 -0.5271 -0.3363
11867TIP3   OH257091   0.713   6.243  15.283 -0.1282  0.0139 -0.0449
11867TIP3    H157092   0.683   6.196  15.361  0.7914 -1.1634 -0.3842
11867TIP3    H257093   0.634   6.285  15.248 -0.7250 -0.2593  0.9680
11868TIP3   OH257094   4.392   6.185  13.448 -0.2496  0.5864  0.2859
11868TIP3    H157095   4.482   6.218  13.459  0.4696 -0.6448 -1.5519
11868TIP3    H257096   4.337   6.252  13.488  1.5400  0.8949  2.3599
11869TIP3   OH257097   1.729   5.571  13.415  1.0439 -0.3289 -1.0379
11869TIP3    H157098   1.674   5.646  13.439  0.5882 -0.6805 -0.9804
11869TIP3    H257099   1.722   5.565  13.320 -0.5483 -1.5473 -0.8515
11870TIP3   OH257100   1.059   4.537  13.218  0.2807 -0.3287 -0.0393
11870TIP3    H157101   1.154   4.548  13.219  0.1672  0.8177 -0.7361
11870TIP3    H257102   1.025   4.625  13.202 -0.9139 -0.6736  0.5361
11871TIP3   OH257103   5.254   6.637   3.432  0.4834 -0.0547 -0.1816
11871TIP3    H157104   5.317   6.601   3.370  0.0262  0.4798 -0.9783
11871TIP3    H257105   5.176   6.655   3.379  0.0134  0.2276  0.5892
11872TIP3   OH257106   5.531   6.490  15.717 -0.3625  0.2387  0.2523
11872TIP3    H157107   5.451   6.513  15.764  0.6522 -0.7404  2.5084
11872TIP3    H257108   5.601   6.496  15.783  1.1668 -0.6661 -1.2414
11873TIP3   OH257109   0.299   1.874   3.729  0.1636  0.0464 -0.4141
11873TIP3    H157110   0.304   1.782   3.704  2.7778  0.3785 -1.2713
11873TIP3    H257111   0.278   1.872   3.822 -3.4195 -1.3114 -1.1630
11874TIP3   OH257112   4.400   5.190   3.752  0.6340  0.3041  0.0184
11874TIP3    H157113   4.351   5.121   3.795  1.5953  0.1416  0.8738
11874TIP3    H257114   4.438   5.148   3.675  0.6562  0.0497  0.1699
11875TIP3   OH257115   0.729   5.558  14.651  0.0226 -0.5515 -0.0783
11875TIP3    H157116   0.808   5.545  14.598 -0.3070 -0.5182 -0.5733
11875TIP3    H257117   0.723   5.653  14.661 -0.2857 -0.5291 -0.5271
11876TIP3   OH257118   2.737   2.027   5.043 -0.0847  0.3339 -0.4707
11876TIP3    H157119   2.789   1.966   5.095  0.1476  1.1966  0.3210
11876TIP3    H257120   2.651   2.028   5.085 -0.3349 -0.0623 -0.9686
11877TIP3   OH257121   3.509   2.624  14.149 -0.0796  0.5956 -0.2507
11877TIP3    H157122   3.429   2.608  14.098 -0.2290 -1.2009  0.5096
11877TIP3    H257123   3.477   2.647  14.237  0.2341 -0.5723  0.1761
11878TIP3   OH257124   2.964   5.779   3.811  0.3163  0.0033  0.0312
11878TIP3    H157125   2.930   5.690   3.817  0.8735 -0.3096 -1.2517
11878TIP3    H257126   2.896   5.827   3.762  1.1681 -0.3542 -1.5489
11879TIP3   OH257127   1.762   0.056   4.518  0.4451 -0.7956 -0.0235
11879TIP3    H157128   1.808  -0.027   4.509  3.0759  0.4558  1.1519
11879TIP3    H257129   1.733   0.058   4.609  0.0807 -0.6112 -0.1450
11880TIP3   OH257130   4.041   2.959  12.585  0.0908 -0.0017  0.1513
11880TIP3    H157131   4.055   3.020  12.513  0.7482 -0.8466 -0.4475
11880TIP3    H257132   4.122   2.962  12.636 -0.4911  0.8317  1.0434
11881TIP3   OH257133   2.689   2.149   2.313 -0.1978 -0.0897  0.1817
11881TIP3    H157134   2.620   2.137   2.378  0.9278 -1.0849  1.2155
11881TIP3    H257135   2.713   2.241   2.319 -1.6775  0.3356 -0.4313
11882TIP3   OH257136   2.639   3.816  13.881 -0.1420 -0.1850 -0.1008
11882TIP3    H157137   2.673   3.855  13.961 -0.8884  0.9800 -0.3389
11882TIP3    H257138   2.648   3.885  13.815  0.1721 -1.0239 -0.9559
11883TIP3   OH257139   0.206   6.736   5.271 -0.0756 -0.0824 -0.4081
11883TIP3    H157140   0.263   6.805   5.307 -1.3969  0.6036  0.4256
11883TIP3    H257141   0.185   6.766   5.183  0.3975 -0.0559 -0.5137
11884TIP3   OH257142   0.288   2.301  11.883  0.0071  0.4307 -0.0367
11884TIP3    H157143   0.352   2.325  11.816 -0.8845  2.3663 -0.2111
11884TIP3    H257144   0.241   2.382  11.902 -0.5263 -0.3541  2.1143
11885TIP3   OH257145   5.793   0.426   1.786  0.0968 -0.0622  0.0621
11885TIP3    H157146   5.771   0.441   1.878 -0.8553  1.2848 -0.3713
11885TIP3    H257147   5.717   0.382   1.749  0.0771  0.2696 -0.3035
11886TIP3   OH257148   4.581   4.952   3.153 -0.2211 -0.4304  0.2020
11886TIP3    H157149   4.554   4.894   3.224 -0.9017  0.2470  0.4967
11886TIP3    H257150   4.502   4.965   3.101 -0.2494  0.8044  0.5381
11887TIP3   OH257151   4.538   3.475   3.210  0.2390 -0.2897  0.2997
11887TIP3    H157152   4.542   3.532   3.286 -1.4722  1.1191 -0.6219
11887TIP3    H257153   4.619   3.494   3.161 -0.3214  1.3806 -0.0049
11888TIP3   OH257154   1.164   5.737   4.332  0.0851 -0.1373 -0.1778
11888TIP3    H157155   1.178   5.830   4.317 -1.2169  0.2103  0.6846
11888TIP3    H257156   1.218   5.717   4.409 -0.8146  0.2602  0.5725
11889TIP3   OH257157   2.729   3.177   3.851  0.0211  0.4067  0.0269
11889TIP3    H157158   2.663   3.108   3.847  1.1093 -0.7159  0.8026
11889TIP3    H257159   2.777   3.170   3.769  0.9258 -0.5900  0.6311
11890TIP3   OH257160   4.510   1.593   4.042 -0.3857 -0.7650  0.2059
11890TIP3    H157161   4.548   1.531   3.980  1.4755 -1.1102  1.6400
11890TIP3    H257162   4.557   1.576   4.124 -2.7643 -0.3118  1.7123
11891TIP3   OH257163   0.833   0.855  15.543 -0.2938  0.6840 -0.1647
11891TIP3    H157164   0.783   0.834  15.621 -0.1357 -0.5654 -0.3827
11891TIP3    H257165   0.767   0.874  15.476 -0.4812 -0.2542 -0.2598
11892TIP3   OH257166   3.076   0.305  14.222  0.6464  0.2294  0.3226
11892TIP3    H157167   3.138   0.377  14.211  0.5225  0.2783 -0.0653
11892TIP3    H257168   3.100   0.242  14.155 -1.1638  1.2729 -1.3816
11893TIP3   OH257169   0.480   3.549   2.223  0.1162  0.2030 -0.3259
11893TIP3    H157170   0.410   3.612   2.235 -0.4315 -0.8224  2.1665
11893TIP3    H257171   0.469   3.486   2.295  3.2643 -0.2505 -0.1681
11894TIP3   OH257172   2.741   3.191   1.630 -0.0004 -0.4063 -0.0946
11894TIP3    H157173   2.715   3.127   1.695  0.7144 -0.0654  0.5355
11894TIP3    H257174   2.677   3.262   1.639 -0.8678 -1.0807 -0.8830
11895TIP3   OH257175   1.730   0.014  16.368 -0.1733  0.4069 -0.0951
11895TIP3    H157176   1.717   0.083  16.432 -0.6800  1.2994 -1.1294
11895TIP3    H257177   1.796  -0.044  16.407  1.0702  2.0619  0.3290
11896TIP3   OH257178   2.977   1.459   4.298  0.4454 -0.3901 -0.6004
11896TIP3    H157179   3.047   1.475   4.361 -1.3386  0.8214  1.0986
11896TIP3    H257180   3.011   1.495   4.216  0.8504  2.5313  0.7772
11897TIP3   OH257181   5.930   2.362  12.568  0.0544  0.2165 -0.3678
11897TIP3    H157182   5.950   2.269  12.574 -3.0717 -0.5991 -1.4722
11897TIP3    H257183   5.974   2.391  12.488  0.2664 -0.5275 -0.5268
11898TIP3   OH257184   5.585   4.963   0.310 -0.2764  0.4908  0.4845
11898TIP3    H157185   5.624   5.050   0.300 -2.3140  1.5758  1.4983
11898TIP3    H257186   5.499   4.980   0.349 -0.5373 -2.0164  1.1154
11899TIP3   OH257187   0.639   6.507  14.363 -0.2783 -0.3653  0.1622
11899TIP3    H157188   0.724   6.464  14.372 -0.2027  0.1835  2.2915
11899TIP3    H257189   0.659   6.601  14.358 -0.8628 -0.0357  3.1466
11900TIP3   OH257190   0.885   4.609   6.530  0.1179 -0.2385  0.1959
11900TIP3    H157191   0.790   4.597   6.536  0.1197 -0.1736  0.3689
11900TIP3    H257192   0.920   4.520   6.522 -0.0101 -0.2123 -0.6967
11901TIP3   OH257193   2.499   6.666   0.885 -0.5258 -0.2983 -0.0233
11901TIP3    H157194   2.453   6.747   0.864 -0.2755 -0.0887  0.2309
11901TIP3    H257195   2.524   6.676   0.977 -1.7354 -1.2629  0.4209
11902TIP3   OH257196   1.999   2.334   3.297  0.3451  0.1355  0.3981
11902TIP3    H157197   2.043   2.321   3.381 -0.6514 -1.6287  0.6706
11902TIP3    H257198   2.037   2.267   3.240 -0.8361 -0.3812  0.1977
11903TIP3   OH257199   5.457   0.622   0.217 -0.8027  0.2565 -0.1331
11903TIP3    H157200   5.409   0.695   0.177 -3.1663 -0.7331  0.7827
11903TIP3    H257201   5.407   0.545   0.191  2.4066 -1.2157 -2.1928
11904TIP3   OH257202   0.747   1.619   6.145  0.2772 -0.6590  0.2386
11904TIP3    H157203   0.665   1.599   6.100  0.6085 -1.3354 -0.0841
11904TIP3    H257204   0.800   1.665   6.080  0.3745 -0.7426  0.2582
11905TIP3   OH257205   2.892   0.114   0.532  0.5176 -0.5996 -0.2719
11905TIP3    H157206   2.863   0.176   0.598 -0.2965 -1.0101 -0.2388
11905TIP3    H257207   2.861   0.150   0.449  0.1222 -0.9203 -0.2616
11906TIP3   OH257208   6.051   4.273   4.928  0.1261 -0.6901  0.5735
11906TIP3    H157209   5.994   4.235   4.861 -1.0437  3.9571 -1.2612
11906TIP3    H257210   6.134   4.289   4.882  0.0407  0.4944  0.8231
11907TIP3   OH257211   3.675   1.149  14.215 -0.4292 -0.2313  0.2981
11907TIP3    H157212   3.706   1.188  14.296 -2.7577 -0.7243  1.4552
11907TIP3    H257213   3.666   1.222  14.154 -0.8835  0.4617  1.1999
11908TIP3   OH257214   1.397   3.432  11.862 -0.5311  0.2306  0.5131
11908TIP3    H157215   1.341   3.453  11.937 -0.9839 -0.3490  0.3357
11908TIP3    H257216   1.432   3.345  11.882 -0.0361  0.4064  0.4151
11909TIP3   OH257217   6.381   4.625   3.997 -0.6700 -0.0010  0.9984
11909TIP3    H157218   6.362   4.551   3.939 -1.3545 -0.4188  1.7585
11909TIP3    H257219   6.444   4.678   3.948 -0.9367 -0.5660  0.0357
11910TIP3   OH257220   2.613   4.484  13.338 -0.2870 -0.0351  0.6404
11910TIP3    H157221   2.705   4.484  13.314  0.1076  0.9749  2.0407
11910TIP3    H257222   2.592   4.576  13.354 -1.7860 -0.1503 -0.5478
11911TIP3   OH257223   3.910   5.085  13.295  0.2194  0.8956 -0.3745
11911TIP3    H157224   3.890   5.178  13.282 -1.5722  0.5040 -0.6028
11911TIP3    H257225   3.951   5.057  13.214  1.1146  1.5662 -0.1640
11912TIP3   OH257226   4.201   5.167   0.245 -0.2171 -0.0534 -0.0086
11912TIP3    H157227   4.209   5.254   0.206  2.1664  0.4028  1.4314
11912TIP3    H257228   4.179   5.184   0.337  1.4259 -0.9147  0.5612
11913TIP3   OH257229   6.406   0.153  14.500 -0.8990  0.5241  0.1455
11913TIP3    H157230   6.318   0.136  14.532 -0.4898  0.9721  1.6041
11913TIP3    H257231   6.399   0.235  14.451 -1.5479 -0.1756 -0.9354
11914TIP3   OH257232   5.849   0.735  11.083 -0.2536 -0.1917  0.1408
11914TIP3    H157233   5.828   0.647  11.050  0.6536 -0.0608 -0.8289
11914TIP3    H257234   5.927   0.760  11.034  0.4402  0.4989  1.5954
11915TIP3   OH257235   4.929   3.924   0.722  0.4633 -0.0134 -0.1768
11915TIP3    H157236   4.860   3.868   0.757 -1.0353  0.4551 -2.2277
11915TIP3    H257237   4.950   3.984   0.793 -1.6639  0.1985  0.3219
11916TIP3   OH257238   0.165   2.627  11.728  0.3880 -0.2853  0.4574
11916TIP3    H157239   0.251   2.638  11.687  0.4799  0.8692  0.9444
11916TIP3    H257240   0.182   2.640  11.821 -0.1582 -1.0212  0.6691
11917TIP3   OH257241   0.064   3.772  11.204 -0.5318 -0.1186  0.1270
11917TIP3    H157242  -0.011   3.790  11.148  0.9391 -0.0143 -1.8420
11917TIP3    H257243   0.129   3.838  11.181 -0.2676  0.5912  2.7122
11918TIP3   OH257244   2.196   2.000   1.629 -1.0203 -0.1887 -0.0599
11918TIP3    H157245   2.226   2.073   1.576 -0.3055  0.3270  1.0448
11918TIP3    H257246   2.198   1.925   1.570 -0.3913  0.4042 -0.7972
11919TIP3   OH257247   2.233   4.317   4.922  0.5669 -0.1535  0.5986
11919TIP3    H157248   2.236   4.411   4.943 -0.8339  0.1485 -0.4574
11919TIP3    H257249   2.173   4.280   4.987  0.3647 -0.1479  0.4154
11920TIP3   OH257250   5.264   0.570  11.563 -0.4276 -0.0103 -0.0718
11920TIP3    H157251   5.268   0.477  11.538  0.8947  0.4065 -1.5075
11920TIP3    H257252   5.305   0.616  11.489 -0.4035  1.6542  0.9616
11921TIP3   OH257253   3.520   1.658  15.609 -0.0324 -0.5411  0.3794
11921TIP3    H157254   3.487   1.737  15.653  1.3355 -0.6295  1.5763
11921TIP3    H257255   3.477   1.586  15.654 -1.8053 -0.5063 -1.1505
11922TIP3   OH257256   5.812   6.479   1.121  0.7362  0.1025  0.2408
11922TIP3    H157257   5.873   6.549   1.099  0.1876 -0.2010 -2.3198
11922TIP3    H257258   5.744   6.523   1.173  0.8797  1.2897 -0.5550
11923TIP3   OH257259   2.955   5.815   0.915 -0.3532  0.8810  0.0585
11923TIP3    H157260   2.869   5.778   0.896  0.2390 -0.3416 -0.2285
11923TIP3    H257261   2.983   5.772   0.996 -0.2014  1.6132  0.4048
11924TIP3   OH257262   2.976   1.287  12.922 -0.2156 -0.0167  0.5231
11924TIP3    H157263   2.911   1.358  12.925  0.1929  0.3398  0.8481
11924TIP3    H257264   3.060   1.330  12.938 -0.2835 -0.9817  3.6527
11925TIP3   OH257265   2.215   4.993   5.589  0.0407 -0.9104 -0.4512
11925TIP3    H157266   2.296   5.044   5.593  0.2778 -1.4114  1.5640
11925TIP3    H257267   2.240   4.911   5.545  0.3330 -0.5516 -0.9617
11926TIP3   OH257268   0.109   1.051  13.641 -0.1353 -0.1779  0.0179
11926TIP3    H157269   0.059   1.131  13.626  0.2353 -0.1081 -0.8444
11926TIP3    H257270   0.045   0.989  13.677 -0.7473  0.0404 -0.6873
11927TIP3   OH257271   2.236   3.436  14.993  0.6080 -0.8750 -0.1504
11927TIP3    H157272   2.303   3.383  14.950  2.5697  0.3464  1.3640
11927TIP3    H257273   2.283   3.511  15.030 -1.6752  0.3568  0.3903
11928TIP3   OH257274   6.719   2.865  10.913 -0.8050  0.8364 -0.3888
11928TIP3    H157275   6.644   2.891  10.860 -1.2077  2.5917  1.0315
11928TIP3    H257276   6.683   2.850  11.000 -0.1972 -2.3137 -0.5864
11929TIP3   OH257277   2.982   1.852  15.340 -0.1578  0.0039  0.0247
11929TIP3    H157278   3.024   1.784  15.287  0.8738  0.7317 -0.0975
11929TIP3    H257279   2.989   1.931  15.286  0.7959  0.7273  1.1943
11930TIP3   OH257280   3.682   1.026   5.387 -0.1415 -0.0995  0.1320
11930TIP3    H157281   3.736   1.034   5.466  1.0210  0.0764 -0.6741
11930TIP3    H257282   3.617   0.959   5.410  0.0404  0.1089  1.3178
11931TIP3   OH257283   2.792   3.048  11.057  0.4257 -0.0969  0.1534
11931TIP3    H157284   2.795   3.072  10.965 -1.8912 -0.5726 -0.0844
11931TIP3    H257285   2.880   3.018  11.077  0.8409 -0.4174 -2.0205
11932TIP3   OH257286   0.972   3.380  15.481  0.2919  0.0795  0.4650
11932TIP3    H157287   0.930   3.352  15.563  1.0538 -0.5044  0.6668
11932TIP3    H257288   0.929   3.463  15.459 -0.7007 -0.3221  0.8553
11933TIP3   OH257289   2.437   3.754   5.900 -0.0046 -0.2127  0.4483
11933TIP3    H157290   2.530   3.747   5.879  0.2706  1.9443  0.8536
11933TIP3    H257291   2.430   3.729   5.992  0.0908 -0.8713  0.2785
11934TIP3   OH257292   1.252   6.590   1.813  0.2629 -0.4681 -0.1766
11934TIP3    H157293   1.186   6.522   1.826  0.0462 -0.4800 -1.2906
11934TIP3    H257294   1.202   6.667   1.788  0.5632 -0.0626  0.4423
11935TIP3   OH257295   4.591   4.413   4.475  0.1186 -0.0980  0.0010
11935TIP3    H157296   4.528   4.418   4.547  0.7158 -1.3997  0.6301
11935TIP3    H257297   4.547   4.360   4.409 -0.3091  0.8438 -0.4783
11936TIP3   OH257298   1.442   6.348  15.534  0.4865 -0.6600 -0.2075
11936TIP3    H157299   1.424   6.255  15.549 -1.0101 -0.4589 -0.6388
11936TIP3    H257300   1.394   6.393  15.604  1.2596 -0.2124  0.0388
11937TIP3   OH257301   6.610   6.456   0.523  0.0250 -0.1333 -0.5085
11937TIP3    H157302   6.530   6.476   0.571 -0.0297 -1.5542  0.0321
11937TIP3    H257303   6.673   6.523   0.551 -0.7590  0.5511 -0.3861
11938TIP3   OH257304   3.083   3.082  12.181 -0.5289  0.3687 -0.3401
11938TIP3    H157305   3.059   3.174  12.193  0.7417  1.1231 -3.2372
11938TIP3    H257306   3.150   3.066  12.248 -0.6652  1.5658  0.0979
11939TIP3   OH257307   5.812   4.343  17.213  0.4114  0.6776  0.1253
11939TIP3    H157308   5.722   4.351  17.244  0.6057  1.1938  0.5455
11939TIP3    H257309   5.818   4.405  17.141  0.1184 -0.1329 -0.6036
11940TIP3   OH257310   0.430   1.703   0.392  0.1163  0.1298 -0.1433
11940TIP3    H157311   0.353   1.647   0.400  0.3843 -0.3306 -0.7530
11940TIP3    H257312   0.399   1.790   0.418  0.2634 -0.7220  3.0384
11941TIP3   OH257313   5.255   4.384  11.092 -0.9691  0.1337  0.5637
11941TIP3    H157314   5.324   4.409  11.031 -1.2956 -0.0345  0.1186
11941TIP3    H257315   5.209   4.466  11.111 -0.2435  0.3541  1.3706
11942TIP3   OH257316   3.152   3.851   3.060  0.5497  0.7838  0.2958
11942TIP3    H157317   3.056   3.854   3.061  0.4807 -0.6466 -0.3784
11942TIP3    H257318   3.179   3.940   3.039 -0.6642  0.8441 -1.0452
11943TIP3   OH257319   4.947   3.093  16.547  0.4523  0.1935  0.4647
11943TIP3    H157320   5.041   3.075  16.536  0.9733  1.1617  3.1078
11943TIP3    H257321   4.942   3.151  16.623 -2.3255  0.0066  0.4744
11944TIP3   OH257322   1.890   3.895  11.056 -0.6291  0.6856 -0.0881
11944TIP3    H157323   1.832   3.828  11.020 -0.1551  0.3314 -0.1980
11944TIP3    H257324   1.975   3.852  11.064 -0.6114  0.8916  1.0269
11945TIP3   OH257325   0.164   2.747  15.979  0.4904 -0.1722 -0.4329
11945TIP3    H157326   0.217   2.673  16.010  0.9658 -0.4879 -1.9546
11945TIP3    H257327   0.215   2.824  16.004  0.8473 -0.4134 -0.4096
11946TIP3   OH257328   4.554   0.070  16.783 -0.3024 -0.3302  0.0680
11946TIP3    H157329   4.595   0.098  16.864  1.0218 -1.2609 -0.2630
11946TIP3    H257330   4.462   0.098  16.791 -0.2744 -0.7683  2.0231
11947TIP3   OH257331   5.954   4.807   6.450 -0.2271  0.1867 -0.5505
11947TIP3    H157332   5.859   4.813   6.452 -0.3696 -1.9163  1.0700
11947TIP3    H257333   5.983   4.891   6.413 -2.6328  1.3361  0.0870
11948TIP3   OH257334   6.466   6.390  13.887  0.2542 -0.0666  0.1001
11948TIP3    H157335   6.507   6.375  13.972 -0.4904  0.3273  0.5362
11948TIP3    H257336   6.532   6.439  13.837  0.6872 -0.2848  0.4497
11949TIP3   OH257337   6.390   2.032  15.715  0.3290  0.0300 -0.0674
11949TIP3    H157338   6.444   1.953  15.708 -2.8090 -2.1067 -1.0994
11949TIP3    H257339   6.372   2.057  15.624  0.9528  1.7182  0.2594
11950TIP3   OH257340   5.498   6.300  12.496  0.3578  0.1819 -0.0447
11950TIP3    H157341   5.415   6.258  12.518  0.3491  0.2111 -0.0216
11950TIP3    H257342   5.562   6.228  12.500  0.8529  0.7037  2.9322
11951TIP3   OH257343   0.569   3.275   0.644 -0.0390  0.3147 -0.0126
11951TIP3    H157344   0.497   3.226   0.604  1.3689 -2.7774  1.0999
11951TIP3    H257345   0.546   3.281   0.736  0.1934  1.0363  0.0010
11952TIP3   OH257346   0.955   0.803  14.853 -0.0649  0.7105 -0.3221
11952TIP3    H157347   0.977   0.735  14.789 -0.8267  0.6484 -0.5208
11952TIP3    H257348   0.860   0.806  14.853 -0.1924 -0.8098  2.3681
11953TIP3   OH257349   4.722   4.154   4.563 -0.1416  0.2624 -0.1892
11953TIP3    H157350   4.638   4.121   4.597  0.0927 -0.3262 -0.1684
11953TIP3    H257351   4.723   4.247   4.587 -0.1479 -0.0574  1.1029
11954TIP3   OH257352   0.001   1.134   0.579 -0.2317 -0.0943 -0.6558
11954TIP3    H157353  -0.088   1.106   0.555 -0.9894  2.2890 -0.6872
11954TIP3    H257354   0.001   1.137   0.674 -0.0724 -0.4308 -0.6441
11955TIP3   OH257355   4.047   5.093  13.730  0.0167  0.5649 -0.8088
11955TIP3    H157356   3.987   5.167  13.731  0.8602  1.2575 -0.3562
11955TIP3    H257357   4.007   5.028  13.788  0.7855  1.9119  1.3029
11956TIP3   OH257358   3.589   0.799  14.169  0.2851 -0.8050  0.0106
11956TIP3    H157359   3.605   0.850  14.090 -0.4477 -1.5650 -0.6401
11956TIP3    H257360   3.500   0.764  14.158 -0.5878  0.6685  2.0555
11957TIP3   OH257361   1.677   5.879  14.350  0.1911  0.0511 -0.8602
11957TIP3    H157362   1.663   5.894  14.256 -1.9953  0.8214 -0.4335
11957TIP3    H257363   1.658   5.786  14.362  0.4664 -0.0475 -1.1692
11958TIP3   OH257364   4.097   2.751  13.432  0.2282  0.1180 -0.9203
11958TIP3    H157365   4.169   2.692  13.452 -0.7192 -0.7552 -0.0481
11958TIP3    H257366   4.116   2.783  13.344  0.3443 -2.0993 -1.7239
11959TIP3   OH257367   2.340   2.842   0.242  0.1855  0.1323 -0.2298
11959TIP3    H157368   2.374   2.901   0.309 -0.5081 -1.2617  1.3696
11959TIP3    H257369   2.368   2.755   0.270 -0.6627 -0.5376 -1.4054
11960TIP3   OH257370   5.937   4.249  11.738  0.5318  0.2121 -0.3999
11960TIP3    H157371   5.919   4.328  11.787 -0.2536 -0.9073  1.1647
11960TIP3    H257372   6.003   4.202  11.790 -1.4453 -1.7215  0.4294
11961TIP3   OH257373   1.811   4.221   4.364  0.2689 -0.0807  0.0833
11961TIP3    H157374   1.780   4.194   4.278  0.0110 -1.4712  0.6081
11961TIP3    H257375   1.864   4.148   4.395 -1.0266 -0.3053  1.8232
11962TIP3   OH257376   0.818   0.968   5.517  0.0437  0.4192 -0.4481
11962TIP3    H157377   0.847   0.894   5.463  0.0551 -0.1530  0.3380
11962TIP3    H257378   0.725   0.975   5.499  0.4404  1.6592 -2.2515
11963TIP3   OH257379   0.962   4.446   4.204 -0.3121 -0.2083  0.0255
11963TIP3    H157380   0.904   4.499   4.259 -0.1876 -0.7170  0.6450
11963TIP3    H257381   0.917   4.443   4.119 -0.7159  0.2129  0.2183
11964TIP3   OH257382   3.324   0.114   4.426  0.5213  0.3875  0.2105
11964TIP3    H157383   3.305   0.042   4.366  0.9035 -0.9789  1.6647
11964TIP3    H257384   3.239   0.140   4.461  0.6110 -1.4658  1.9651
11965TIP3   OH257385   2.906   3.086   6.442  0.6211  0.6498 -0.4711
11965TIP3    H157386   2.842   3.073   6.373 -0.5232 -0.0860  0.7067
11965TIP3    H257387   2.855   3.114   6.518  1.8144  1.1198  0.1835
11966TIP3   OH257388   0.715   6.575  15.048  0.7219  0.2583  0.2062
11966TIP3    H157389   0.774   6.509  15.013  0.0675 -0.2894  0.1277
11966TIP3    H257390   0.773   6.640  15.089  1.3449 -0.6742  0.8267
11967TIP3   OH257391   5.131   5.221  16.118 -0.3496 -0.0066  0.0341
11967TIP3    H157392   5.158   5.309  16.145 -0.4644 -0.0721  0.3709
11967TIP3    H257393   5.201   5.191  16.060 -0.2517  0.2609  0.0138
11968TIP3   OH257394   0.419   3.509  12.141 -0.1778 -0.3541 -0.3758
11968TIP3    H157395   0.468   3.431  12.116  0.4588  0.0034 -0.2790
11968TIP3    H257396   0.477   3.582  12.116 -0.0074  0.0395  1.1078
11969TIP3   OH257397   3.235   0.630   3.625 -0.1884  0.7550  0.1878
11969TIP3    H157398   3.220   0.537   3.606  0.2348  0.2400  2.2326
11969TIP3    H257399   3.149   0.670   3.618 -0.6514 -0.1069  0.8526
11970TIP3   OH257400   3.281   4.728  14.604 -0.6630  0.1309  0.2481
11970TIP3    H157401   3.320   4.712  14.518  1.4925  0.9908  1.0439
11970TIP3    H257402   3.270   4.823  14.607  2.0339  0.4259  2.0657
11971TIP3   OH257403   1.113   3.995   1.796  0.7046  0.2398 -0.0784
11971TIP3    H157404   1.111   3.899   1.787 -1.4836  0.4108 -1.9284
11971TIP3    H257405   1.073   4.011   1.881  0.2575 -0.4518 -0.1518
11972TIP3   OH257406   2.446   0.249   2.168  0.5800  0.4142  0.6029
11972TIP3    H157407   2.379   0.194   2.209  0.2308  0.0149 -0.4673
11972TIP3    H257408   2.507   0.269   2.238 -0.9071  1.1836  1.7190
11973TIP3   OH257409   1.117   3.969  13.217 -0.6055  0.1541 -0.0769
11973TIP3    H157410   1.174   3.919  13.159 -0.2760  1.3264 -0.7737
11973TIP3    H257411   1.058   3.904  13.254 -0.3301 -0.7218 -1.1582
11974TIP3   OH257412   5.926   1.380  15.113  0.1595 -0.1833 -0.3418
11974TIP3    H157413   5.992   1.356  15.178 -0.0869 -1.6401 -0.6208
11974TIP3    H257414   5.848   1.401  15.164  0.2868 -0.2664 -0.1138
11975TIP3   OH257415   4.292   3.840  12.944  0.3586  0.1081 -0.0906
11975TIP3    H157416   4.343   3.841  13.025 -0.9484  3.5058  0.7747
11975TIP3    H257417   4.201   3.849  12.973 -0.2591 -0.3134 -1.8525
11976TIP3   OH257418   3.631   2.442   1.815 -0.2897 -0.5301  0.3753
11976TIP3    H157419   3.554   2.491   1.787  0.5301  0.5916  0.0462
11976TIP3    H257420   3.693   2.509   1.842  0.1887 -1.4786  1.6296
11977TIP3   OH257421   3.860   5.672   1.224  0.0060  0.2413  0.6380
11977TIP3    H157422   3.883   5.599   1.281  2.8876  0.4271 -0.1826
11977TIP3    H257423   3.902   5.651   1.140 -1.0493  1.7277 -0.2999
11978TIP3   OH257424   0.526   3.265   5.968 -0.0011  0.4258  0.0081
11978TIP3    H157425   0.593   3.263   6.036  0.2293 -1.1586 -0.2361
11978TIP3    H257426   0.461   3.201   5.997 -0.6653  0.8733 -0.4911
11979TIP3   OH257427   5.672   2.861   3.133  0.2746  0.2259  0.0040
11979TIP3    H157428   5.670   2.766   3.143  1.8973  0.0946 -0.7190
11979TIP3    H257429   5.664   2.875   3.038 -1.8983  0.8992  0.2594
11980TIP3   OH257430   2.708   5.924  12.960 -0.6854 -0.4313 -0.6974
11980TIP3    H157431   2.796   5.912  12.923 -1.3167  0.4176 -2.5240
11980TIP3    H257432   2.652   5.867  12.908 -1.5166  0.4132 -0.7380
11981TIP3   OH257433   4.911   5.024   1.169  0.0357  0.3468 -0.6020
11981TIP3    H157434   4.900   4.993   1.079 -0.1348 -2.0801  0.2045
11981TIP3    H257435   4.831   4.996   1.214 -0.8809  3.4857 -0.1785
11982TIP3   OH257436   0.708   0.207  10.937  0.6584 -0.4974  0.5595
11982TIP3    H157437   0.726   0.116  10.915 -0.0355 -0.7551  1.0598
11982TIP3    H257438   0.730   0.215  11.030 -0.1085 -0.3769  0.7356
11983TIP3   OH257439   0.574   5.284  10.321 -0.2364 -0.2006  0.3427
11983TIP3    H157440   0.533   5.370  10.311 -2.0132 -0.7546  2.5671
11983TIP3    H257441   0.601   5.281  10.413  0.0886 -1.9055  0.2021
11984TIP3   OH257442   0.710   0.096  15.027  0.3308 -0.4026 -0.5525
11984TIP3    H157443   0.759   0.047  14.961 -0.9329 -0.6594 -1.3166
11984TIP3    H257444   0.702   0.184  14.990 -0.4217 -0.5605 -0.7647
11985TIP3   OH257445   2.702   1.869   3.950 -0.6630  0.0842 -0.2090
11985TIP3    H157446   2.665   1.947   3.909 -0.6602 -0.4137 -1.1663
11985TIP3    H257447   2.626   1.819   3.978 -0.6628  0.5040  0.5550
11986TIP3   OH257448   4.173   4.139   0.098 -0.1518 -0.2920  0.5316
11986TIP3    H157449   4.108   4.178   0.039 -0.2084 -0.6235  0.3722
11986TIP3    H257450   4.242   4.107   0.039  0.5974  0.8699  0.7573
11987TIP3   OH257451   5.507   5.059  12.957  0.1579 -0.1075  0.0267
11987TIP3    H157452   5.478   4.974  12.990  0.9989  0.0138  1.0962
11987TIP3    H257453   5.599   5.047  12.935  0.4083  0.6583  0.6357
11988TIP3   OH257454   6.803   4.638  12.452  0.0039  0.0388  0.2589
11988TIP3    H157455   6.865   4.704  12.423  0.0298  0.4514  1.2128
11988TIP3    H257456   6.828   4.558  12.406 -0.0918  0.7170 -0.9842
11989TIP3   OH257457   1.350   0.850   2.291  0.3153 -0.0165  0.0842
11989TIP3    H157458   1.364   0.773   2.237  1.5568 -0.7829  1.4489
11989TIP3    H257459   1.334   0.921   2.229 -0.7039 -1.3325 -1.1830
11990TIP3   OH257460   0.580   6.796  16.184  0.1993 -0.6366 -0.2483
11990TIP3    H157461   0.549   6.726  16.242 -0.8385 -1.1239 -1.3487
11990TIP3    H257462   0.515   6.798  16.114  1.2468  0.1671 -1.2099
11991TIP3   OH257463   3.782   0.391  12.150 -0.4258  0.6740 -0.0694
11991TIP3    H157464   3.730   0.398  12.071 -1.3705  0.5594  0.5387
11991TIP3    H257465   3.873   0.403  12.120 -0.6128 -1.0185 -1.3991
11992TIP3   OH257466   2.805   1.864  14.340  0.1943 -0.2333 -0.0979
11992TIP3    H157467   2.849   1.782  14.363  3.3116  1.2250 -0.6034
11992TIP3    H257468   2.821   1.921  14.415 -0.6269  0.4073 -0.4106
11993TIP3   OH257469   3.409   0.789  12.294  0.0789  0.0139 -0.1710
11993TIP3    H157470   3.505   0.791  12.298  0.0709  1.9565 -0.4304
11993TIP3    H257471   3.383   0.735  12.369  1.3339  0.4736  0.6181
11994TIP3   OH257472   5.501   6.581   3.266 -0.0705 -0.0567 -0.3349
11994TIP3    H157473   5.580   6.528   3.267  0.9882  1.4513 -1.1409
11994TIP3    H257474   5.493   6.610   3.175 -2.2678 -1.2161 -0.5520
11995TIP3   OH257475   6.377   5.854  14.493  0.2156  0.2716 -0.0527
11995TIP3    H157476   6.468   5.864  14.466  0.3366  0.6845  0.4834
11995TIP3    H257477   6.338   5.940  14.477  0.0369  0.2273  0.1436
11996TIP3   OH257478   6.009   3.738   3.189 -0.4076 -0.0196 -0.2116
11996TIP3    H157479   5.923   3.769   3.161 -0.5783 -0.0621  0.2637
11996TIP3    H257480   6.001   3.643   3.191 -0.6967  0.0205  0.9343
11997TIP3   OH257481   6.692   4.371   0.474  0.7051  0.3390 -0.4084
11997TIP3    H157482   6.647   4.446   0.436  1.2036  0.9068  0.1096
11997TIP3    H257483   6.731   4.405   0.555 -0.1200 -0.7790  0.4776
11998TIP3   OH257484   1.419   2.551  15.133  0.1494  0.1854  0.4869
11998TIP3    H157485   1.477   2.492  15.085  0.1606  0.0922  0.6140
11998TIP3    H257486   1.449   2.545  15.224  0.6631  0.9882  0.3765
11999TIP3   OH257487   0.457   1.120  12.746  0.6990  0.0242  0.3627
11999TIP3    H157488   0.486   1.210  12.761  1.2789  0.2476 -2.0222
11999TIP3    H257489   0.524   1.066  12.788  2.2203  0.6506 -1.1944
12000TIP3   OH257490   6.036   2.070   3.635 -0.0638 -0.1557 -0.1163
12000TIP3    H157491   5.940   2.077   3.631 -0.0132 -0.3092 -1.8291
12000TIP3    H257492   6.056   1.986   3.593  0.8198 -0.2441  0.4579
12001TIP3   OH257493   3.316   3.407   1.511 -0.1192 -0.0956  0.2203
12001TIP3    H157494   3.317   3.374   1.422  1.2927  1.8606 -0.5296
12001TIP3    H257495   3.347   3.498   1.504  0.0104  0.1007  2.6751
12002TIP3   OH257496   3.241   0.795  15.582 -0.2878 -0.0242 -0.3178
12002TIP3    H157497   3.232   0.836  15.668  0.6246 -1.8941  0.6887
12002TIP3    H257498   3.299   0.854  15.534  1.5543 -0.4250  1.3374
12003TIP3   OH257499   6.770   0.641  12.610  0.1448  0.0135 -0.1513
12003TIP3    H157500   6.709   0.575  12.577 -1.3023  1.4035 -0.3033
12003TIP3    H257501   6.758   0.640  12.705  1.2387 -1.0133 -0.0195
12004TIP3   OH257502   5.765   3.367   4.281  0.4472 -0.2196  0.1112
12004TIP3    H157503   5.834   3.401   4.338  1.5115 -0.2467 -1.1414
12004TIP3    H257504   5.704   3.440   4.271  0.5803 -0.0159  0.7615
12005TIP3   OH257505   5.295   4.242   5.626 -0.7448  0.0328  0.2892
12005TIP3    H157506   5.368   4.260   5.687 -0.4535 -1.6264  0.4435
12005TIP3    H257507   5.257   4.160   5.658  0.5304 -1.8424 -2.8105
12006TIP3   OH257508   2.413   4.716  15.127 -0.0204 -0.1443 -0.6636
12006TIP3    H157509   2.446   4.759  15.206 -1.7554  0.8555 -0.4630
12006TIP3    H257510   2.381   4.788  15.073 -0.8400 -1.0046 -1.3225
12007TIP3   OH257511   2.263   5.150   6.192  0.2072  0.3536 -0.4781
12007TIP3    H157512   2.229   5.066   6.160 -0.8204 -0.6418  3.0674
12007TIP3    H257513   2.329   5.126   6.257 -0.7132  2.2700  1.1965
12008TIP3   OH257514   5.951   0.824  13.569  0.3543 -0.1965 -0.0079
12008TIP3    H157515   5.996   0.743  13.593 -0.0728 -1.1854 -2.3738
12008TIP3    H257516   6.021   0.885  13.548  0.6747  0.0480  1.6684
12009TIP3   OH257517   4.151   6.096   4.520 -0.3098  0.0922 -0.1915
12009TIP3    H157518   4.130   6.032   4.588  0.5581  0.2845  0.2724
12009TIP3    H257519   4.067   6.117   4.480 -0.7660 -0.4104  0.4778
12010TIP3   OH257520   1.527   2.255   6.154  0.2748 -0.1031 -0.1901
12010TIP3    H157521   1.461   2.249   6.085  0.9643  0.4211 -0.8948
12010TIP3    H257522   1.554   2.347   6.154  0.3698 -0.1237  0.6969
12011TIP3   OH257523   2.951   6.164  13.253 -0.1150  0.9352 -0.4712
12011TIP3    H157524   2.902   6.220  13.313  1.3703  3.2113 -1.2885
12011TIP3    H257525   2.927   6.196  13.166 -0.8052 -1.0766 -1.0234
12012TIP3   OH257526   0.458   2.814  14.693 -0.3726 -0.3389  0.3107
12012TIP3    H157527   0.408   2.791  14.615  0.7523  0.2661 -0.6175
12012TIP3    H257528   0.510   2.890  14.666  0.4317 -0.4564  1.4852
12013TIP3   OH257529   0.123   6.501  15.198 -0.2981  0.0108 -0.3187
12013TIP3    H157530   0.050   6.553  15.166  0.3992  1.2451  0.0928
12013TIP3    H257531   0.188   6.565  15.228  0.9194 -1.0664 -0.5987
12014TIP3   OH257532   2.636   0.230   5.950  0.1210  0.0394  0.1948
12014TIP3    H157533   2.580   0.223   6.027  0.8687 -2.3980  0.5587
12014TIP3    H257534   2.712   0.280   5.980  0.3710 -0.8264  1.0332
12015TIP3   OH257535   5.914   6.659  10.939 -0.1371  0.3343 -0.3452
12015TIP3    H157536   5.971   6.696  11.008  0.4503 -0.0339 -0.6300
12015TIP3    H257537   5.839   6.719  10.936 -0.4203  0.0665  0.9732
12016TIP3   OH257538   3.764   5.222   3.123 -0.6687 -0.1203 -0.2503
12016TIP3    H157539   3.804   5.297   3.168 -0.3635 -0.4090 -0.0395
12016TIP3    H257540   3.679   5.255   3.093 -0.1197  0.6047 -1.0139
12017TIP3   OH257541   1.042   0.701   4.425 -0.4505  0.1632 -0.0569
12017TIP3    H157542   1.001   0.780   4.389  0.5967 -0.1677 -2.0641
12017TIP3    H257543   0.974   0.661   4.480 -1.0929  2.2847  0.7351
12018TIP3   OH257544   4.464   6.395  12.999  0.4408 -0.6174 -0.3957
12018TIP3    H157545   4.415   6.461  12.950 -1.9607 -2.0916 -0.0940
12018TIP3    H257546   4.551   6.433  13.011 -1.5419  3.5808  1.8654
12019TIP3   OH257547   2.303   3.979   2.752 -0.3589 -0.1598  0.0235
12019TIP3    H157548   2.256   3.948   2.830  2.6035 -0.9444  1.5861
12019TIP3    H257549   2.355   3.903   2.724 -0.2327  0.5791 -1.7999
12020TIP3   OH257550   1.880   6.435   1.573 -0.5741  0.5300  0.2155
12020TIP3    H157551   1.836   6.519   1.565 -0.2492  1.1912  4.4061
12020TIP3    H257552   1.819   6.381   1.623 -0.4166 -1.4861 -1.7070
12021TIP3   OH257553   1.134   1.718   4.232  0.2972 -0.2496  0.2752
12021TIP3    H157554   1.132   1.644   4.292 -2.1469 -0.1322  0.3656
12021TIP3    H257555   1.109   1.681   4.147 -2.8388  0.7916  0.7086
12022TIP3   OH257556   5.635   2.307   5.781  0.1727  0.3980 -0.2949
12022TIP3    H157557   5.673   2.394   5.778 -0.1581  0.6604  1.9881
12022TIP3    H257558   5.708   2.248   5.760  1.2587  1.0467  1.5386
12023TIP3   OH257559   1.673   3.462   2.489 -0.1026 -0.0462 -0.1503
12023TIP3    H157560   1.628   3.494   2.567 -2.1173 -1.5536 -0.6491
12023TIP3    H257561   1.661   3.367   2.491  1.3234 -0.2854 -1.3957
12024TIP3   OH257562   6.327   6.809  16.314  0.2855  0.2130 -0.3923
12024TIP3    H157563   6.410   6.797  16.362  0.8032  1.0240 -1.0661
12024TIP3    H257564   6.270   6.854  16.377  0.2297 -0.6706  0.1978
12025TIP3   OH257565   4.265   0.807   2.024  0.0863  0.0276 -0.0189
12025TIP3    H157566   4.198   0.745   2.053  0.1748 -0.2870 -0.4936
12025TIP3    H257567   4.306   0.837   2.105 -0.7661  0.3737  0.2864
12026TIP3   OH257568   1.729   2.121   5.674 -0.4390  0.0239 -0.1695
12026TIP3    H157569   1.728   2.028   5.697  1.0215 -0.1066 -0.5768
12026TIP3    H257570   1.815   2.135   5.634 -0.8180  1.4549 -0.5154
12027TIP3   OH257571   4.631   3.273   1.895  0.2359 -0.7018  0.3527
12027TIP3    H157572   4.630   3.261   1.800 -0.2301  2.0578 -0.0247
12027TIP3    H257573   4.719   3.306   1.913  0.3315 -1.2471  0.8936
12028TIP3   OH257574   1.720   4.833   5.289 -0.0709 -0.2510  0.0240
12028TIP3    H157575   1.751   4.850   5.378 -1.9621  0.2179  0.6065
12028TIP3    H257576   1.680   4.746   5.294 -1.1403  0.2219 -0.0932
12029TIP3   OH257577   0.915   1.324  15.560 -0.0898  0.1916  0.1150
12029TIP3    H157578   0.894   1.355  15.648  1.7817 -0.5424  0.8406
12029TIP3    H257579   0.960   1.397  15.519 -1.4982  0.7560 -0.4781
12030TIP3   OH257580   4.656   5.462   4.656  0.2379 -0.7238 -0.3307
12030TIP3    H157581   4.644   5.413   4.738 -2.2416 -0.5380 -0.5624
12030TIP3    H257582   4.663   5.394   4.589  1.6589 -0.8592 -0.0627
12031TIP3   OH257583   2.381   1.617  16.827 -0.0791  0.1801  0.1473
12031TIP3    H157584   2.309   1.608  16.889  0.7412 -0.3012  1.0533
12031TIP3    H257585   2.342   1.596  16.742 -1.4050  1.6393  0.3688
12032TIP3   OH257586   3.044   4.016  14.922  0.3972  0.4068  0.3478
12032TIP3    H157587   3.100   3.972  14.986  0.5534 -2.3184 -1.5690
12032TIP3    H257588   2.956   4.013  14.959  0.9607  1.6693  1.8246
12033TIP3   OH257589   0.427   6.346  11.723  0.5105  0.0345 -0.1934
12033TIP3    H157590   0.493   6.335  11.655 -3.1108  1.3323 -4.1113
12033TIP3    H257591   0.393   6.258  11.739  0.5092 -0.1226 -1.0428
12034TIP3   OH257592   2.344   3.933  15.184  0.0213 -0.0521  0.3525
12034TIP3    H157593   2.259   3.889  15.187 -0.3452  0.6775  0.9309
12034TIP3    H257594   2.369   3.942  15.276 -0.3184  1.7155  0.2929
12035TIP3   OH257595   3.986   5.290  16.248 -0.1009  0.1289 -0.4675
12035TIP3    H157596   3.903   5.309  16.204 -1.5988 -0.7986  1.8284
12035TIP3    H257597   4.040   5.367  16.233 -1.2699  0.6304 -2.2308
12036TIP3   OH257598   5.469   3.755   5.111  0.4125  0.0385 -0.0537
12036TIP3    H157599   5.396   3.817   5.114 -0.1326 -0.5328 -1.3328
12036TIP3    H257600   5.500   3.751   5.202 -1.1050  0.3256  0.4912
12037TIP3   OH257601   0.851   2.002   6.399 -0.7927  0.4225  0.1310
12037TIP3    H157602   0.850   2.096   6.384  0.8144  0.4819  0.2397
12037TIP3    H257603   0.900   1.991   6.481 -1.1669 -0.4846  0.2368
12038TIP3   OH257604   3.458   2.507  16.231  0.4177  0.1413 -0.9310
12038TIP3    H157605   3.519   2.568  16.274  1.5156  0.0488 -2.2953
12038TIP3    H257606   3.505   2.424  16.231 -0.0570 -0.1251 -1.2323
12039TIP3   OH257607   3.020   6.469  13.190 -0.3179 -0.3453 -0.0856
12039TIP3    H157608   3.009   6.429  13.104  0.8564  1.7806 -1.2656
12039TIP3    H257609   3.110   6.448  13.214  0.2920  1.4743 -0.6902
12040TIP3   OH257610   6.208   1.527  16.371 -0.4334  0.0016 -0.5109
12040TIP3    H157611   6.179   1.538  16.461  0.4477 -1.7845  0.0271
12040TIP3    H257612   6.215   1.616  16.336 -0.5240  0.7187  1.2636
12041TIP3   OH257613   6.313   2.992   5.599 -0.3116  0.2438 -0.1848
12041TIP3    H157614   6.378   3.021   5.535  1.3037 -1.6673  0.5176
12041TIP3    H257615   6.241   2.957   5.547 -0.2119  1.2322 -0.9765
12042TIP3   OH257616   4.004   6.670   2.351 -0.1827 -1.0279  0.4620
12042TIP3    H157617   4.059   6.746   2.330  0.3147 -1.2359  1.0195
12042TIP3    H257618   4.055   6.594   2.322 -1.5588 -1.0756 -2.0544
12043TIP3   OH257619   5.949   3.471  11.792  0.6710  0.1621 -0.0719
12043TIP3    H157620   6.011   3.537  11.759  1.9736 -1.1137 -0.2432
12043TIP3    H257621   6.002   3.417  11.851 -0.6376 -0.1119  0.8795
12044TIP3   OH257622   1.886   1.586  11.877  0.4470 -0.0995  0.2872
12044TIP3    H157623   1.793   1.565  11.876  0.2289  0.8209  0.2277
12044TIP3    H257624   1.888   1.681  11.891  1.3460  0.0913 -1.0490
12045TIP3   OH257625   3.889   1.336   5.271 -0.0932  0.2683 -0.1335
12045TIP3    H157626   3.849   1.255   5.303 -0.4365  2.0064  4.2587
12045TIP3    H257627   3.982   1.327   5.292  0.2020  0.1648 -1.4921
12046TIP3   OH257628   1.773   2.234   3.043  0.7150  0.0780 -0.3481
12046TIP3    H157629   1.766   2.269   3.131  1.0329  0.2248 -0.3808
12046TIP3    H257630   1.765   2.139   3.054  0.4009  0.1193 -0.2031
12047TIP3   OH257631   1.058   6.530   0.759 -0.8079 -0.4670  0.5984
12047TIP3    H157632   1.034   6.583   0.835  0.1896  0.0186  0.5811
12047TIP3    H257633   1.026   6.579   0.684  0.6008  0.4056  0.5477
12048TIP3   OH257634   4.609   5.638  10.254  0.2639 -0.3889 -0.1325
12048TIP3    H157635   4.527   5.588  10.253 -1.4104  2.2846 -2.5936
12048TIP3    H257636   4.592   5.711  10.314  1.1674 -0.2697 -0.0085
12049TIP3   OH257637   5.748   6.803  11.253  0.2022  0.6266  0.1063
12049TIP3    H157638   5.829   6.756  11.234 -0.7910 -0.6103 -1.2173
12049TIP3    H257639   5.715   6.829  11.167 -1.0872  0.6138  0.5820
12050TIP3   OH257640   5.344   3.618  12.150 -0.0452 -0.5322 -0.5531
12050TIP3    H157641   5.327   3.556  12.221 -0.7745 -1.3757 -1.4558
12050TIP3    H257642   5.264   3.617  12.098 -0.0397  1.1271 -0.6212
12051TIP3   OH257643   1.655   2.356  13.775  0.0389 -0.2417 -0.6123
12051TIP3    H157644   1.745   2.336  13.748  0.1601  0.4992 -0.7691
12051TIP3    H257645   1.665   2.407  13.855 -0.3347 -2.8657  1.1624
12052TIP3   OH257646   5.267   1.411   3.643 -0.3381  0.5802  0.0749
12052TIP3    H157647   5.227   1.435   3.727  0.5361  0.1342  0.6257
12052TIP3    H257648   5.289   1.495   3.602 -1.3705  0.8141 -0.0039
12053TIP3   OH257649   0.149   5.167   2.953  0.3605 -0.4837 -0.1316
12053TIP3    H157650   0.160   5.164   3.048 -1.7260 -0.4469  0.1360
12053TIP3    H257651   0.167   5.258   2.929 -3.2933  0.5813  0.8394
12054TIP3   OH257652   1.887   4.018  11.314 -0.2367  0.1253  0.1434
12054TIP3    H157653   1.891   4.010  11.218  0.1268  0.6260  0.1153
12054TIP3    H257654   1.795   4.038  11.332 -0.4319 -0.5749 -0.0542
12055TIP3   OH257655   3.383   3.837   2.274 -0.5118  0.2816 -0.0295
12055TIP3    H157656   3.376   3.742   2.277 -0.2999  0.2411 -0.6901
12055TIP3    H257657   3.473   3.855   2.302 -0.0661  0.1914 -1.3695
12056TIP3   OH257658   1.895   6.673  14.867  0.5201  0.1862 -0.2314
12056TIP3    H157659   1.908   6.579  14.868 -3.0910 -0.3512  1.1205
12056TIP3    H257660   1.898   6.699  14.959 -1.2271  0.9569 -0.3773
12057TIP3   OH257661   6.326   6.263   1.298 -0.1656  0.1833  0.1775
12057TIP3    H157662   6.278   6.335   1.257 -2.9260 -1.6082  0.1807
12057TIP3    H257663   6.338   6.290   1.389  1.3296  1.8504 -0.4894
12058TIP3   OH257664   5.446   1.919   3.541  0.2307 -0.1815 -0.5487
12058TIP3    H157665   5.402   1.835   3.533  0.9393 -0.3305 -3.6851
12058TIP3    H257666   5.515   1.904   3.607 -0.2575 -1.7719 -0.3857
12059TIP3   OH257667   2.694   5.404   0.461 -0.4047  0.6459 -0.2825
12059TIP3    H157668   2.640   5.348   0.405 -0.0272  0.2895 -0.2848
12059TIP3    H257669   2.632   5.440   0.525 -0.1663 -2.2044  1.6873
12060TIP3   OH257670   3.563   4.113   1.953  0.2944  0.7817  0.2000
12060TIP3    H157671   3.640   4.057   1.962 -1.0070 -1.2384 -0.9824
12060TIP3    H257672   3.586   4.175   1.884  2.8287  3.7001  3.4284
12061TIP3   OH257673   1.916   3.670  17.182 -0.1359 -0.0197  0.6978
12061TIP3    H157674   2.005   3.654  17.153  0.5791  1.1837  2.1574
12061TIP3    H257675   1.875   3.583  17.183  0.0894 -0.2082 -2.8232
12062TIP3   OH257676   0.491   6.424  12.806 -0.2408  0.0138  0.1903
12062TIP3    H157677   0.498   6.332  12.780  0.4124 -0.7730  2.9583
12062TIP3    H257678   0.398   6.437  12.825 -0.3324 -0.0714 -0.2020
12063TIP3   OH257679   5.627   1.237  11.865  0.1512  0.0306  0.5291
12063TIP3    H157680   5.702   1.286  11.900  0.2711 -1.1707  2.0213
12063TIP3    H257681   5.618   1.268  11.775  1.9978  0.7028  0.5500
12064TIP3   OH257682   1.290   1.588  14.580 -0.3824 -0.5541  0.1985
12064TIP3    H157683   1.304   1.501  14.542 -3.0625 -0.5351 -0.9385
12064TIP3    H257684   1.274   1.572  14.673 -1.3172 -1.3238 -0.0893
12065TIP3   OH257685   1.478   6.770   5.868 -0.5013  0.0004  0.4741
12065TIP3    H157686   1.523   6.809   5.793 -0.2457 -1.1288  0.0329
12065TIP3    H257687   1.547   6.755   5.933 -0.7024  0.8612  0.8956
12066TIP3   OH257688   4.569   2.948   2.034  0.3513 -0.2660  0.1339
12066TIP3    H157689   4.608   3.035   2.022  0.8181 -0.6744 -1.4633
12066TIP3    H257690   4.483   2.965   2.073  0.0847  0.9761 -0.9546
12067TIP3   OH257691   3.607   5.411  11.418 -0.2448  0.0733  0.5117
12067TIP3    H157692   3.652   5.451  11.344 -0.5367  0.2363  0.4236
12067TIP3    H257693   3.664   5.429  11.493  2.1177 -3.5511 -0.2832
12068TIP3   OH257694   6.299   4.619  17.253  0.1495  0.1117  0.4719
12068TIP3    H157695   6.241   4.544  17.264  1.5170 -1.1933 -0.9807
12068TIP3    H257696   6.241   4.691  17.227 -1.4514  0.1181  3.8522
12069TIP3   OH257697   5.266   3.182  13.621  0.1878 -0.4470  0.3217
12069TIP3    H157698   5.245   3.263  13.575  2.2757  0.1702  0.4184
12069TIP3    H257699   5.267   3.206  13.713  1.3942 -0.4318  0.3118
12070TIP3   OH257700   3.876   5.192  14.284 -0.0169 -0.0516 -0.1476
12070TIP3    H157701   3.863   5.097  14.281 -0.3862 -0.0591  1.3559
12070TIP3    H257702   3.849   5.217  14.372 -1.8018  1.7585 -1.1827
12071TIP3   OH257703   1.150   1.009  17.288 -0.3468 -0.3541 -0.3546
12071TIP3    H157704   1.146   0.919  17.257 -0.7376 -0.3478 -0.3252
12071TIP3    H257705   1.242   1.021  17.314 -0.0457 -0.4014 -1.3761
12072TIP3   OH257706   2.851   3.473  16.415  0.1445 -0.2136  0.3003
12072TIP3    H157707   2.833   3.505  16.326  0.2175 -1.1187 -0.0456
12072TIP3    H257708   2.907   3.396  16.401  0.1911 -0.3284  1.1373
12073TIP3   OH257709   3.082   3.434  15.618  0.3428 -0.0057 -1.1114
12073TIP3    H157710   3.174   3.460  15.608 -0.2346  2.0863 -1.0341
12073TIP3    H257711   3.084   3.368  15.688  1.7096  0.3880 -0.7630
12074TIP3   OH257712   2.891   0.907  11.173 -0.1820 -0.3011 -0.7549
12074TIP3    H157713   2.861   0.847  11.242  0.4629  0.6350  0.3715
12074TIP3    H257714   2.987   0.907  11.183 -0.1213  0.1899 -1.3570
12075TIP3   OH257715   1.316   0.182   5.956 -0.0948 -0.0495  0.3304
12075TIP3    H157716   1.347   0.093   5.940 -0.7677 -0.6313  2.1241
12075TIP3    H257717   1.376   0.238   5.907  1.3274 -1.3933  0.5049
12076TIP3   OH257718   1.071   5.295  11.904  0.0506  0.0891 -0.3071
12076TIP3    H157719   1.117   5.369  11.866  0.4357 -0.7268 -1.4623
12076TIP3    H257720   1.024   5.256  11.830 -0.5856 -0.4797  0.3979
12077TIP3   OH257721   3.944   4.839  14.499 -0.2157  0.3298  0.0830
12077TIP3    H157722   4.000   4.863  14.425  1.1386 -1.4062  0.5217
12077TIP3    H257723   3.951   4.744  14.505 -1.8478  0.2524  1.2544
12078TIP3   OH257724   6.782   2.746   1.534 -0.4652  0.5340 -0.5714
12078TIP3    H157725   6.693   2.759   1.501 -0.2393  0.8058 -1.0732
12078TIP3    H257726   6.800   2.654   1.516 -0.8269  0.3442 -0.0096
12079TIP3   OH257727   3.195   0.785  11.154 -0.0306 -0.8466 -0.0821
12079TIP3    H157728   3.201   0.700  11.110  0.2316 -1.5400  1.2554
12079TIP3    H257729   3.159   0.764  11.240 -0.7379  0.5095 -0.0393
12080TIP3   OH257730   1.681   2.768   1.390 -0.2524 -0.5332 -0.5300
12080TIP3    H157731   1.642   2.820   1.460 -2.1031 -3.3717  0.6681
12080TIP3    H257732   1.632   2.792   1.312 -0.1944  0.4935 -0.2477
12081TIP3   OH257733   4.760   5.975  12.758 -0.2901 -0.3495 -0.2464
12081TIP3    H157734   4.692   5.976  12.691  1.0537  0.9103 -1.6195
12081TIP3    H257735   4.727   6.033  12.826 -1.2056 -0.8258 -0.2820
12082TIP3   OH257736   0.945   1.303   3.342  0.0916 -0.0039 -0.4217
12082TIP3    H157737   0.996   1.223   3.353  0.2716  0.1058 -0.4600
12082TIP3    H257738   0.897   1.290   3.260  0.2124 -0.0238 -0.4891
12083TIP3   OH257739   4.878   6.629   1.824  0.1234  0.0144  0.3525
12083TIP3    H157740   4.817   6.701   1.843 -0.5344 -0.1672 -1.0037
12083TIP3    H257741   4.940   6.667   1.761 -0.4540 -0.6958 -0.6636
12084TIP3   OH257742   2.531   2.655   2.409 -0.0091 -0.2954 -0.3688
12084TIP3    H157743   2.494   2.738   2.378  1.2402  1.0485  1.5946
12084TIP3    H257744   2.605   2.639   2.351 -0.0066  0.1841 -0.5021
12085TIP3   OH257745   4.024   3.072   3.788 -0.1928  0.4204 -0.2237
12085TIP3    H157746   4.116   3.046   3.782 -0.6630 -1.4828  0.2549
12085TIP3    H257747   4.007   3.123   3.709  0.4601 -1.9580 -1.9558
12086TIP3   OH257748   5.612   1.063   0.372  0.3471 -0.1669  0.2474
12086TIP3    H157749   5.542   1.112   0.416 -0.3742  0.8087 -1.9032
12086TIP3    H257750   5.646   1.124   0.307  1.2210 -1.6397 -0.7022
12087TIP3   OH257751   3.287   1.649   4.637  0.3348 -0.1513  0.1714
12087TIP3    H157752   3.218   1.586   4.654  0.7356 -0.5727  0.2641
12087TIP3    H257753   3.256   1.731   4.675 -0.0769 -0.3564  0.2733
12088TIP3   OH257754   0.265   4.747   1.154  0.4367  0.1733 -0.1626
12088TIP3    H157755   0.335   4.759   1.219  1.0131 -0.4866 -0.6536
12088TIP3    H257756   0.244   4.835   1.125  0.1494  0.4820  0.9457
12089TIP3   OH257757   5.252   2.603   3.669  0.1979  0.1450  0.0926
12089TIP3    H157758   5.192   2.567   3.604  0.9555 -0.5855 -0.2169
12089TIP3    H257759   5.320   2.536   3.679  0.3852  0.4900  1.2287
12090TIP3   OH257760   5.033   2.772  16.527  0.0931 -0.0832  0.2943
12090TIP3    H157761   5.069   2.860  16.535 -2.0348  0.7210  1.0372
12090TIP3    H257762   4.994   2.770  16.440  0.8089 -0.5751 -0.0313
12091TIP3   OH257763   6.686   6.037  13.060  0.4705 -0.1629 -0.0099
12091TIP3    H157764   6.682   6.068  12.970 -1.6085  0.8955  0.4295
12091TIP3    H257765   6.729   5.951  13.053  1.3936  0.4226 -1.8506
12092TIP3   OH257766   0.327   6.765   2.213 -0.1662  0.5992  0.2119
12092TIP3    H157767   0.272   6.831   2.171  0.3978  0.7529 -0.2956
12092TIP3    H257768   0.347   6.802   2.299 -0.5842  0.6890  0.2732
12093TIP3   OH257769   2.405   5.527  16.243 -0.2124 -0.4526 -0.1740
12093TIP3    H157770   2.385   5.620  16.228 -0.3257 -0.6205 -1.0850
12093TIP3    H257771   2.496   5.518  16.217 -0.2710 -0.6470 -0.3115
12094TIP3   OH257772   4.965   6.111  11.733 -0.1458  0.4195  0.5270
12094TIP3    H157773   5.033   6.047  11.712  2.4408  2.9330  0.8748
12094TIP3    H257774   4.902   6.104  11.662  0.3089 -2.1459  0.3194
12095TIP3   OH257775   3.986   0.869  15.601  0.5509  0.4539 -0.0111
12095TIP3    H157776   4.020   0.958  15.614  0.9337  0.9425 -3.7364
12095TIP3    H257777   4.055   0.811  15.633 -0.0410  1.4530  3.2322
12096TIP3   OH257778   5.196   5.498   1.164 -0.4797 -0.2664  0.2443
12096TIP3    H157779   5.258   5.555   1.210 -0.1337 -0.1356 -0.3753
12096TIP3    H257780   5.110   5.532   1.187 -0.3710 -1.1328  2.0066
12097TIP3   OH257781   1.779   6.017   1.123 -0.0503 -0.0468 -0.1789
12097TIP3    H157782   1.795   6.109   1.145 -0.8734 -0.2450  1.2427
12097TIP3    H257783   1.861   5.989   1.081  0.6438  1.0052  0.4330
12098TIP3   OH257784   3.903   1.194   1.341  0.5963 -0.0817  0.1206
12098TIP3    H157785   3.817   1.152   1.345 -0.4492  1.9669 -0.2456
12098TIP3    H257786   3.947   1.152   1.268 -1.6938  1.6874 -2.3966
12099TIP3   OH257787   5.803   5.105  15.557 -0.2629  0.4269 -0.6611
12099TIP3    H157788   5.721   5.155  15.550  0.5904  1.7104 -1.6796
12099TIP3    H257789   5.782   5.020  15.517 -0.9854  0.8774 -1.2645
12100TIP3   OH257790   2.226   2.180  11.608  0.2329 -0.0393 -0.1001
12100TIP3    H157791   2.259   2.090  11.610  1.7076  0.4797  2.9121
12100TIP3    H257792   2.305   2.234  11.612 -0.6836  1.3927 -0.9057
12101TIP3   OH257793   6.701   5.491   1.072  0.2738 -0.0506  0.2583
12101TIP3    H157794   6.752   5.487   1.153 -0.6212  0.3716  0.8532
12101TIP3    H257795   6.624   5.437   1.090  0.8503 -1.2864 -0.8937
12102TIP3   OH257796   0.707   3.741  11.454  0.1085 -0.8762  0.3425
12102TIP3    H157797   0.786   3.738  11.507 -0.1374 -2.4950  0.6449
12102TIP3    H257798   0.738   3.755  11.365  0.5383  1.5775  0.8242
12103TIP3   OH257799   3.015   1.923   6.872 -0.0776 -0.0061 -0.1680
12103TIP3    H157800   2.969   1.887   6.796 -0.1854  0.0571 -0.1337
12103TIP3    H257801   3.095   1.870   6.879 -2.3184 -3.2178  2.5818
12104TIP3   OH257802   3.562   2.146   4.212  0.8677 -0.3949  0.7695
12104TIP3    H157803   3.634   2.126   4.153  0.6804  0.4856  0.2430
12104TIP3    H257804   3.560   2.072   4.273 -0.3755 -2.4648 -1.6902
12105TIP3   OH257805   4.281   5.682   3.841  0.0842 -0.1048 -0.0859
12105TIP3    H157806   4.337   5.605   3.851 -0.1123 -0.0090  2.0774
12105TIP3    H257807   4.213   5.655   3.780  0.2452 -1.5288  0.3504
12106TIP3   OH257808   4.152   3.889   6.069  0.3433 -0.0412  0.0139
12106TIP3    H157809   4.078   3.950   6.068 -0.1136 -0.5969 -1.1121
12106TIP3    H257810   4.229   3.946   6.066 -0.0540  0.5223  0.3525
12107TIP3   OH257811   4.286   0.012  15.658  0.0184  0.2337 -0.2892
12107TIP3    H157812   4.246  -0.071  15.683  0.3015 -0.5105 -2.2120
12107TIP3    H257813   4.294   0.008  15.563  0.4765  2.2702 -0.3800
12108TIP3   OH257814   6.434   0.970   0.303 -0.0944 -0.4377 -0.2066
12108TIP3    H157815   6.436   0.905   0.233 -1.0311 -0.6827 -0.0043
12108TIP3    H257816   6.350   0.957   0.346 -0.5235  1.2409 -0.4854
12109TIP3   OH257817   1.264   5.164   0.921 -0.2039 -0.0771  0.1567
12109TIP3    H157818   1.328   5.174   0.851  0.0333  0.9864  0.5188
12109TIP3    H257819   1.197   5.230   0.902 -0.1839  0.1589  0.8757
12110TIP3   OH257820   2.888   4.263   2.116  0.2521  0.6208  0.3664
12110TIP3    H157821   2.941   4.341   2.097  1.0570 -0.0265 -0.0643
12110TIP3    H257822   2.831   4.253   2.040  1.2047 -0.0856 -0.2576
12111TIP3   OH257823   6.104   5.962   2.432  0.0627 -0.0598  0.1418
12111TIP3    H157824   6.178   5.923   2.386  1.0261  1.7790  0.0833
12111TIP3    H257825   6.131   6.053   2.448 -2.4703  0.8272 -0.5023
12112TIP3   OH257826   6.516   6.656   5.201 -0.2731  0.1970 -0.2118
12112TIP3    H157827   6.499   6.602   5.278 -2.3517  2.5805  1.0669
12112TIP3    H257828   6.441   6.640   5.143 -1.4777  2.4850  0.6620
12113TIP3   OH257829   6.187   0.967  16.429  0.4245  0.3048 -0.2463
12113TIP3    H157830   6.183   0.885  16.381  1.1288  0.9002 -1.3388
12113TIP3    H257831   6.243   1.024  16.377  0.5593  1.2400  0.8719
12114TIP3   OH257832   6.423   3.342  11.445  0.1225 -0.4370 -0.5034
12114TIP3    H157833   6.345   3.370  11.397 -1.2436 -2.2585  0.5888
12114TIP3    H257834   6.495   3.389  11.402 -1.4843  0.8823 -1.8707
12115TIP3   OH257835   4.899   3.442  14.217 -0.0910  0.0072  0.1946
12115TIP3    H157836   4.890   3.418  14.125 -0.0159  1.3156 -0.1567
12115TIP3    H257837   4.986   3.480  14.223  0.0094 -0.3236  0.8734
12116TIP3   OH257838   5.620   3.255   1.291  0.2924 -0.1632 -0.2491
12116TIP3    H157839   5.585   3.166   1.282 -1.2515  0.6760 -3.3876
12116TIP3    H257840   5.555   3.302   1.343 -0.1706 -0.2270 -0.7635
12117TIP3   OH257841   5.698   5.342   4.434 -0.4681  0.7421  0.6236
12117TIP3    H157842   5.690   5.354   4.339 -1.4263  1.0290  0.7363
12117TIP3    H257843   5.677   5.250   4.448 -0.9391  0.8485  0.6238
12118TIP3   OH257844   6.238   3.601   3.848 -0.1380  0.1929 -0.2098
12118TIP3    H157845   6.158   3.551   3.868  0.1771  0.0012  0.5761
12118TIP3    H257846   6.290   3.542   3.794  0.1479 -0.2565  0.5559
12119TIP3   OH257847   0.976   5.197   1.992 -0.0375  0.5311 -0.1955
12119TIP3    H157848   1.035   5.195   2.067  1.7848 -0.0296 -1.6245
12119TIP3    H257849   0.974   5.289   1.965  0.0332  0.5808 -0.0336
12120TIP3   OH257850   2.850   2.708   1.738  0.0797  0.1770 -0.0990
12120TIP3    H157851   2.897   2.734   1.817 -0.6929  0.3875  0.3030
12120TIP3    H257852   2.898   2.632   1.705  0.3368  0.0122  0.6459
12121TIP3   OH257853   6.224   6.529   1.645 -0.0940 -0.2468 -0.2912
12121TIP3    H157854   6.302   6.560   1.692  0.5753 -0.8599 -0.9724
12121TIP3    H257855   6.151   6.576   1.685  0.6767  0.6641  0.0627
12122TIP3   OH257856   1.121   4.094  12.227 -0.2902  0.2075  0.0644
12122TIP3    H157857   1.075   4.136  12.299 -1.0698  0.2396 -0.4503
12122TIP3    H257858   1.182   4.033  12.269 -0.0213  0.9594  0.7735
12123TIP3   OH257859   4.986   3.466  15.089 -0.6354 -0.1804  0.2332
12123TIP3    H157860   4.935   3.547  15.087 -1.6869 -0.8623 -1.0788
12123TIP3    H257861   4.957   3.417  15.012  2.0922 -0.5242 -0.6128
12124TIP3   OH257862   2.917   6.679  16.099 -0.1739 -0.0754 -0.5874
12124TIP3    H157863   2.975   6.749  16.070  1.2321 -0.6234  0.8047
12124TIP3    H257864   2.839   6.724  16.131  0.1253  0.7690 -1.0320
12125TIP3   OH257865   6.071   1.706  16.132 -0.3337  0.3824 -0.6559
12125TIP3    H157866   6.046   1.760  16.057 -2.0355  0.1943 -0.2518
12125TIP3    H257867   6.040   1.619  16.110 -0.2839  0.1964 -0.0013
12126TIP3   OH257868   3.781   2.230   4.877 -0.1467  0.2839 -0.7110
12126TIP3    H157869   3.812   2.317   4.902  0.6857 -0.3736  0.6133
12126TIP3    H257870   3.820   2.214   4.792 -2.1622  2.1352 -2.0498
12127TIP3   OH257871   5.212   3.013  11.948 -0.4446 -0.3236  0.1044
12127TIP3    H157872   5.130   3.028  11.901 -1.0714  1.1348  1.6292
12127TIP3    H257873   5.278   3.060  11.897 -0.6622 -0.9245 -0.7419
12128TIP3   OH257874   6.115   2.937   2.007 -0.0872 -0.4303  0.0288
12128TIP3    H157875   6.172   3.013   2.012  1.0752 -1.2711 -0.1421
12128TIP3    H257876   6.037   2.968   1.962  0.3334  0.6836  0.0500
12129TIP3   OH257877   0.355   5.466  12.433 -0.4981  0.7904 -0.4769
12129TIP3    H157878   0.377   5.498  12.345 -0.0557  1.2354 -0.2105
12129TIP3    H257879   0.406   5.522  12.492  0.8949 -0.9069 -0.0290
12130TIP3   OH257880   2.446   2.153  13.713  0.3706  0.0025 -0.4369
12130TIP3    H157881   2.521   2.136  13.771 -0.1536  2.0977  0.9146
12130TIP3    H257882   2.413   2.067  13.690 -0.0777 -0.8935  3.2831
12131TIP3   OH257883   3.424   2.586  13.650 -0.8140  0.2975  0.6117
12131TIP3    H157884   3.519   2.588  13.638 -0.8236  0.4705  0.5690
12131TIP3    H257885   3.389   2.569  13.563 -0.8516  0.8537  0.5207
12132TIP3   OH257886   3.951   0.086   6.497 -0.0219 -0.6539 -0.4266
12132TIP3    H157887   3.927   0.175   6.521 -1.1185 -1.3296  1.0083
12132TIP3    H257888   3.921   0.078   6.406  1.7570  1.0158 -1.2166
12133TIP3   OH257889   3.861   1.603   4.197 -0.7645  0.4235 -0.1694
12133TIP3    H157890   3.823   1.616   4.284 -1.5913 -0.3059 -0.4166
12133TIP3    H257891   3.804   1.539   4.155  0.7091 -0.6365 -0.5875
12134TIP3   OH257892   5.151   4.849   0.051 -0.3594  0.4284 -0.1007
12134TIP3    H157893   5.071   4.795   0.046  0.1598 -0.3573 -0.0388
12134TIP3    H257894   5.218   4.795   0.010  0.5038  0.4212  1.3138
12135TIP3   OH257895   4.121   4.832   4.438 -0.1674 -0.1608 -0.5394
12135TIP3    H157896   4.174   4.887   4.496  0.1138  0.1415 -1.0765
12135TIP3    H257897   4.160   4.844   4.352 -0.8503 -0.2668 -0.8673
12136TIP3   OH257898   3.999   6.786   0.495 -0.2474 -0.1036  0.0716
12136TIP3    H157899   4.002   6.841   0.573 -3.7218  0.2409  0.0139
12136TIP3    H257900   4.058   6.831   0.433  1.7586  0.1466  2.0936
12137TIP3   OH257901   2.814   4.749   5.894 -0.7467  0.4310  0.0571
12137TIP3    H157902   2.791   4.656   5.893 -1.7947  0.6670  0.8008
12137TIP3    H257903   2.801   4.775   5.985  0.2796  1.1299  0.0015
12138TIP3   OH257904   0.730   4.548  15.153  0.0689 -0.2928  0.1259
12138TIP3    H157905   0.796   4.573  15.089  0.2554  0.6308  0.6651
12138TIP3    H257906   0.689   4.631  15.180 -0.6713 -0.7597  0.4787
12139TIP3   OH257907   2.552   1.486   2.380 -0.2533 -0.4079 -0.5231
12139TIP3    H157908   2.624   1.427   2.356  2.1577  2.0721  0.3299
12139TIP3    H257909   2.540   1.472   2.474 -0.6895 -0.5762 -0.6016
12140TIP3   OH257910   5.199   2.496   6.300 -0.0868 -0.1468 -0.6884
12140TIP3    H157911   5.130   2.562   6.291  0.0283  0.0283 -0.3198
12140TIP3    H257912   5.166   2.420   6.252  0.4633  0.6882 -2.4359
12141TIP3   OH257913   1.712   1.166   0.063 -0.7143  0.4737  0.2361
12141TIP3    H157914   1.744   1.171  -0.027 -1.3620 -1.4877 -0.1351
12141TIP3    H257915   1.785   1.199   0.116  0.8415 -1.1726 -0.8064
12142TIP3   OH257916   4.373   0.365  15.892 -0.0881  0.1354 -0.3480
12142TIP3    H157917   4.453   0.367  15.944  0.1040 -1.3587 -0.5640
12142TIP3    H257918   4.326   0.287  15.922 -0.7090  0.1133 -1.3328
12143TIP3   OH257919   1.899   2.664   0.799  0.1799 -0.1002  0.3019
12143TIP3    H157920   1.826   2.623   0.845  0.3112 -1.1750 -0.4137
12143TIP3    H257921   1.958   2.693   0.869  0.0790 -1.1422  0.8417
12144TIP3   OH257922   5.834   1.134   5.804 -0.0289 -0.2045 -0.0357
12144TIP3    H157923   5.913   1.115   5.855 -0.0506  1.1680  0.5384
12144TIP3    H257924   5.858   1.114   5.714  0.6058 -0.8735  0.2720
12145TIP3   OH257925   3.054   4.606  16.473  0.7701 -0.0897 -0.0004
12145TIP3    H157926   3.140   4.592  16.512  1.0202  0.6950 -0.2639
12145TIP3    H257927   3.028   4.519  16.442  1.9777 -0.1312 -0.9579
12146TIP3   OH257928   0.936   4.887  15.466 -0.2210  0.0831 -0.2120
12146TIP3    H157929   0.958   4.980  15.455 -0.5483  0.2286  0.3006
12146TIP3    H257930   0.845   4.888  15.495 -0.7736 -0.4930 -1.8877
12147TIP3   OH257931   0.341   5.979  12.061  0.3588  0.1870 -0.2368
12147TIP3    H157932   0.323   6.072  12.075  0.3090  0.3841 -1.5566
12147TIP3    H257933   0.436   5.973  12.053  0.4616 -0.0554  1.0578
12148TIP3   OH257934   1.573   3.940   4.976  0.1201  0.1114  0.0912
12148TIP3    H157935   1.539   3.877   4.912  0.0362  0.5919 -0.3476
12148TIP3    H257936   1.556   3.900   5.061 -0.9448  0.0432 -0.1450
12149TIP3   OH257937   0.426   2.108  12.713  0.4093  0.0124 -0.2430
12149TIP3    H157938   0.400   2.046  12.645 -0.6913 -0.1335  0.2920
12149TIP3    H257939   0.484   2.169  12.669 -2.3877  1.5176 -2.0113
12150TIP3   OH257940   1.393   4.379  16.532 -0.8086 -0.3066  0.1734
12150TIP3    H157941   1.399   4.407  16.440 -0.7450  0.5056  0.4209
12150TIP3    H257942   1.342   4.447  16.575 -1.2587 -0.9345  0.6500
12151TIP3   OH257943   4.894   6.128  17.017  0.1137 -0.1736 -0.1648
12151TIP3    H157944   4.954   6.055  17.033  2.7027  1.7625 -0.8233
12151TIP3    H257945   4.888   6.173  17.102  1.1861  0.7850 -0.5868
12152TIP3   OH257946   2.246   6.354   1.178 -0.4737  0.2864  0.1934
12152TIP3    H157947   2.157   6.320   1.184 -0.8727  1.4570  1.0565
12152TIP3    H257948   2.295   6.286   1.132 -2.0335  0.0523 -1.1730
12153TIP3   OH257949   6.314   6.239   3.003  0.6890 -0.2892 -0.4309
12153TIP3    H157950   6.393   6.241   3.056  1.0299 -0.7912 -0.9193
12153TIP3    H257951   6.243   6.234   3.066  0.9744  1.3148  0.0591
12154TIP3   OH257952   5.182   1.445  16.182 -0.1776 -0.3411  0.4596
12154TIP3    H157953   5.180   1.374  16.118  2.0047 -1.4881  1.6033
12154TIP3    H257954   5.262   1.430  16.233 -0.3987  2.1350  1.6502
12155TIP3   OH257955   4.683   1.170   4.037 -0.4735 -0.1387  0.3900
12155TIP3    H157956   4.738   1.100   4.002 -0.7954 -0.6825  0.9837
12155TIP3    H257957   4.705   1.246   3.983 -2.1006 -1.3431 -2.0489
12156TIP3   OH257958   1.640   2.509  12.496  1.0491 -0.3037  0.4282
12156TIP3    H157959   1.642   2.450  12.420 -1.2146 -0.7999  0.7156
12156TIP3    H257960   1.714   2.568  12.482 -0.1833  0.5884 -2.9797
12157TIP3   OH257961   2.737   1.106  15.406  0.3802  0.2396 -0.3115
12157TIP3    H157962   2.736   1.017  15.371  0.8970  1.2571 -2.9948
12157TIP3    H257963   2.663   1.150  15.363  0.3118  1.1963  0.7606
12158TIP3   OH257964   5.093   2.670   6.698 -0.5383  0.4896 -0.0124
12158TIP3    H157965   5.094   2.753   6.650 -0.6883  0.3691 -0.2222
12158TIP3    H257966   5.137   2.690   6.781  0.3960  0.5178 -0.5049
12159TIP3   OH257967   3.458   5.785  13.608  0.1362  0.3373 -0.0293
12159TIP3    H157968   3.545   5.750  13.589 -0.2517 -0.7185  0.1134
12159TIP3    H257969   3.419   5.720  13.667 -1.4613 -0.1630 -1.5985
12160TIP3   OH257970   0.718   6.632   4.501  0.6542  0.0611 -0.0685
12160TIP3    H157971   0.743   6.648   4.592 -0.4328 -0.1847  0.2882
12160TIP3    H257972   0.690   6.717   4.468  2.0821  0.3694 -0.5190
12161TIP3   OH257973   3.219   3.841  11.670  0.2221  0.2788 -0.0447
12161TIP3    H157974   3.295   3.899  11.661  0.5884  0.1999  2.4054
12161TIP3    H257975   3.194   3.848  11.762 -2.2123 -0.3793 -0.6302
12162TIP3   OH257976   6.108   2.405   1.139  0.1300 -0.7567  0.1139
12162TIP3    H157977   6.163   2.376   1.212 -0.6899 -0.8885  0.6927
12162TIP3    H257978   6.042   2.336   1.130  0.6660 -1.1096 -1.2469
12163TIP3   OH257979   0.424   1.072  16.189 -0.0921 -0.1603  0.1552
12163TIP3    H157980   0.409   1.157  16.147  1.2361 -0.9256 -1.9942
12163TIP3    H257981   0.401   1.086  16.281 -1.9375  1.9336 -0.5604
12164TIP3   OH257982   6.509   2.239   5.838  0.1867  0.1680  0.0984
12164TIP3    H157983   6.603   2.258   5.849  0.5280 -0.5631 -1.4858
12164TIP3    H257984   6.501   2.146   5.857 -0.1735  0.1544 -0.1190
12165TIP3   OH257985   2.623   1.883  10.995  0.2724 -0.7184 -0.3552
12165TIP3    H157986   2.551   1.865  11.056 -0.2486  1.1369 -0.3778
12165TIP3    H257987   2.580   1.913  10.915  1.0845  1.6841  0.0762
12166TIP3   OH257988   2.122   0.973   1.202  0.4763  0.0171  0.0454
12166TIP3    H157989   2.039   0.956   1.157 -0.1474  3.2567 -0.1245
12166TIP3    H257990   2.174   0.894   1.186 -2.2593 -1.7463 -0.5216
12167TIP3   OH257991   5.854   2.965  13.719  0.1545 -0.0374  0.4614
12167TIP3    H157992   5.929   3.019  13.744  1.4114 -1.0003 -1.1488
12167TIP3    H257993   5.888   2.875  13.721 -0.5354 -0.3746 -1.6596
12168TIP3   OH257994   6.530   4.696   4.702  0.8177 -0.1832  0.4759
12168TIP3    H157995   6.537   4.781   4.658  2.0839 -0.4524  0.1383
12168TIP3    H257996   6.546   4.632   4.633  0.8484 -0.6749  0.9384
12169TIP3   OH257997   2.586   1.660  16.616  0.3533  0.3775 -0.5786
12169TIP3    H157998   2.545   1.583  16.577 -0.0504  0.0291  0.5352
12169TIP3    H257999   2.540   1.673  16.699  1.8609  0.5348  0.2428
12170TIP3   OH258000   6.058   2.318   3.240 -0.7050  0.1125  0.2786
12170TIP3    H158001   6.146   2.313   3.279 -0.6337 -0.4395  0.0388
12170TIP3    H258002   6.000   2.282   3.307 -0.7150  0.2040  0.3193
12171TIP3   OH258003   3.917   3.714   3.900 -0.0820 -0.1784 -0.2768
12171TIP3    H158004   4.002   3.693   3.860  0.1620  0.5762 -0.1509
12171TIP3    H258005   3.909   3.651   3.972 -0.0383 -0.8392 -0.8399
12172TIP3   OH258006   3.445   2.969   1.554  0.0116 -0.1640  0.3126
12172TIP3    H158007   3.397   2.901   1.507 -0.9368  1.6526 -1.3910
12172TIP3    H258008   3.512   2.998   1.492  1.0221 -0.1771  1.3794
12173TIP3   OH258009   5.790   5.354  11.705  0.1172 -0.3929 -0.4017
12173TIP3    H158010   5.734   5.431  11.695 -0.1899 -0.5266  0.2640
12173TIP3    H258011   5.737   5.281  11.672  0.6106 -0.2440 -1.5397
12174TIP3   OH258012   0.813   1.065   0.297  0.0143 -0.1061  0.1331
12174TIP3    H158013   0.792   1.158   0.288 -1.0070 -0.3545 -0.1753
12174TIP3    H258014   0.728   1.021   0.293  0.3527 -0.9360  1.8435
12175TIP3   OH258015   0.527   3.642   0.232  0.0071  0.2968  0.0337
12175TIP3    H158016   0.601   3.655   0.173  1.3489  0.6314  1.7279
12175TIP3    H258017   0.465   3.589   0.182  2.1294 -1.4191 -0.8555
12176TIP3   OH258018   6.023   1.829   4.785 -0.4979 -0.1515  0.6562
12176TIP3    H158019   6.070   1.869   4.713 -0.3279 -0.3640  0.6482
12176TIP3    H258020   6.047   1.881   4.862 -0.5135 -0.0559  0.5961
12177TIP3   OH258021   3.856   2.941  17.179 -0.1117  0.1979  0.1217
12177TIP3    H158022   3.819   2.862  17.218  1.0637 -0.3718  0.0882
12177TIP3    H258023   3.920   2.909  17.116 -0.3483  1.1646 -0.6190
12178TIP3   OH258024   1.019   5.467  14.658  0.7434  0.0569 -0.4953
12178TIP3    H158025   0.980   5.390  14.617  0.3448 -0.4453  0.8121
12178TIP3    H258026   1.108   5.470  14.623 -0.1060  0.6398 -2.7303
12179TIP3   OH258027   4.217   6.757   4.582 -0.0316 -0.1302 -0.0207
12179TIP3    H158028   4.264   6.831   4.543  0.0262 -0.6464 -0.9437
12179TIP3    H258029   4.198   6.699   4.508 -2.1659  0.0917  0.3242
12180TIP3   OH258030   1.028   3.321  14.916  0.6120 -0.4418 -0.0219
12180TIP3    H158031   0.933   3.329  14.908  0.6691 -0.6851 -1.1280
12180TIP3    H258032   1.053   3.388  14.979 -0.2329 -0.0130 -0.1309
12181TIP3   OH258033   2.746   2.290   6.227 -0.1773  0.2911  0.9561
12181TIP3    H158034   2.763   2.196   6.231 -1.7562  0.0129  1.4519
12181TIP3    H258035   2.807   2.329   6.290  1.9763 -0.1552 -0.7754
12182TIP3   OH258036   6.605   6.349  15.271 -0.3624  0.1341 -0.0569
12182TIP3    H158037   6.686   6.363  15.221  0.1193 -2.5792 -0.0754
12182TIP3    H258038   6.565   6.272  15.232 -2.9382  1.3662  0.0490
12183TIP3   OH258039   0.317   6.220  15.339  0.3113  0.0884 -0.3052
12183TIP3    H158040   0.321   6.141  15.285  0.6349  0.5688 -0.9865
12183TIP3    H258041   0.375   6.282  15.295 -1.4945  1.3920 -0.8812
12184TIP3   OH258042   5.069   4.076   5.667  0.0091 -0.0521  0.3381
12184TIP3    H158043   5.054   4.105   5.577  0.5772  1.4194  0.6935
12184TIP3    H258044   4.990   4.103   5.714  1.5533  3.2337  1.1815
12185TIP3   OH258045   1.280   0.519   1.167 -0.3337  0.2695  0.3916
12185TIP3    H158046   1.295   0.535   1.074  0.4164  1.1558  0.6517
12185TIP3    H258047   1.267   0.606   1.204 -3.3341 -0.2512  0.6881
12186TIP3   OH258048   5.675   6.016   2.033  0.3522  0.1569  0.2011
12186TIP3    H158049   5.614   6.081   1.999 -0.6959 -0.6683  0.4504
12186TIP3    H258050   5.690   6.042   2.124 -0.9053 -0.5484  0.6141
12187TIP3   OH258051   5.999   4.580   5.308 -1.1064  0.7784 -0.6294
12187TIP3    H158052   6.076   4.533   5.341 -0.8082  0.9939 -1.0270
12187TIP3    H258053   5.964   4.523   5.239 -1.0908  0.8571 -0.7023
12188TIP3   OH258054   1.123   2.801   3.059 -0.2343 -0.0336 -0.6935
12188TIP3    H158055   1.136   2.751   3.140  0.0054  1.5897  0.2820
12188TIP3    H258056   1.201   2.856   3.052 -0.5818  0.3399 -1.6730
12189TIP3   OH258057   1.134   4.973  11.348 -0.0716  0.3961  0.2252
12189TIP3    H158058   1.227   4.996  11.355 -0.0174  0.5276 -0.8882
12189TIP3    H258059   1.130   4.912  11.275 -1.0566  1.4476 -0.6165
12190TIP3   OH258060   1.656   0.157  15.888  0.0796 -0.3918 -0.1755
12190TIP3    H158061   1.564   0.134  15.897  0.2556 -0.7660  0.6827
12190TIP3    H258062   1.700   0.111  15.959  0.8069  0.5161 -0.0282
12191TIP3   OH258063   4.022   1.679   2.439 -0.7023  0.5356 -0.2500
12191TIP3    H158064   4.114   1.685   2.413 -1.3402  0.0335 -2.7787
12191TIP3    H258065   3.993   1.770   2.444 -0.4337  0.6645 -0.9197
12192TIP3   OH258066   6.473   0.706  12.392  0.3592 -0.2217 -0.4691
12192TIP3    H158067   6.379   0.721  12.383  0.7127  3.4957  0.9982
12192TIP3    H258068   6.509   0.730  12.307 -0.0062 -1.5479 -1.0001
12193TIP3   OH258069   0.314   0.119   0.499 -0.0006  0.1483 -0.0066
12193TIP3    H158070   0.355   0.107   0.584 -0.8075  1.7233  0.6355
12193TIP3    H258071   0.318   0.214   0.484 -0.7272 -0.0130 -1.2695
12194TIP3   OH258072   4.716   4.405   0.899  0.1306  0.1682  0.0861
12194TIP3    H158073   4.631   4.399   0.857 -0.1480  0.1170  0.6482
12194TIP3    H258074   4.720   4.328   0.957 -0.4110  1.3934  1.8018
12195TIP3   OH258075   6.229   3.419  14.408  0.5771  0.4295  0.4095
12195TIP3    H158076   6.185   3.422  14.492  0.8895  0.1157  0.5844
12195TIP3    H258077   6.233   3.326  14.385  0.4093  0.5218  0.0060
12196TIP3   OH258078   3.007   5.215   2.215 -0.0765  0.3429  0.1657
12196TIP3    H158079   2.935   5.162   2.247  0.1775  0.2129  0.5308
12196TIP3    H258080   3.003   5.208   2.120 -0.6836  0.5246  0.1768
12197TIP3   OH258081   2.854   5.681  11.759  1.7498  0.2046  0.4871
12197TIP3    H158082   2.818   5.721  11.838  1.9520  1.4766 -0.0528
12197TIP3    H258083   2.862   5.588  11.781  0.7424  0.3581  1.5637
12198TIP3   OH258084   4.305   0.992  16.144  0.4183  0.0854 -0.0473
12198TIP3    H158085   4.313   1.085  16.165  1.5088  0.0740 -0.4025
12198TIP3    H258086   4.372   0.976  16.077  0.2803 -0.9639  0.0553
12199TIP3   OH258087   2.821   2.038   2.858  0.4127 -0.4969  0.5297
12199TIP3    H158088   2.779   2.049   2.773  0.5479 -2.8696  0.1329
12199TIP3    H258089   2.914   2.033   2.838  0.6956  1.7652  1.1242
12200TIP3   OH258090   2.475   3.328   0.699  0.2191  0.0150  0.4838
12200TIP3    H158091   2.521   3.260   0.649 -0.0860  0.5123 -0.4934
12200TIP3    H258092   2.391   3.337   0.654  0.2516  1.0180  0.6155
12201TIP3   OH258093   2.770   0.554   3.853 -0.9439  0.2193 -0.1830
12201TIP3    H158094   2.688   0.533   3.898 -1.0226  1.4897  0.2802
12201TIP3    H258095   2.831   0.576   3.923  0.6597 -3.4600 -0.3116
12202TIP3   OH258096   1.202   0.483  11.499  0.0872 -0.1355  0.0114
12202TIP3    H158097   1.205   0.412  11.435  2.1824  0.1434 -0.2243
12202TIP3    H258098   1.241   0.557  11.454  0.0029  0.5479  1.0494
12203TIP3   OH258099   2.668   3.868  15.330 -0.5320  0.5937 -0.4877
12203TIP3    H158100   2.763   3.882  15.332 -0.3664 -0.5613 -0.2893
12203TIP3    H258101   2.657   3.780  15.296 -1.5417  0.6853 -0.4156
12204TIP3   OH258102   3.956   4.321  12.098  0.5377  0.3955 -0.1909
12204TIP3    H158103   4.000   4.398  12.061 -0.6603  0.6621 -1.0962
12204TIP3    H258104   3.983   4.321  12.190 -0.8599  2.9947  0.2980
12205TIP3   OH258105   6.509   4.927   2.497 -0.1173  0.4468  0.4220
12205TIP3    H158106   6.444   4.945   2.565  0.4489  2.1680  0.5505
12205TIP3    H258107   6.587   4.974   2.526  0.7192 -0.3858 -0.4690
12206TIP3   OH258108   0.348   1.372  14.168 -0.0116  0.5731  0.0764
12206TIP3    H158109   0.330   1.458  14.207  1.6837  0.7086  0.6116
12206TIP3    H258110   0.292   1.311  14.216  0.2431  1.0931  1.0535
12207TIP3   OH258111   1.277   4.999  15.330 -0.3931 -0.0328 -0.0813
12207TIP3    H158112   1.226   5.047  15.395 -1.0852  0.2577 -0.8212
12207TIP3    H258113   1.268   5.051  15.250 -0.4106 -0.9232 -0.6643
12208TIP3   OH258114   2.867   4.589   1.817 -0.3556  0.0511  0.7543
12208TIP3    H158115   2.962   4.580   1.807 -0.4121  0.4726 -0.2047
12208TIP3    H258116   2.851   4.574   1.910  0.3840 -2.2260  0.5342
12209TIP3   OH258117   4.006   4.758  16.127 -0.0326 -0.1336 -0.3213
12209TIP3    H158118   4.073   4.689  16.121  0.5585  0.3672  0.5134
12209TIP3    H258119   4.047   4.834  16.085  0.5067  0.6185  1.5446
12210TIP3   OH258120   5.522   0.666   5.512 -1.0085 -0.1908 -0.0665
12210TIP3    H158121   5.607   0.705   5.490 -1.6513  0.3297 -1.6920
12210TIP3    H258122   5.511   0.595   5.449 -1.6624 -0.4291  0.3154
12211TIP3   OH258123   4.139   6.567   2.118 -0.3714  0.6474 -0.3141
12211TIP3    H158124   4.076   6.500   2.092  1.0230 -0.4704 -0.8595
12211TIP3    H258125   4.131   6.634   2.050 -0.1507 -0.0283 -1.0169
12212TIP3   OH258126   2.503   2.162   3.383 -0.5459  0.1408 -0.7908
12212TIP3    H158127   2.409   2.146   3.374 -0.2400 -1.3647 -1.4251
12212TIP3    H258128   2.512   2.256   3.365 -1.7518  0.0155 -2.2268
12213TIP3   OH258129   5.492   3.743   2.447  0.2908  0.3033 -0.5848
12213TIP3    H158130   5.531   3.669   2.493  0.3878  0.3388 -0.6088
12213TIP3    H258131   5.521   3.732   2.356  0.8429  0.7283 -0.4646
12214TIP3   OH258132   1.056   5.596  16.500  0.2890 -0.6560  1.0774
12214TIP3    H158133   1.116   5.524  16.520  1.8604  0.7107  1.3699
12214TIP3    H258134   1.009   5.612  16.582  1.8053  0.3795  1.7514
12215TIP3   OH258135   2.845   5.115  16.327  0.1779  0.2222 -0.0466
12215TIP3    H158136   2.753   5.138  16.341  0.7187  1.6651  1.2216
12215TIP3    H258137   2.849   5.021  16.346 -1.1795 -0.0337 -0.9317
12216TIP3   OH258138   4.785   1.366   3.053  0.4195  0.2642 -0.4573
12216TIP3    H158139   4.860   1.322   3.014 -0.3425 -2.1939  0.7421
12216TIP3    H258140   4.783   1.333   3.143 -1.9247  0.5079 -0.3999
12217TIP3   OH258141   3.808   1.394   0.715 -0.6597  0.4648  0.6522
12217TIP3    H158142   3.874   1.324   0.709  0.3588  1.5094 -0.6596
12217TIP3    H258143   3.737   1.356   0.767  0.5232 -1.0398  1.2020
12218TIP3   OH258144   4.570   0.510   4.855  0.3529  0.0437  0.8169
12218TIP3    H158145   4.545   0.600   4.834  0.7475  0.0179  0.2228
12218TIP3    H258146   4.546   0.499   4.947  1.4474  1.1521  1.2423
12219TIP3   OH258147   3.537   6.738   0.836  0.0900 -0.0869 -0.1120
12219TIP3    H158148   3.570   6.711   0.751 -0.9641  1.9251 -1.1868
12219TIP3    H258149   3.444   6.755   0.822  0.0771  1.0803  1.2502
12220TIP3   OH258150   0.320   4.770   0.103  0.3323  0.0772  0.2637
12220TIP3    H158151   0.235   4.814   0.101  1.0511  1.4458 -0.8173
12220TIP3    H258152   0.328   4.729   0.017  0.4818 -0.6100  0.6053
12221TIP3   OH258153   0.394   0.429   4.527  0.0810  0.0832  0.1408
12221TIP3    H158154   0.341   0.399   4.453 -0.5075  0.5825  0.3626
12221TIP3    H258155   0.331   0.453   4.595  0.5946  0.3585  0.5261
12222TIP3   OH258156   5.285   6.290  16.303  0.5649 -0.0930  0.3545
12222TIP3    H158157   5.246   6.311  16.218  1.2064  0.5441  0.2204
12222TIP3    H258158   5.210   6.282  16.362  0.1274 -0.3793 -0.2284
12223TIP3   OH258159   1.628   5.434  10.776 -0.4859 -0.0210  0.1572
12223TIP3    H158160   1.557   5.495  10.797 -0.9730 -0.3824 -0.4490
12223TIP3    H258161   1.706   5.489  10.770 -0.8202  0.4574  0.2007
12224TIP3   OH258162   3.471   0.877  11.127 -0.1451 -0.3147  1.0325
12224TIP3    H158163   3.415   0.813  11.171 -1.1795 -0.3372 -0.2766
12224TIP3    H258164   3.442   0.875  11.035  0.3173  1.4620  0.8325
12225TIP3   OH258165   1.202   2.134  12.199 -0.0880 -0.5689  0.5429
12225TIP3    H158166   1.264   2.199  12.230 -0.7571  0.9347 -1.1799
12225TIP3    H258167   1.116   2.176  12.208 -0.7638 -2.1142  1.6471
12226TIP3   OH258168   3.835   5.872  13.473  0.4133 -0.0259 -0.2083
12226TIP3    H158169   3.928   5.852  13.467  0.5908  1.1781 -1.6519
12226TIP3    H258170   3.796   5.795  13.514  1.9387 -0.8226 -0.2526
12227TIP3   OH258171   4.727   6.341  14.805 -0.5557 -0.5963 -0.1568
12227TIP3    H158172   4.720   6.250  14.834  0.8133 -1.2279 -1.7000
12227TIP3    H258173   4.685   6.343  14.719  1.5394 -0.3651 -1.2295
12228TIP3   OH258174   3.112   5.853  15.245  0.3007  0.0220 -0.6218
12228TIP3    H158175   3.018   5.844  15.261  0.6699 -4.0233 -0.4532
12228TIP3    H258176   3.153   5.836  15.330  1.3494 -2.6698 -1.6082
12229TIP3   OH258177   2.574   4.059  15.943 -0.2193  0.2279  0.0378
12229TIP3    H158178   2.625   4.075  16.022 -2.0547  0.8180  1.1430
12229TIP3    H258179   2.534   4.144  15.922 -1.8750 -0.5259  0.0369
12230TIP3   OH258180   0.103   2.661   3.806 -0.3343  0.4052  0.2917
12230TIP3    H158181   0.190   2.670   3.769 -0.9513  1.4463 -0.9446
12230TIP3    H258182   0.066   2.583   3.764 -0.3588  0.5278  0.0866
12231TIP3   OH258183   0.810   1.757  17.086  0.4483  0.5059 -0.1694
12231TIP3    H158184   0.755   1.832  17.065  0.9220  0.4253 -1.8007
12231TIP3    H258185   0.782   1.689  17.026  0.2294 -0.5306  1.0992
12232TIP3   OH258186   5.857   1.153   1.915  0.8459 -0.6127  0.0319
12232TIP3    H158187   5.858   1.095   1.838 -0.0535 -0.7403  0.1136
12232TIP3    H258188   5.811   1.103   1.982  0.1653  0.1546  0.1396
12233TIP3   OH258189   1.510   2.530   3.451  0.2303  0.0524  0.6603
12233TIP3    H158190   1.459   2.454   3.425 -1.6638  1.1191  1.1324
12233TIP3    H258191   1.583   2.494   3.501  0.7866 -1.6075 -1.2811
12234TIP3   OH258192   2.898   6.409   3.327  0.4105  0.0886  0.5118
12234TIP3    H158193   2.968   6.351   3.298  1.6509  0.7670  2.1141
12234TIP3    H258194   2.933   6.497   3.315 -1.5272  0.5864 -2.0769
12235TIP3   OH258195   6.182   1.513  15.869 -0.2912  0.4132  0.3402
12235TIP3    H158196   6.275   1.531  15.858 -0.1422  0.2785  1.2817
12235TIP3    H258197   6.167   1.523  15.964 -0.8969 -1.1208  0.4169
12236TIP3   OH258198   6.734   4.242  13.839  0.1806  0.0094 -1.0141
12236TIP3    H158199   6.639   4.256  13.830  0.1775 -0.7809 -2.5316
12236TIP3    H258200   6.771   4.330  13.846 -0.5093  0.4374 -2.4015
12237TIP3   OH258201   1.293   0.241  15.581  0.0516  0.1922 -0.3568
12237TIP3    H158202   1.260   0.208  15.498  0.5801  0.7368 -0.7943
12237TIP3    H258203   1.378   0.198  15.592 -0.8756 -1.3834  0.8766
12238TIP3   OH258204   4.469   4.289  12.843  0.5561 -0.1480 -0.1177
12238TIP3    H158205   4.532   4.217  12.845  1.7105  0.8599  0.6091
12238TIP3    H258206   4.403   4.265  12.909  1.8831  0.2911  1.3935
12239TIP3   OH258207   1.794   6.031  16.904  0.2765  0.1337 -0.7326
12239TIP3    H158208   1.725   6.097  16.914 -0.6615 -1.0900  1.0100
12239TIP3    H258209   1.874   6.076  16.928 -0.4435  0.4858  1.0618
12240TIP3   OH258210   3.039   6.533  15.180  0.5844  0.1569 -0.4295
12240TIP3    H158211   3.008   6.597  15.243  1.2761 -0.7001  0.7898
12240TIP3    H258212   3.129   6.560  15.159  1.5733 -1.4844  1.5527
12241TIP3   OH258213   3.292   0.767   2.110  0.3287 -0.1575 -0.1905
12241TIP3    H158214   3.374   0.801   2.146  0.6165 -0.8724 -0.1567
12241TIP3    H258215   3.299   0.672   2.121  0.4281 -0.3983 -2.1353
12242TIP3   OH258216   5.814   3.269   2.246  1.1579 -0.1887 -0.1135
12242TIP3    H158217   5.748   3.337   2.228  1.3080  0.1123  0.4604
12242TIP3    H258218   5.898   3.313   2.229  1.2389 -0.3527 -0.1343
12243TIP3   OH258219   0.075   0.437   5.237 -0.1393  0.3530 -0.0729
12243TIP3    H158220  -0.016   0.408   5.233 -0.2808  0.8611 -0.6629
12243TIP3    H258221   0.071   0.520   5.285  0.1187 -0.0298  0.6175
12244TIP3   OH258222   5.707   4.709  13.373  0.8005 -0.4993 -0.2389
12244TIP3    H158223   5.714   4.800  13.401  2.4108 -0.7959  0.3841
12244TIP3    H258224   5.692   4.713  13.279  0.2127  0.4170 -0.1078
12245TIP3   OH258225   4.295   2.567  16.045  0.0289  0.0550 -0.5228
12245TIP3    H158226   4.281   2.472  16.045  0.4046 -0.0069 -1.4215
12245TIP3    H258227   4.334   2.585  15.960 -0.9562  1.1590 -0.7531
12246TIP3   OH258228   0.333   3.657  15.019  0.2552  0.4823  0.3135
12246TIP3    H158229   0.299   3.634  14.933  1.4160  0.0068 -0.0277
12246TIP3    H258230   0.360   3.573  15.057 -1.7641  0.4678  1.8292
12247TIP3   OH258231   6.080   2.991   6.482  0.2359 -0.8511  0.7979
12247TIP3    H158232   6.058   3.061   6.544 -0.6148 -0.7411  0.3862
12247TIP3    H258233   6.136   2.932   6.531 -1.4783 -1.4448  2.0987
12248TIP3   OH258234   4.380   6.569  11.007 -0.0974 -0.3041 -0.3550
12248TIP3    H158235   4.354   6.642  10.951 -0.6038  1.2895  1.8966
12248TIP3    H258236   4.299   6.541  11.051  0.9871  1.3564  2.8534
12249TIP3   OH258237   1.837   5.571   6.272  0.5135  0.2133 -0.1542
12249TIP3    H158238   1.918   5.547   6.317  0.7779 -0.1002 -0.7935
12249TIP3    H258239   1.768   5.552   6.336  0.8643 -0.5091  0.0249
12250TIP3   OH258240   3.191   4.909   1.217  0.2005  0.2853  0.2294
12250TIP3    H158241   3.264   4.855   1.248  0.6767  0.3623 -0.7525
12250TIP3    H258242   3.231   4.994   1.197 -0.6602  1.2696  2.4549
12251TIP3   OH258243   1.651   6.507  15.553  0.3352  0.1176  0.7802
12251TIP3    H158244   1.589   6.577  15.531 -1.6038 -1.8989 -0.3639
12251TIP3    H258245   1.597   6.428  15.557  2.4379 -1.2759  2.3297
12252TIP3   OH258246   5.713   6.780  16.925  0.4111  0.1150 -0.5745
12252TIP3    H158247   5.772   6.774  16.849  0.6995 -2.5490 -0.1757
12252TIP3    H258248   5.770   6.762  17.000 -0.5859 -0.7801 -0.0356
12253TIP3   OH258249   3.365   1.190  12.360 -0.0230 -0.7275  0.6525
12253TIP3    H158250   3.312   1.207  12.438 -0.8542 -0.2990  0.0000
12253TIP3    H258251   3.388   1.277  12.327 -1.9937 -0.8459 -1.1384
12254TIP3   OH258252   2.377   3.004   3.734  0.4064 -0.3276  0.2774
12254TIP3    H158253   2.453   2.994   3.677 -2.1607 -0.5113 -3.3214
12254TIP3    H258254   2.359   2.916   3.767  0.9394 -0.5163  0.0645
12255TIP3   OH258255   0.030   6.659  13.258  0.2711  0.2063  0.0235
12255TIP3    H158256   0.004   6.584  13.312 -2.0512  0.5727 -0.5668
12255TIP3    H258257  -0.013   6.734  13.299 -1.0214  0.5730 -1.9651
12256TIP3   OH258258   5.314   4.852  12.919 -0.1084  0.2214 -0.0482
12256TIP3    H158259   5.279   4.804  12.844  1.7176 -0.2032 -0.6405
12256TIP3    H258260   5.260   4.824  12.993 -2.6778  1.5060 -1.3776
12257TIP3   OH258261   3.393   0.322   1.850  0.2053 -0.0092 -0.4109
12257TIP3    H158262   3.487   0.319   1.865  0.3604  1.2919 -1.0820
12257TIP3    H258263   3.383   0.299   1.757 -0.0175  1.3399 -0.7260
12258TIP3   OH258264   1.929   0.035  13.931  0.2273 -0.6251  0.2767
12258TIP3    H158265   1.931   0.059  14.024  1.9186  1.4956 -0.2902
12258TIP3    H258266   1.841   0.059  13.902 -0.3816 -1.4735  1.3389
12259TIP3   OH258267   6.567   3.376   2.657  0.3619 -0.3650 -0.1114
12259TIP3    H158268   6.481   3.362   2.697  0.6834  0.1060  0.7484
12259TIP3    H258269   6.557   3.341   2.568 -0.9240  0.2940 -0.2472
12260TIP3   OH258270   0.978   4.776  13.723 -0.3288  0.2050  0.5089
12260TIP3    H158271   1.033   4.710  13.767 -0.3594 -0.1160  0.0633
12260TIP3    H258272   0.932   4.727  13.655 -2.7816  0.0419  2.2336
12261TIP3   OH258273   3.694   1.556  11.597  0.6670 -0.2376  0.7271
12261TIP3    H158274   3.759   1.514  11.540 -1.8079 -0.2992 -2.1919
12261TIP3    H258275   3.725   1.646  11.606  1.8949 -0.6349  0.5555
12262TIP3   OH258276   1.158   5.619   1.211  0.3561 -0.3131  0.1265
12262TIP3    H158277   1.198   5.589   1.292  1.6183 -2.0869 -1.1389
12262TIP3    H258278   1.224   5.675   1.170  0.2863 -0.6015 -0.3868
12263TIP3   OH258279   0.836   3.228   0.597  0.5331  0.1677  0.1790
12263TIP3    H158280   0.740   3.222   0.597  0.4792  0.9488  0.4164
12263TIP3    H258281   0.866   3.138   0.614 -0.1405 -0.2210 -0.6240
12264TIP3   OH258282   2.953   5.574  15.514  0.3430 -0.3085  0.0308
12264TIP3    H158283   2.993   5.494  15.481 -1.7294 -0.8321 -1.2129
12264TIP3    H258284   2.871   5.546  15.554  0.1214  1.0669  0.5701
12265TIP3   OH258285   6.067   5.041   6.397 -0.3855  0.3227  0.0947
12265TIP3    H158286   6.154   5.076   6.377 -0.1704 -0.5072 -0.4601
12265TIP3    H258287   6.052   5.065   6.488  0.1594  1.0235  0.0051
12266TIP3   OH258288   5.037   1.331  11.582  0.0616 -0.8623  0.3933
12266TIP3    H158289   4.976   1.405  11.579 -1.6775 -2.3065 -1.0809
12266TIP3    H258290   5.092   1.348  11.658 -1.6308  0.9101  1.2580
12267TIP3   OH258291   2.811   5.898   4.475  0.1359 -0.0290  0.5196
12267TIP3    H158292   2.745   5.889   4.406  0.3759  0.5556  0.2082
12267TIP3    H258293   2.836   5.809   4.496  0.0187 -0.2131 -0.1104
12268TIP3   OH258294   1.567   1.725  16.267  0.1960  0.1633 -0.3539
12268TIP3    H158295   1.617   1.648  16.298  0.3516  0.3836 -0.0479
12268TIP3    H258296   1.628   1.772  16.210  0.2582  0.3057 -0.1688
12269TIP3   OH258297   1.118   4.999  12.331  0.3655  0.1259  0.0998
12269TIP3    H158298   1.098   5.042  12.248  1.7666  0.7501  0.0789
12269TIP3    H258299   1.179   5.059  12.375  0.5137 -0.7359  1.0767
12270TIP3   OH258300   3.692   1.900  15.880 -0.5965 -0.4829  0.3936
12270TIP3    H158301   3.611   1.858  15.909 -2.6434  2.6044 -0.6259
12270TIP3    H258302   3.697   1.981  15.932  1.3626 -0.2140 -0.1931
12271TIP3   OH258303   5.342   1.470  10.807 -0.1369 -0.0579 -0.2058
12271TIP3    H158304   5.365   1.550  10.855  0.4370 -0.1747 -0.2739
12271TIP3    H258305   5.386   1.480  10.723  1.6513 -1.3617  0.5400
12272TIP3   OH258306   2.487   4.017   6.396 -0.2919 -0.1001 -1.0530
12272TIP3    H158307   2.481   4.066   6.478 -1.1510 -3.2206  0.8483
12272TIP3    H258308   2.443   4.072   6.332 -0.2819  2.0752  0.7358
12273TIP3   OH258309   6.649   5.217   3.709 -0.0580 -0.3061 -0.1386
12273TIP3    H158310   6.585   5.151   3.682 -0.4022  0.3828 -1.0391
12273TIP3    H258311   6.710   5.169   3.765 -3.3322 -0.2434  3.7704
12274TIP3   OH258312   5.404   5.955  12.531  0.8718  0.0660  0.0391
12274TIP3    H158313   5.389   5.912  12.446  0.9260  1.1433 -0.5310
12274TIP3    H258314   5.496   5.981  12.529  1.5890 -2.2941  1.5605
12275TIP3   OH258315   2.483   4.462   3.492 -0.2476  0.7255  0.0200
12275TIP3    H158316   2.436   4.479   3.574 -0.1049  1.8143 -0.1071
12275TIP3    H258317   2.572   4.491   3.510  0.6177 -2.0997  0.5292
12276TIP3   OH258318   5.154   6.634   4.969 -0.3209 -0.8672 -0.8961
12276TIP3    H158319   5.108   6.617   5.051  0.2122 -1.4280 -0.7115
12276TIP3    H258320   5.243   6.658   4.995 -0.0459 -1.4031 -1.3151
12277TIP3   OH258321   2.427   1.897   1.957  0.6962 -0.5813 -0.7646
12277TIP3    H158322   2.475   1.903   2.040 -0.4778 -1.0738 -0.0446
12277TIP3    H258323   2.460   1.817   1.916  2.9217  0.8439 -1.8364
12278TIP3   OH258324   0.327   2.192  11.173 -0.8402 -0.1084 -0.0934
12278TIP3    H158325   0.316   2.226  11.262  1.6091  1.1346 -0.2112
12278TIP3    H258326   0.377   2.260  11.128 -0.2484 -1.6603 -1.8171
12279TIP3   OH258327   6.413   2.474  14.566 -0.7438 -0.4858 -0.0144
12279TIP3    H158328   6.371   2.400  14.522 -0.0170 -2.0815  1.8343
12279TIP3    H258329   6.389   2.463  14.658 -1.4150  2.1755  0.1436
12280TIP3   OH258330   4.685   5.347  14.435 -0.8208  0.1901  0.2808
12280TIP3    H158331   4.618   5.415  14.429 -1.2470 -0.2954 -0.5242
12280TIP3    H258332   4.658   5.293  14.510 -1.4311 -0.0985 -0.1390
12281TIP3   OH258333   4.523   5.149   4.062  0.5460  0.3038 -0.0294
12281TIP3    H158334   4.427   5.154   4.066  0.4332 -0.6571 -1.2859
12281TIP3    H258335   4.547   5.200   3.985  1.1885  1.9239  1.2146
12282TIP3   OH258336   0.956   4.832   5.179  0.3072  0.2025 -0.1079
12282TIP3    H158337   0.969   4.738   5.195  0.1696  0.4930  1.8629
12282TIP3    H258338   1.042   4.864   5.153  1.5614  0.3774  3.8825
12283TIP3   OH258339   1.304   5.958  12.306 -0.1054  0.1084 -0.3593
12283TIP3    H158340   1.382   5.904  12.293  0.0560 -0.1019  1.3660
12283TIP3    H258341   1.336   6.034  12.355 -1.1382 -0.4408  1.2034
12284TIP3   OH258342   1.967   1.404  13.767 -0.3317  0.1110 -0.1486
12284TIP3    H158343   1.924   1.489  13.771 -0.1371  0.2123 -0.1888
12284TIP3    H258344   2.046   1.419  13.715 -0.1488 -0.0296  0.0834
12285TIP3   OH258345   5.322   4.236   3.400 -0.1198  0.2625 -0.2167
12285TIP3    H158346   5.304   4.313   3.346  0.3787 -0.4151 -1.3668
12285TIP3    H258347   5.307   4.265   3.490  0.3677  1.7799 -0.6186
12286TIP3   OH258348   4.085   1.912   3.974  0.8044  0.1299  0.1064
12286TIP3    H158349   4.094   1.930   3.880 -0.3527  2.0688  0.3423
12286TIP3    H258350   4.169   1.873   3.999  1.4658  0.4687 -1.5370
12287TIP3   OH258351   2.713   4.721  14.414  0.5337 -0.3255  0.6185
12287TIP3    H158352   2.665   4.803  14.420  1.4055  0.4694 -2.2537
12287TIP3    H258353   2.780   4.726  14.483 -0.0762  0.9184  1.1296
12288TIP3   OH258354   5.269   0.764   5.572  1.1197 -0.2630 -0.6970
12288TIP3    H158355   5.205   0.697   5.548  0.1272  0.3486  0.2097
12288TIP3    H258356   5.354   0.723   5.556  0.5095 -1.4284 -0.9842
12289TIP3   OH258357   6.321   0.430   6.500  0.2726 -0.2376  0.6210
12289TIP3    H158358   6.226   0.421   6.500  0.2158  0.2793 -1.0021
12289TIP3    H258359   6.354   0.344   6.471  0.1835  0.4640 -1.6520
12290TIP3   OH258360   1.120   1.895   2.068 -0.0950  0.1095  0.7732
12290TIP3    H158361   1.158   1.899   2.155  0.0995  2.5186  0.6212
12290TIP3    H258362   1.082   1.982   2.055 -4.7988 -1.8282  0.5259
12291TIP3   OH258363   6.396   1.393   2.226 -0.4893  0.2453  0.3973
12291TIP3    H158364   6.480   1.361   2.258 -0.1851  0.7983  0.1525
12291TIP3    H258365   6.335   1.321   2.243  0.2180 -0.5275 -0.2981
12292TIP3   OH258366   0.585   4.547  11.820 -0.2507 -0.3655  0.0304
12292TIP3    H158367   0.495   4.528  11.849  0.8500 -2.2388  2.4304
12292TIP3    H258368   0.619   4.607  11.886  0.4192 -0.0066 -0.6389
12293TIP3   OH258369   1.423   4.478   4.138 -0.1586 -0.1575 -0.1725
12293TIP3    H158370   1.474   4.551   4.103 -0.5283  0.3455  0.3303
12293TIP3    H258371   1.466   4.457   4.221 -0.2309 -0.3163 -0.1754
12294TIP3   OH258372   2.127   2.683   2.344  0.1118 -0.5974 -0.1866
12294TIP3    H158373   2.199   2.621   2.337 -0.2289 -0.9012 -1.1888
12294TIP3    H258374   2.158   2.762   2.300  0.0720 -0.5025 -0.0456
12295TIP3   OH258375   6.575   6.166   1.238 -0.2445 -0.3093  0.5136
12295TIP3    H158376   6.493   6.209   1.263 -0.8733 -0.8463 -0.5775
12295TIP3    H258377   6.643   6.214   1.285 -0.9360  1.9383 -0.6989
12296TIP3   OH258378   6.032   4.213  16.206  0.1843  0.1252 -0.0541
12296TIP3    H158379   6.077   4.279  16.259 -1.2288 -0.5374  2.0148
12296TIP3    H258380   6.032   4.250  16.118  0.7905  2.1856  0.7661
12297TIP3   OH258381   1.820   3.846   3.361  0.6122  0.0330 -0.0504
12297TIP3    H158382   1.802   3.875   3.450  1.6982 -2.6852  1.1336
12297TIP3    H258383   1.774   3.763   3.353 -0.8873  1.0638 -2.6484
12298TIP3   OH258384   2.829   2.239   4.044  0.1039 -0.0499 -0.3425
12298TIP3    H158385   2.779   2.167   4.081 -2.2185  0.5711 -2.2050
12298TIP3    H258386   2.921   2.217   4.063 -0.7487 -2.0112  1.6470
12299TIP3   OH258387   5.877   2.188   3.993 -0.4482  0.5992  0.2389
12299TIP3    H158388   5.952   2.206   3.938 -0.7155 -0.4200 -0.4644
12299TIP3    H258389   5.914   2.159   4.077 -0.0551 -1.3069 -0.5791
12300TIP3   OH258390   2.469   3.950   5.572 -0.3816  0.4195 -0.1525
12300TIP3    H158391   2.383   3.951   5.614 -1.1145  1.4104 -1.6458
12300TIP3    H258392   2.479   3.862   5.537  0.5519 -0.6578  2.6878
12301TIP3   OH258393   4.825   3.667  14.409 -0.1063  0.2982  0.2480
12301TIP3    H158394   4.845   3.577  14.382 -1.2434  0.3666 -0.9017
12301TIP3    H258395   4.911   3.709  14.415  0.4923 -1.0416  1.5189
12302TIP3   OH258396   4.295   3.373   3.644  0.3625  0.2480  0.7897
12302TIP3    H158397   4.295   3.397   3.552 -1.3785 -1.0862  0.4139
12302TIP3    H258398   4.386   3.351   3.664  0.6098 -0.1892 -0.8016
12303TIP3   OH258399   6.302   3.722   5.150 -0.6551  0.7191  0.6118
12303TIP3    H158400   6.302   3.642   5.202  0.0267  0.2458 -0.0974
12303TIP3    H258401   6.394   3.739   5.133 -0.9382 -0.5065 -2.4833
12304TIP3   OH258402   2.243   6.716  11.905 -0.0128 -0.0860  0.5857
12304TIP3    H158403   2.238   6.688  11.997  1.5538  0.7056  0.9374
12304TIP3    H258404   2.310   6.785  11.905  0.6530 -0.7024 -1.3064
12305TIP3   OH258405   4.556   6.629  16.442 -0.2698 -0.3178  0.0063
12305TIP3    H158406   4.484   6.599  16.387  1.6972 -2.7610 -1.3009
12305TIP3    H258407   4.525   6.615  16.532 -0.9954 -2.4257 -0.5521
12306TIP3   OH258408   1.645   0.425   2.970 -0.2921 -0.0157  0.1481
12306TIP3    H158409   1.595   0.473   2.905 -0.7853 -1.4470 -0.5511
12306TIP3    H258410   1.584   0.359   3.004  0.4495 -0.3407  0.8751
12307TIP3   OH258411   1.769   0.445  12.669 -0.3859 -0.2269  0.7197
12307TIP3    H158412   1.698   0.387  12.641  1.0028 -1.7239  0.1981
12307TIP3    H258413   1.813   0.469  12.587  0.7506 -0.6964  1.1926
12308TIP3   OH258414   0.627   6.006  11.658 -0.2843  0.1013 -0.0727
12308TIP3    H158415   0.631   6.091  11.614  1.2087  0.3979  0.6307
12308TIP3    H258416   0.585   5.949  11.594  1.4931  0.6278 -1.7611
12309TIP3   OH258417   5.889   4.395   2.396  0.5251 -0.0203  0.2314
12309TIP3    H158418   5.942   4.319   2.419 -1.5511 -1.2679  1.0789
12309TIP3    H258419   5.814   4.391   2.455 -0.1213  2.1480 -0.3739
12310TIP3   OH258420   1.959   5.199  17.158  0.2279  0.3820 -0.2087
12310TIP3    H158421   2.031   5.165  17.104 -0.3046  1.8484 -1.9052
12310TIP3    H258422   1.977   5.165  17.246  3.4363  1.3496 -0.3987
12311TIP3   OH258423   5.471   1.884   0.872  0.1239 -0.1127 -0.0825
12311TIP3    H158424   5.520   1.966   0.883  2.2437 -1.2797 -0.5742
12311TIP3    H258425   5.400   1.907   0.812 -1.3142  2.1391  2.3755
12312TIP3   OH258426   4.917   4.392   5.810 -0.0661  0.2744 -0.3722
12312TIP3    H158427   4.844   4.433   5.857  0.4979  1.3531 -0.4279
12312TIP3    H258428   4.876   4.320   5.762 -1.0526  0.6970 -0.1831
12313TIP3   OH258429   2.509   1.421  12.124  0.5342 -0.3441  0.1204
12313TIP3    H158430   2.429   1.367  12.122 -0.2079  0.7484  0.0590
12313TIP3    H258431   2.519   1.445  12.216  1.4818 -1.4719  0.3321
12314TIP3   OH258432   2.967   2.706  12.608  0.1866 -0.1914  0.1839
12314TIP3    H158433   2.874   2.690  12.624 -0.0474  0.5046 -0.4368
12314TIP3    H258434   3.012   2.646  12.667 -0.6579 -0.9012  0.1280
12315TIP3   OH258435   4.865   4.843  13.167 -0.1600 -0.4125 -0.4555
12315TIP3    H158436   4.896   4.839  13.258 -1.0979 -1.4398 -0.1648
12315TIP3    H258437   4.875   4.935  13.142  1.2369 -0.3458  0.2777
12316TIP3   OH258438   2.230   2.514  12.850 -0.3860  0.2284  0.3370
12316TIP3    H158439   2.148   2.559  12.826  0.3512  0.7719 -1.2235
12316TIP3    H258440   2.226   2.431  12.803  0.0908  0.3820  0.0228
12317TIP3   OH258441   0.552   4.245  13.813 -0.0739  0.2850  0.5448
12317TIP3    H158442   0.544   4.194  13.732  2.3595  0.7673 -0.0244
12317TIP3    H258443   0.571   4.334  13.784 -1.0968  0.8686  1.6194
12318TIP3   OH258444   4.786   3.607  15.723 -0.0121 -0.2103  0.0944
12318TIP3    H158445   4.800   3.701  15.710  0.2851 -0.0036  1.6923
12318TIP3    H258446   4.870   3.567  15.701 -0.9341 -0.4383 -3.2878
12319TIP3   OH258447   4.473   1.098  16.668  0.4388  0.2304  0.4842
12319TIP3    H158448   4.494   1.010  16.699 -0.5542  0.0760  0.7531
12319TIP3    H258449   4.408   1.084  16.599  2.0981  0.6209 -1.1788
12320TIP3   OH258450   6.804   5.650  14.750  0.0703  0.3351 -0.2535
12320TIP3    H158451   6.844   5.640  14.663 -1.8961  0.3024 -1.1736
12320TIP3    H258452   6.790   5.745  14.758 -0.6510  0.2393 -0.3843
12321TIP3   OH258453   5.293   4.093  14.633 -0.2013  0.0434 -0.1795
12321TIP3    H158454   5.205   4.128  14.618 -0.3328 -0.3944 -0.4364
12321TIP3    H258455   5.318   4.056  14.548  0.2176  0.1416 -0.0970
12322TIP3   OH258456   5.739   0.288   3.751 -0.5019  0.0248  0.2984
12322TIP3    H158457   5.769   0.344   3.679  0.2730 -0.8223 -0.0568
12322TIP3    H258458   5.815   0.234   3.772 -1.7626 -2.2057 -0.6515
12323TIP3   OH258459   2.702   5.287   0.833  0.3007  0.3453  0.3336
12323TIP3    H158460   2.614   5.248   0.835  0.8548 -0.8997  2.5825
12323TIP3    H258461   2.740   5.256   0.751 -1.6689  1.6479 -1.1189
12324TIP3   OH258462   0.014   3.984  13.085  0.1700  0.4921 -0.7693
12324TIP3    H158463   0.086   3.928  13.055 -0.4348 -0.5639 -0.2863
12324TIP3    H258464  -0.055   3.972  13.019  1.3128  3.4562 -2.6217
12325TIP3   OH258465   2.596   3.655   2.208 -0.3719  0.4173 -0.5116
12325TIP3    H158466   2.604   3.567   2.245 -1.5999  0.5112 -0.0198
12325TIP3    H258467   2.683   3.673   2.172  0.6285  0.0061  1.6410
12326TIP3   OH258468   5.129   2.131  11.972 -0.0492 -0.9689 -0.1448
12326TIP3    H158469   5.136   2.190  11.897  0.1642 -1.0407 -0.1814
12326TIP3    H258470   5.065   2.173  12.030  0.2603 -0.5974 -0.0742
12327TIP3   OH258471   3.192   0.646  15.172 -0.1266  0.3239 -0.1162
12327TIP3    H158472   3.180   0.736  15.201 -0.8403 -0.1067  0.9443
12327TIP3    H258473   3.128   0.596  15.222  1.5748 -1.0462  0.7416
12328TIP3   OH258474   3.256   6.676  14.830  0.8976 -0.2853 -0.0199
12328TIP3    H158475   3.256   6.596  14.778 -1.0935 -1.3173  1.5105
12328TIP3    H258476   3.166   6.706  14.829  1.7790  2.4704 -1.3077
12329TIP3   OH258477   1.023   6.607   1.038 -0.4483  0.1343  0.4307
12329TIP3    H158478   1.022   6.583   1.130 -0.7781  0.9848  0.6553
12329TIP3    H258479   1.054   6.698   1.037 -0.7425  0.2316 -0.2648
12330TIP3   OH258480   3.769   2.024   0.094 -0.2623  0.6592 -0.0385
12330TIP3    H158481   3.767   2.028   0.190  1.5082  1.3571 -0.0015
12330TIP3    H258482   3.714   1.950   0.072  0.7282 -0.6051  1.6195
12331TIP3   OH258483   1.007   6.159   4.531  0.6852  0.2736 -0.3024
12331TIP3    H158484   0.920   6.145   4.494  0.3754  0.5085  0.3184
12331TIP3    H258485   1.018   6.088   4.594  0.9135  0.2867 -0.3256
12332TIP3   OH258486   2.341   0.197   5.159 -0.6269  0.2072  0.2918
12332TIP3    H158487   2.336   0.292   5.151 -0.5895  0.1865  0.0279
12332TIP3    H258488   2.254   0.166   5.135 -0.7460  0.1957  0.7212
12333TIP3   OH258489   2.486   0.064   5.784 -0.2444 -0.0905  0.2898
12333TIP3    H158490   2.533  -0.019   5.775 -0.0294  0.0513  0.0820
12333TIP3    H258491   2.548   0.121   5.830  0.9131  0.9913 -2.5101
12334TIP3   OH258492   2.013   1.793   6.755 -0.1798  0.0077 -0.5082
12334TIP3    H158493   2.075   1.742   6.703  0.1823 -0.9461  0.8127
12334TIP3    H258494   1.943   1.731   6.777  0.0296  0.1874  0.7278
12335TIP3   OH258495   5.602   4.344   2.415 -0.0539  0.7077  0.3676
12335TIP3    H158496   5.609   4.249   2.419  0.1223  0.7896  2.4263
12335TIP3    H258497   5.516   4.364   2.450 -1.6366  1.1366 -3.5009
12336TIP3   OH258498   3.034   6.313   4.518 -0.3837 -0.1900 -0.6429
12336TIP3    H158499   3.057   6.266   4.598 -1.1668 -0.4777 -0.5814
12336TIP3    H258500   2.977   6.252   4.470 -1.6355  0.7884 -0.4313
12337TIP3   OH258501   1.312   4.349   2.407 -0.5044  0.5903 -0.1659
12337TIP3    H158502   1.327   4.407   2.332 -0.8940 -1.4217 -1.8480
12337TIP3    H258503   1.391   4.358   2.460  0.4642  0.8388 -1.6315
12338TIP3   OH258504   5.457   4.112  13.057 -0.0262  0.5785 -0.1931
12338TIP3    H158505   5.465   4.199  13.018 -1.4521  1.4408  1.3501
12338TIP3    H258506   5.514   4.115  13.134 -0.7840  0.4590  0.3748
12339TIP3   OH258507   6.061   4.190  15.408  0.1403 -0.1558 -0.3097
12339TIP3    H158508   6.075   4.228  15.321  4.1229 -3.0096 -1.0398
12339TIP3    H258509   6.004   4.115  15.392 -0.8307  0.5192 -0.0941
12340TIP3   OH258510   5.876   3.387   1.377 -0.1771 -0.1608 -0.0068
12340TIP3    H158511   5.828   3.450   1.431  0.0126  0.6811 -0.8092
12340TIP3    H258512   5.810   3.324   1.348 -0.3131 -0.5092  1.0474
12341TIP3   OH258513   3.204   1.411  13.146 -0.0603 -0.4398  0.3185
12341TIP3    H158514   3.297   1.433  13.142  0.5350 -2.5935  1.6945
12341TIP3    H258515   3.181   1.423  13.238 -1.2102  0.2978 -0.0560
12342TIP3   OH258516   5.697   3.433   4.598 -0.2930  0.6457 -0.4047
12342TIP3    H158517   5.726   3.342   4.593 -0.6775  0.3791  1.5958
12342TIP3    H258518   5.602   3.429   4.588 -0.6131  0.5142  2.3350
12343TIP3   OH258519   0.549   0.292   3.919  0.4472  0.0549  0.6996
12343TIP3    H158520   0.545   0.202   3.952  0.6404  0.7001  2.5385
12343TIP3    H258521   0.618   0.334   3.971  1.9574  0.6502 -1.7237
12344TIP3   OH258522   6.602   5.695   2.957 -0.1830  0.3379  0.2095
12344TIP3    H158523   6.639   5.665   2.874 -0.9008  2.2365 -0.8401
12344TIP3    H258524   6.659   5.658   3.024 -0.4228 -2.4326 -1.0493
12345TIP3   OH258525   5.222   3.408  14.797  0.1403  0.6551  0.1097
12345TIP3    H158526   5.290   3.386  14.860  3.5958  4.2331 -2.1591
12345TIP3    H258527   5.196   3.324  14.759  0.9886 -1.0871  3.1483
12346TIP3   OH258528   3.935   1.852   4.178  0.2368  0.1050 -0.0254
12346TIP3    H158529   4.001   1.877   4.113  1.4932  1.2361  1.6529
12346TIP3    H258530   3.937   1.756   4.179  2.4099  0.1300  0.5429
12347TIP3   OH258531   1.906   4.536   0.638 -0.4931 -0.6028  0.7586
12347TIP3    H158532   1.881   4.618   0.679  1.3198  0.8049 -0.8864
12347TIP3    H258533   1.823   4.499   0.607 -1.1448  1.6035 -0.2694
12348TIP3   OH258534   4.506   0.720  14.528  1.0467  0.1697 -0.3448
12348TIP3    H158535   4.593   0.685  14.549  1.7805  2.5895  0.8234
12348TIP3    H258536   4.460   0.724  14.611  0.8919  1.6877 -0.4835
12349TIP3   OH258537   1.900   0.738  14.133 -0.4929  0.1129 -0.0530
12349TIP3    H158538   1.845   0.816  14.136  1.0073  1.1955 -0.1947
12349TIP3    H258539   1.943   0.741  14.048  0.5292 -0.1988  0.4352
12350TIP3   OH258540   1.223   2.225  16.221 -0.5020  0.5357  0.3481
12350TIP3    H158541   1.279   2.228  16.298 -0.7428  1.5182  0.4985
12350TIP3    H258542   1.179   2.140  16.226  0.7495 -0.1138  0.3801
12351TIP3   OH258543   1.612   6.119   4.080  0.0235 -0.1410  0.2479
12351TIP3    H158544   1.572   6.098   4.164  0.2275 -1.1270  0.1051
12351TIP3    H258545   1.564   6.065   4.016 -0.0075  0.4606 -0.2428
12352TIP3   OH258546   2.794   0.993   0.708  0.2410  0.4050  0.2292
12352TIP3    H158547   2.778   1.086   0.725 -1.7507 -0.0691  1.1061
12352TIP3    H258548   2.836   0.961   0.789  0.9997  0.5395 -0.1031
12353TIP3   OH258549   0.370   2.083  13.957 -0.2475 -0.1968 -0.3695
12353TIP3    H158550   0.305   2.120  14.016  0.3255 -0.7364  0.6279
12353TIP3    H258551   0.325   2.011  13.913 -0.4591 -0.2872 -0.0079
12354TIP3   OH258552   1.764   3.315   2.141  0.2412 -0.9427  0.1604
12354TIP3    H158553   1.703   3.268   2.084  0.4795  0.4401 -1.2717
12354TIP3    H258554   1.794   3.249   2.204 -0.2700 -2.4221 -1.1182
12355TIP3   OH258555   5.066   0.850  12.373 -0.8148  0.2730 -0.1303
12355TIP3    H158556   5.123   0.919  12.409 -0.3969 -0.1739  0.0767
12355TIP3    H258557   4.977   0.882  12.388 -0.6230  0.7748 -0.0493
12356TIP3   OH258558   2.267   5.275  16.757 -0.0050 -0.3607  1.0013
12356TIP3    H158559   2.258   5.370  16.754  0.5854 -0.3490 -0.4973
12356TIP3    H258560   2.328   5.259  16.830 -0.2365  0.3850  1.3618
12357TIP3   OH258561   6.098   6.053  17.274  0.1849  0.2816 -0.6029
12357TIP3    H158562   6.040   6.124  17.245 -0.2543  0.0565 -0.2822
12357TIP3    H258563   6.097   5.990  17.203  0.7637  0.7077 -0.9920
12358TIP3   OH258564   4.858   4.089   4.791  0.4113  0.3379  0.5930
12358TIP3    H158565   4.796   4.103   4.720  0.4948  0.1498  0.4802
12358TIP3    H258566   4.934   4.144   4.768  0.7295 -0.2755  0.1649
12359TIP3   OH258567   5.399   3.208  17.022  0.5500  0.5267  0.1655
12359TIP3    H158568   5.467   3.140  17.016 -0.9084 -1.0599  1.2572
12359TIP3    H258569   5.321   3.167  16.984 -0.0238  2.0474 -0.3285
12360TIP3   OH258570   4.956   3.771   2.517 -0.1781 -0.3418  0.6330
12360TIP3    H158571   4.928   3.801   2.604 -0.9018 -1.0227  0.6443
12360TIP3    H258572   5.051   3.770   2.522 -0.2007  0.1323  1.2500
12361TIP3   OH258573   2.365   2.762   0.854 -0.5021 -0.4819  0.4012
12361TIP3    H158574   2.337   2.676   0.823 -0.9589 -0.7215  1.4496
12361TIP3    H258575   2.283   2.806   0.878 -0.1860 -0.2077  1.0030
12362TIP3   OH258576   0.818   6.146  15.718  0.0434 -0.5065 -0.3135
12362TIP3    H158577   0.814   6.078  15.785  0.2993  0.7603  1.0283
12362TIP3    H258578   0.902   6.131  15.674  0.7075 -0.2615  0.8546
12363TIP3   OH258579   3.934   6.206   4.410  0.7436 -0.1094  0.3127
12363TIP3    H158580   3.906   6.290   4.447 -0.7693 -1.1681  1.6347
12363TIP3    H258581   3.959   6.227   4.320 -0.7071  1.5709  0.2746
12364TIP3   OH258582   6.195   1.762   0.534 -0.6890 -0.1658  0.6352
12364TIP3    H158583   6.132   1.726   0.596 -0.4589 -1.2873  0.2300
12364TIP3    H258584   6.272   1.705   0.542 -0.4820 -0.0285 -0.3300
12365TIP3   OH258585   6.171   6.326   5.105 -0.5532 -0.1887  0.3393
12365TIP3    H158586   6.128   6.256   5.154 -1.4568 -0.0550 -0.2477
12365TIP3    H258587   6.106   6.353   5.039  0.0948  0.6267  0.0209
12366TIP3   OH258588   4.134   3.660   3.118 -0.2345  0.0521 -0.1976
12366TIP3    H158589   4.176   3.724   3.060 -2.0158 -0.6095 -2.3122
12366TIP3    H258590   4.193   3.585   3.116 -0.3329 -0.0113 -1.2865
12367TIP3   OH258591   5.276   5.657  16.166 -0.5838 -0.0163 -0.2402
12367TIP3    H158592   5.180   5.654  16.157 -0.9666  1.4717  2.7624
12367TIP3    H258593   5.296   5.586  16.227  0.2041 -0.2869 -0.8217
12368TIP3   OH258594   3.304   2.451   1.512  0.7834 -0.1988 -1.1965
12368TIP3    H158595   3.339   2.534   1.542  0.1804 -0.4237  0.1667
12368TIP3    H258596   3.212   2.469   1.492  0.0224 -1.0496  1.3722
12369TIP3   OH258597   1.404   3.274  12.913  0.1969 -0.2570  0.0345
12369TIP3    H158598   1.480   3.327  12.936  1.5334 -1.5407 -1.3346
12369TIP3    H258599   1.373   3.238  12.996  1.8082 -0.6848  0.4503
12370TIP3   OH258600   4.111   4.386   1.788 -0.0913  0.2756 -1.1742
12370TIP3    H158601   4.139   4.355   1.874 -1.2649 -1.6061 -1.4578
12370TIP3    H258602   4.190   4.380   1.734  0.3118  0.1731 -0.5795
12371TIP3   OH258603   4.831   2.759  17.089 -0.1782  0.4391 -0.5333
12371TIP3    H158604   4.831   2.673  17.132  0.8255  0.0141 -1.3623
12371TIP3    H258605   4.924   2.780  17.077 -0.3969  1.9314  0.2262
12372TIP3   OH258606   2.426   0.507  13.603  0.1016  0.0996  0.2833
12372TIP3    H158607   2.461   0.484  13.517 -0.2581 -1.3742  0.5152
12372TIP3    H258608   2.335   0.478  13.600  0.6130 -1.7295  1.8152
12373TIP3   OH258609   5.160   2.536  11.910  0.1575  0.6901  0.4661
12373TIP3    H158610   5.220   2.607  11.890 -0.4815  0.9527 -0.5150
12373TIP3    H258611   5.074   2.577  11.912 -0.0281  0.2721  1.6367
12374TIP3   OH258612   4.473   6.465  13.328 -0.1221 -0.0548 -0.0418
12374TIP3    H158613   4.379   6.479  13.323 -0.0314  1.1617  1.3198
12374TIP3    H258614   4.487   6.421  13.412  0.5372 -0.0303 -0.1305
12375TIP3   OH258615   1.183   6.323  14.808  0.2953 -0.4351  0.9652
12375TIP3    H158616   1.268   6.334  14.765  0.4344 -1.2699  1.0225
12375TIP3    H258617   1.119   6.336  14.737  0.5340 -2.3561  0.3469
12376TIP3   OH258618   0.934   2.941  12.002 -0.3961  0.1451 -0.4236
12376TIP3    H158619   0.902   3.008  11.942 -1.8697 -1.5024 -1.5278
12376TIP3    H258620   0.972   2.874  11.945 -1.5085 -1.2854  0.4947
12377TIP3   OH258621   5.216   5.541   0.702  0.0481  0.2334  0.4162
12377TIP3    H158622   5.263   5.467   0.665 -0.1726  1.0183 -1.4826
12377TIP3    H258623   5.135   5.547   0.650 -0.9935  0.4205  2.0098
12378TIP3   OH258624   0.277   2.910   4.278  0.6723  0.1741 -0.4535
12378TIP3    H158625   0.304   2.977   4.341  0.8980 -1.5869  1.3830
12378TIP3    H258626   0.190   2.939   4.248  0.2152  0.6619  1.2662
12379TIP3   OH258627   4.029   4.369   6.197  0.2560 -0.2464  0.5151
12379TIP3    H158628   4.112   4.327   6.221  1.6235  0.4837 -2.7462
12379TIP3    H258629   4.033   4.455   6.240  2.4296  0.8288 -1.7050
12380TIP3   OH258630   0.635   3.785   3.865 -0.1883  0.4062 -0.6135
12380TIP3    H158631   0.582   3.753   3.792  0.4670 -0.4661 -0.7061
12380TIP3    H258632   0.724   3.784   3.832 -0.1461  2.3398 -0.6197
12381TIP3   OH258633   5.140   6.496  10.644 -0.2831 -0.4940 -0.8013
12381TIP3    H158634   5.113   6.524  10.557  0.7384 -0.2851 -1.0490
12381TIP3    H258635   5.111   6.567  10.702 -0.6837 -0.4904 -1.0002
12382TIP3   OH258636   0.480   1.984   1.587  0.6154  0.4248 -0.2766
12382TIP3    H158637   0.389   1.959   1.569  0.7614 -0.9278  0.7655
12382TIP3    H258638   0.476   2.031   1.670  1.1945 -2.2161  1.3275
12383TIP3   OH258639   4.672   4.700   0.633  0.1261  0.5340 -0.2892
12383TIP3    H158640   4.738   4.755   0.676 -0.4499  0.8672  0.1753
12383TIP3    H258641   4.723   4.632   0.589  0.7002 -0.2710  1.5500
12384TIP3   OH258642   5.407   6.301  13.715  0.2297 -0.5419  0.0917
12384TIP3    H158643   5.331   6.356  13.736 -0.8402 -1.6311 -0.8159
12384TIP3    H258644   5.482   6.352  13.743 -0.9011  0.1014  2.0427
12385TIP3   OH258645   6.164   6.302  15.375 -0.1721  0.4166  0.6733
12385TIP3    H158646   6.105   6.300  15.300 -0.0575  0.5335  0.5806
12385TIP3    H258647   6.208   6.387  15.370  0.1932  0.2276  0.5958
12386TIP3   OH258648   6.384   1.151  17.108 -0.2258  0.3677  0.1407
12386TIP3    H158649   6.304   1.198  17.088  0.0470  0.2362 -1.3176
12386TIP3    H258650   6.422   1.129  17.023  0.9006 -0.3499  0.7969
12387TIP3   OH258651   6.388   4.696   2.372 -0.2380 -0.1267 -0.1885
12387TIP3    H158652   6.384   4.680   2.277  0.7970  0.1402 -0.2797
12387TIP3    H258653   6.420   4.786   2.379 -0.1065 -0.2244  0.4258
12388TIP3   OH258654   6.746   3.062   3.275  0.1101 -0.3404  0.7342
12388TIP3    H158655   6.811   2.992   3.273  1.4068  0.8448  0.5138
12388TIP3    H258656   6.685   3.036   3.345  0.0205 -2.1470  0.0130
12389TIP3   OH258657   1.584   4.311  14.929  0.0749 -0.1542 -0.2169
12389TIP3    H158658   1.676   4.285  14.939  0.0029 -0.7805 -1.1557
12389TIP3    H258659   1.543   4.236  14.887 -1.0328 -0.1724  0.8598
12390TIP3   OH258660   3.854   3.060   2.518  0.2399 -0.4554  0.1436
12390TIP3    H158661   3.870   3.137   2.463 -0.9490 -1.3121 -1.4208
12390TIP3    H258662   3.772   3.023   2.485 -0.7578 -0.7225  2.8183
12391TIP3   OH258663   3.674   0.769  11.613  0.2447 -0.4230 -0.3280
12391TIP3    H158664   3.677   0.759  11.708  1.3037  1.0375 -0.1975
12391TIP3    H258665   3.595   0.820  11.596 -0.6199 -1.7399 -0.3449
12392TIP3   OH258666   2.639   5.501  12.981  0.1013  0.4968  0.2538
12392TIP3    H158667   2.636   5.431  13.045  1.2352  0.7498  0.5894
12392TIP3    H258668   2.721   5.547  12.998 -0.7229  2.0617  0.2067
12393TIP3   OH258669   4.304   4.709  15.023  0.2956  0.0032 -0.1319
12393TIP3    H158670   4.305   4.801  14.996 -1.4747  0.1199  0.1009
12393TIP3    H258671   4.393   4.678  15.009  0.6353  1.4574 -1.2565
12394TIP3   OH258672   3.922   2.227   6.235 -0.3189 -0.3270  0.1567
12394TIP3    H158673   4.014   2.218   6.260 -0.7206  0.6376  2.0732
12394TIP3    H258674   3.922   2.220   6.139  1.4711 -2.4444  0.2792
12395TIP3   OH258675   2.622   2.535  15.685  0.1266  0.8523 -0.4770
12395TIP3    H158676   2.575   2.614  15.658  1.1503  1.7372  0.2871
12395TIP3    H258677   2.698   2.531  15.627  0.6735  1.0461  0.2284
12396TIP3   OH258678   5.830   3.454   3.314 -0.1856 -0.0865  0.3051
12396TIP3    H158679   5.902   3.430   3.373  0.1907  0.7124  0.1810
12396TIP3    H258680   5.793   3.534   3.353 -2.0839 -1.4226  1.2766
12397TIP3   OH258681   6.634   0.165   1.755  0.5328  0.1527  0.0451
12397TIP3    H158682   6.672   0.223   1.821  0.2275 -0.5293  0.8482
12397TIP3    H258683   6.540   0.183   1.758  0.6986  1.2111 -1.3049
12398TIP3   OH258684   2.078   5.236  13.469  0.6167  0.7917  0.3639
12398TIP3    H158685   2.172   5.232  13.448  0.3891 -0.2896 -0.5292
12398TIP3    H258686   2.048   5.146  13.455 -0.4669  1.0525  1.0564
12399TIP3   OH258687   2.880   4.523   0.822 -0.4190 -0.1467 -0.2593
12399TIP3    H158688   2.786   4.504   0.827 -0.2929 -0.7295 -0.0736
12399TIP3    H258689   2.892   4.564   0.736 -0.8163 -0.2132 -0.3447
12400TIP3   OH258690   5.649   4.672   2.952  0.5821  0.0941  0.0515
12400TIP3    H158691   5.680   4.605   3.012 -1.4061 -0.5986  0.3358
12400TIP3    H258692   5.631   4.748   3.007 -2.1139 -0.8327  0.5184
12401TIP3   OH258693   1.803   0.257   1.268 -0.1007 -0.3346 -0.0618
12401TIP3    H158694   1.809   0.167   1.236 -0.1776 -0.9630  1.6392
12401TIP3    H258695   1.875   0.302   1.225  1.1364 -1.6821  0.5615
12402TIP3   OH258696   4.524   1.722   3.770 -0.1209  0.1317  0.4875
12402TIP3    H158697   4.470   1.650   3.804 -0.7067  0.1812 -0.3395
12402TIP3    H258698   4.573   1.752   3.846 -1.0765 -0.0735  1.2007
12403TIP3   OH258699   6.224   4.670  12.944 -0.7864 -0.2056  0.2793
12403TIP3    H158700   6.253   4.758  12.918 -1.4617 -0.4085 -1.1906
12403TIP3    H258701   6.200   4.679  13.036 -2.1129  1.4829 -0.2010
12404TIP3   OH258702   3.829   4.260   6.351  0.7825  0.3988  0.1298
12404TIP3    H158703   3.918   4.288   6.329  1.1167 -1.0316 -0.3718
12404TIP3    H258704   3.806   4.311   6.428  1.9606  0.9254  0.1414
12405TIP3   OH258705   4.984   4.571  13.263 -0.3913  0.2998  0.0510
12405TIP3    H158706   4.901   4.533  13.234 -0.7216 -0.0579  1.4663
12405TIP3    H258707   4.960   4.634  13.331  0.5357 -0.1690  0.8274
12406TIP3   OH258708   1.833   4.277  13.853  0.2081 -0.3977 -0.2217
12406TIP3    H158709   1.924   4.303  13.842  0.2731 -1.7379 -3.3471
12406TIP3    H258710   1.783   4.356  13.834  0.6869  0.2355  1.1063
12407TIP3   OH258711   4.376   3.170  16.874 -0.2791 -0.4890 -0.1736
12407TIP3    H158712   4.348   3.104  16.811 -0.4866 -1.5143  0.9804
12407TIP3    H258713   4.429   3.122  16.937 -0.8644  0.3408  0.9642
12408TIP3   OH258714   0.045   2.914   3.688 -0.1714  0.3018  0.1959
12408TIP3    H158715  -0.044   2.940   3.714 -0.2503 -0.1638  0.3911
12408TIP3    H258716   0.062   2.834   3.737  0.8863  1.1297  1.2154
12409TIP3   OH258717   5.393   6.814   0.132  0.6269  0.2461 -0.6783
12409TIP3    H158718   5.313   6.778   0.172 -0.7670  2.0112 -1.8176
12409TIP3    H258719   5.388   6.786   0.041  3.1088 -2.5845 -0.0345
12410TIP3   OH258720   0.894   6.208  10.575 -0.3472 -0.2101  0.2503
12410TIP3    H158721   0.870   6.135  10.517 -0.5141 -0.7858  1.0464
12410TIP3    H258722   0.861   6.182  10.661 -0.1961  0.7001  0.5824
12411TIP3   OH258723   2.320   5.557   4.980  0.2935  0.2011 -0.1401
12411TIP3    H158724   2.414   5.571   4.990  0.3409  0.2868 -0.6848
12411TIP3    H258725   2.310   5.521   4.892 -0.1488 -0.1732  0.0594
12412TIP3   OH258726   6.080   3.227  16.741 -0.2379  0.1293 -0.4242
12412TIP3    H158727   6.022   3.185  16.804 -0.7738  0.8059 -0.4579
12412TIP3    H258728   6.129   3.155  16.701 -0.4134 -0.3642  0.2421
12413TIP3   OH258729   1.800   2.695  15.748  0.3858 -0.6029 -0.0175
12413TIP3    H158730   1.762   2.610  15.768  0.3275 -0.3043  1.2024
12413TIP3    H258731   1.814   2.694  15.654  0.1740 -1.8744 -0.0396
12414TIP3   OH258732   4.040   2.014  13.763  0.1783  0.3169 -0.1461
12414TIP3    H158733   4.016   1.936  13.713 -1.4964 -0.6506  2.0681
12414TIP3    H258734   4.017   2.087  13.706 -0.6133 -0.7564 -1.2278
12415TIP3   OH258735   1.159   2.461  16.536 -0.3807 -0.3941  0.0254
12415TIP3    H158736   1.216   2.518  16.484 -0.7917  2.9297  3.0684
12415TIP3    H258737   1.079   2.454  16.484  1.2291 -1.8627 -2.3999
12416TIP3   OH258738   3.341   0.491  15.874 -0.2142  0.1700  0.1144
12416TIP3    H158739   3.423   0.534  15.898 -1.3603  3.2272 -1.3259
12416TIP3    H258740   3.311   0.450  15.956  1.8330  0.4989  1.0636
12417TIP3   OH258741   0.045   0.252  14.698 -0.1439  0.0634  0.1425
12417TIP3    H158742   0.098   0.228  14.774 -1.8918  0.5705  1.5857
12417TIP3    H258743   0.024   0.168  14.656 -1.3568 -0.5085  1.7859
12418TIP3   OH258744   1.153   1.185   2.809  0.2701 -0.1150  0.3270
12418TIP3    H158745   1.174   1.095   2.785 -0.8525 -0.1106 -0.7512
12418TIP3    H258746   1.101   1.178   2.889  2.6429 -0.2351  1.8944
12419TIP3   OH258747   1.154   0.989   6.000  0.1855  0.2226 -0.0032
12419TIP3    H158748   1.214   0.932   6.048 -0.9048 -0.0901  1.0035
12419TIP3    H258749   1.084   1.008   6.062 -1.9765 -1.3267 -1.8704
12420TIP3   OH258750   1.116   5.230   2.474  0.0018 -0.4887 -0.5829
12420TIP3    H158751   1.083   5.228   2.564  1.9785  0.0041  0.1767
12420TIP3    H258752   1.080   5.310   2.437 -2.0265 -1.4328 -0.7282
12421TIP3   OH258753   5.580   3.210   1.667  0.5170  0.0138  0.2242
12421TIP3    H158754   5.577   3.304   1.684 -0.1664 -0.0765  0.6402
12421TIP3    H258755   5.672   3.190   1.653  0.5442  0.9565 -1.0336
12422TIP3   OH258756   5.818   2.064  13.150 -0.0966  0.7621 -0.2795
12422TIP3    H158757   5.749   2.130  13.158 -0.1232  0.6174  0.8142
12422TIP3    H258758   5.772   1.986  13.119 -0.7483  0.1750  2.0749
12423TIP3   OH258759   1.980   2.074  11.480  0.3190  0.0830  0.3858
12423TIP3    H158760   2.074   2.090  11.476  0.4026 -0.7693 -1.3025
12423TIP3    H258761   1.942   2.140  11.421  0.0700 -1.1467 -0.8520
12424TIP3   OH258762   5.918   2.534  15.162 -0.3211 -0.3536 -0.3414
12424TIP3    H158763   5.835   2.540  15.209  0.3719 -1.6959  1.0558
12424TIP3    H258764   5.984   2.562  15.225  0.3409  0.4953 -1.3811
12425TIP3   OH258765   2.264   5.636   0.782  0.0619 -0.4431  0.1816
12425TIP3    H158766   2.210   5.715   0.779 -0.2307 -0.6027  1.0804
12425TIP3    H258767   2.292   5.622   0.691  2.2083  2.1223  0.4183
12426TIP3   OH258768   2.088   6.239  13.446 -0.7208 -0.1472 -0.3032
12426TIP3    H158769   2.028   6.302  13.488  2.0574  1.5017  1.3155
12426TIP3    H258770   2.097   6.169  13.510  1.4842  1.1195  0.8174
12427TIP3   OH258771   6.410   3.394   4.039 -0.4061  0.2921 -0.4579
12427TIP3    H158772   6.427   3.404   3.945 -1.2817 -1.2901 -0.8119
12427TIP3    H258773   6.406   3.483   4.072 -1.0860  0.9111 -2.1215
12428TIP3   OH258774   0.159   1.925  16.712  0.2433 -0.0015 -0.3318
12428TIP3    H158775   0.118   1.946  16.629  0.4470 -1.3655 -0.7905
12428TIP3    H258776   0.156   2.006  16.762  0.0437  0.8010 -1.6385
12429TIP3   OH258777   0.172   0.695  13.936 -0.1540  0.0657 -0.1317
12429TIP3    H158778   0.171   0.769  13.996 -3.8628 -0.4244  0.5425
12429TIP3    H258779   0.188   0.733  13.850 -0.8182  1.5040  0.3746
12430TIP3   OH258780   0.427   0.487   4.906  0.3275  0.1758 -0.1192
12430TIP3    H158781   0.414   0.481   5.001  0.7788 -2.2737 -0.1908
12430TIP3    H258782   0.345   0.457   4.868  0.7565 -0.5229 -0.5042
12431TIP3   OH258783   0.543   6.281   4.218 -0.1082 -0.3489 -0.6937
12431TIP3    H158784   0.573   6.224   4.147 -1.1680 -0.0796 -1.3816
12431TIP3    H258785   0.545   6.369   4.181  0.4600 -0.0672  0.0003
12432TIP3   OH258786   6.555   2.014  12.883 -0.6373 -0.0886  0.2347
12432TIP3    H158787   6.525   1.936  12.930  0.5475  0.1608  1.4671
12432TIP3    H258788   6.509   2.012  12.800 -1.8079 -1.2595  0.8945
12433TIP3   OH258789   3.680   1.151  12.211  0.1745 -0.8029  0.1830
12433TIP3    H158790   3.600   1.149  12.262  0.2748  1.0295  0.4376
12433TIP3    H258791   3.704   1.058  12.201 -1.7559 -1.3529  0.3930
12434TIP3   OH258792   1.310   1.311  15.130 -0.0013 -0.2795 -0.3799
12434TIP3    H158793   1.391   1.356  15.151 -0.3022 -0.1107  0.4388
12434TIP3    H258794   1.255   1.323  15.207 -1.9249  2.1539 -2.0567
12435TIP3   OH258795   1.817   6.185  15.691  0.0094 -0.0980  0.1416
12435TIP3    H158796   1.842   6.239  15.616  2.2099  1.3918  1.9039
12435TIP3    H258797   1.872   6.107  15.684  0.3053  0.0982  0.2684
12436TIP3   OH258798   0.273   3.621  13.066  0.5872  0.1519  0.3352
12436TIP3    H158799   0.340   3.686  13.045 -0.5472  1.0349 -0.6562
12436TIP3    H258800   0.217   3.619  12.989  0.8540 -2.3504  0.1720
12437TIP3   OH258801   3.703   5.649  13.579 -0.4735  0.3099 -0.0539
12437TIP3    H158802   3.709   5.648  13.674  0.0431 -2.1420 -0.0794
12437TIP3    H258803   3.769   5.586  13.550 -0.4645  1.2051 -2.0441
12438TIP3   OH258804   0.081   5.660   2.577  0.2029 -0.0166  0.0331
12438TIP3    H158805   0.123   5.744   2.558 -0.0690  1.0951  3.9308
12438TIP3    H258806  -0.001   5.663   2.528  0.7861  1.4252 -0.8871
12439TIP3   OH258807   0.137   3.103   5.409 -0.0270  0.1396  0.0748
12439TIP3    H158808   0.193   3.131   5.482  0.9783  0.8603 -0.9656
12439TIP3    H258809   0.083   3.033   5.446  2.6307 -1.6382  0.6653
12440TIP3   OH258810   4.300   2.921  17.125  0.4966 -0.4924 -0.0378
12440TIP3    H158811   4.393   2.928  17.102  0.7371 -1.4568  0.6033
12440TIP3    H258812   4.293   2.838  17.172 -0.3472  0.4062  1.4885
12441TIP3   OH258813   0.694   2.041  13.356  0.4835 -0.5933 -0.0011
12441TIP3    H158814   0.626   2.000  13.409  0.5690  0.9048  1.2945
12441TIP3    H258815   0.775   1.995  13.380  0.1874 -1.3615 -0.4402
12442TIP3   OH258816   0.525   2.539   6.288  0.2434 -0.1303  0.1780
12442TIP3    H158817   0.458   2.596   6.326 -1.8567  0.0927 -3.5928
12442TIP3    H258818   0.553   2.482   6.360 -2.8187  0.8926  2.2410
12443TIP3   OH258819   1.744   6.518  12.959  0.0585 -0.2361  0.5457
12443TIP3    H158820   1.807   6.446  12.968  0.2569  0.0582  1.5518
12443TIP3    H258821   1.790   6.585  12.909  0.6362  0.0884  1.5125
12444TIP3   OH258822   2.841   2.025  13.734 -0.1222  0.4022 -0.0861
12444TIP3    H158823   2.883   1.975  13.663 -0.1078  0.4664 -0.1224
12444TIP3    H258824   2.914   2.070  13.777  0.0788 -0.9211  1.0016
12445TIP3   OH258825   0.090   3.892  12.397 -0.2944 -0.4106  0.0831
12445TIP3    H158826   0.022   3.881  12.464 -1.4186  0.0251 -0.9782
12445TIP3    H258827   0.056   3.845  12.321 -0.4721  1.7757 -1.2132
12446TIP3   OH258828   6.097   1.441   2.626 -0.3471  0.0702 -0.6650
12446TIP3    H158829   6.102   1.537   2.622 -2.0812  0.1841 -0.3098
12446TIP3    H258830   6.178   1.412   2.584 -0.2860  1.6748 -1.7089
12447TIP3   OH258831   6.016   4.404  15.658  0.5023  0.7885 -0.1059
12447TIP3    H158832   5.991   4.401  15.751  0.2809  2.7755 -0.0900
12447TIP3    H258833   5.970   4.330  15.619 -2.3558  2.0687  0.6845
12448TIP3   OH258834   2.966   4.817  16.008  0.1547 -0.4033 -0.5914
12448TIP3    H158835   3.011   4.858  16.082 -0.3107 -0.3426 -0.3417
12448TIP3    H258836   2.923   4.890  15.963 -0.2039 -0.5416 -0.4753
12449TIP3   OH258837   6.043   2.764   0.793  0.6895  0.0593 -0.1020
12449TIP3    H158838   6.093   2.730   0.719  1.4770  1.5242 -0.2532
12449TIP3    H258839   6.024   2.855   0.770  0.0431  0.2235  1.0318
12450TIP3   OH258840   5.810   3.572   3.656 -0.0212 -0.2419 -0.2796
12450TIP3    H158841   5.794   3.657   3.616 -0.1389 -0.5661 -0.9253
12450TIP3    H258842   5.741   3.516   3.620 -0.4480 -0.4090  0.7680
12451TIP3   OH258843   2.885   6.191   2.119 -0.0192  0.3660  0.4114
12451TIP3    H158844   2.921   6.148   2.041  0.5896  2.2607 -0.3709
12451TIP3    H258845   2.803   6.144   2.136  1.4180 -2.1785  0.5724
12452TIP3   OH258846   1.814   4.395  16.544 -0.0466 -0.6576  0.1073
12452TIP3    H158847   1.873   4.427  16.612  0.6997 -0.4326 -0.6379
12452TIP3    H258848   1.807   4.301  16.561 -0.1697 -0.5393  0.7223
12453TIP3   OH258849   4.106   2.428  13.944 -0.2845  0.0015  0.3454
12453TIP3    H158850   4.172   2.386  13.999 -1.8370 -0.3556  1.9917
12453TIP3    H258851   4.130   2.521  13.945  0.4390 -0.1853  0.5610
12454TIP3   OH258852   0.498   4.453   5.729  0.1036 -0.0154  0.0159
12454TIP3    H158853   0.585   4.452   5.688 -1.4359 -0.7884 -3.4039
12454TIP3    H258854   0.488   4.365   5.766  0.0593 -0.5596 -1.2573
12455TIP3   OH258855   5.188   0.571   2.055  0.4515  0.7696 -0.3818
12455TIP3    H158856   5.115   0.591   2.113  1.9634  1.3838  1.3754
12455TIP3    H258857   5.237   0.503   2.102  2.5203  2.3218 -0.2090
12456TIP3   OH258858   3.310   1.568   6.160 -0.0683 -0.5032  0.5606
12456TIP3    H158859   3.348   1.629   6.223 -0.1595 -1.3592  1.4503
12456TIP3    H258860   3.216   1.574   6.175 -0.0095 -1.6888  1.4149
12457TIP3   OH258861   2.990   2.781   0.743 -0.0715 -0.0759 -0.1897
12457TIP3    H158862   3.007   2.842   0.814  1.4333 -0.3932 -0.2571
12457TIP3    H258863   2.900   2.800   0.716 -0.3087  0.7392  1.1049
12458TIP3   OH258864   2.781   0.014   1.506  0.8352 -0.5884  0.3630
12458TIP3    H158865   2.726   0.024   1.584  0.0393  0.0320 -0.2722
12458TIP3    H258866   2.765  -0.076   1.478 -0.6510 -0.1074 -0.3974
12459TIP3   OH258867   1.546   0.903   2.485  0.9823 -0.5888  0.2128
12459TIP3    H158868   1.468   0.873   2.438 -0.6609  0.5980  2.1355
12459TIP3    H258869   1.567   0.987   2.445  0.0173  0.0775  1.0912
12460TIP3   OH258870   5.139   2.140   4.133  0.4672  0.4971  0.9267
12460TIP3    H158871   5.053   2.181   4.143  0.3313  0.3999  0.1658
12460TIP3    H258872   5.154   2.097   4.218  0.7436  2.3321  1.8120
12461TIP3   OH258873   4.801   0.050  12.908 -0.4458 -0.2441 -0.1624
12461TIP3    H158874   4.860  -0.010  12.953 -1.1576 -0.5822  0.3247
12461TIP3    H258875   4.859   0.118  12.874 -0.0177  0.8327  2.5474
12462TIP3   OH258876   6.337   5.301  11.087 -0.6274 -0.1290  0.2803
12462TIP3    H158877   6.416   5.328  11.133 -1.1065  0.1731  0.9257
12462TIP3    H258878   6.317   5.374  11.028 -0.2281 -0.3546 -0.1345
12463TIP3   OH258879   1.085   0.974  14.657 -0.1279  0.0068 -0.0530
12463TIP3    H158880   1.172   0.956  14.693  0.1456  1.0500 -0.1904
12463TIP3    H258881   1.025   0.938  14.723  0.3994 -0.3059  0.2624
12464TIP3   OH258882   1.375   1.695  12.013  1.0224  0.0078  0.1848
12464TIP3    H158883   1.307   1.629  12.002  1.2731 -0.0538 -1.1165
12464TIP3    H258884   1.327   1.775  12.037  0.5879 -0.3024  0.3491
12465TIP3   OH258885   2.848   4.336  15.685  0.4183  0.0910  0.1280
12465TIP3    H158886   2.920   4.326  15.623  1.8759  0.8277  1.6707
12465TIP3    H258887   2.854   4.260  15.742 -0.8159 -0.4951 -0.4931
12466TIP3   OH258888   0.898   4.507  16.771 -0.7081  0.0932  0.2062
12466TIP3    H158889   0.831   4.547  16.714 -0.7693  1.4357  1.1979
12466TIP3    H258890   0.946   4.581  16.807  0.9094 -0.8439  0.0251
12467TIP3   OH258891   1.622   1.229   3.869  0.1536 -0.3509 -0.0714
12467TIP3    H158892   1.575   1.154   3.905 -1.8875  0.6688 -0.5158
12467TIP3    H258893   1.568   1.259   3.796  0.8660  1.5954  0.1465
12468TIP3   OH258894   0.128   0.997   5.766 -0.3090 -0.0679  0.0911
12468TIP3    H158895   0.114   0.927   5.829 -2.0552  1.1694  1.1143
12468TIP3    H258896   0.136   1.076   5.818  0.3346  0.6949 -1.1280
12469TIP3   OH258897   5.534   0.771  16.321 -0.1720  0.2799  0.7680
12469TIP3    H158898   5.504   0.857  16.351  0.0249  1.4994 -2.3289
12469TIP3    H258899   5.629   0.780  16.316 -0.3139  0.7160 -1.8442
12470TIP3   OH258900   3.605   1.015   5.119 -0.0425 -0.8934 -0.1513
12470TIP3    H158901   3.609   1.053   5.207  1.4551  0.6360 -0.8489
12470TIP3    H258902   3.517   0.978   5.112  0.0726 -1.7092  2.2533
12471TIP3   OH258903   6.570   3.744   0.908 -0.3106 -0.0250 -0.0300
12471TIP3    H158904   6.562   3.663   0.959  1.0356  1.0451  1.9578
12471TIP3    H258905   6.528   3.811   0.962  1.5349  1.2248 -0.0825
12472TIP3   OH258906   6.166   0.752  13.870 -0.3712  0.2955 -0.2674
12472TIP3    H158907   6.234   0.806  13.829 -0.3639  1.0953  0.8042
12472TIP3    H258908   6.094   0.812  13.888 -1.9205 -0.7776 -2.5511
12473TIP3   OH258909   6.693   6.702   6.500  0.1742 -0.4120 -0.6454
12473TIP3    H158910   6.720   6.754   6.425  2.2471 -3.3662 -2.0460
12473TIP3    H258911   6.760   6.719   6.567 -0.1755  0.1354 -0.4326
12474TIP3   OH258912   0.153   3.573  14.820  0.3356 -0.4990 -0.8771
12474TIP3    H158913   0.120   3.524  14.895 -0.8884  0.3502 -0.8445
12474TIP3    H258914   0.155   3.510  14.748  0.5676 -1.0601 -0.3813
12475TIP3   OH258915   0.332   2.034  12.277  0.4651  0.3330  0.4995
12475TIP3    H158916   0.390   2.095  12.323  0.4618  1.7080 -1.2553
12475TIP3    H258917   0.359   2.040  12.185 -1.1430 -0.4914 -0.0496
12476TIP3   OH258918   4.716   6.401  15.398  0.6799  0.1213 -0.0111
12476TIP3    H158919   4.681   6.486  15.372  0.2205 -0.8487 -2.6877
12476TIP3    H258920   4.711   6.347  15.319 -1.8249 -3.3285  2.3402
12477TIP3   OH258921   2.570   1.306   5.617 -0.2731  0.4110  0.7934
12477TIP3    H158922   2.626   1.240   5.659  1.6522  1.4675 -0.0232
12477TIP3    H258923   2.519   1.257   5.553  0.4907 -0.4311  0.8236
12478TIP3   OH258924   2.586   3.826   4.560 -0.1093 -0.5886 -0.1544
12478TIP3    H158925   2.587   3.858   4.650 -1.4179  0.1383 -0.3760
12478TIP3    H258926   2.663   3.770   4.553  0.5853  0.1906  1.1078
12479TIP3   OH258927   6.570   4.261  13.339 -0.4786  0.2046  0.2528
12479TIP3    H158928   6.558   4.174  13.302  0.2941  0.1344  0.1574
12479TIP3    H258929   6.527   4.320  13.276 -0.3469 -0.0360 -0.0633
12480TIP3   OH258930   4.781   2.042  16.696 -0.4966 -0.7038  0.3486
12480TIP3    H158931   4.717   1.970  16.692  0.1143 -1.1972 -0.5743
12480TIP3    H258932   4.758   2.099  16.623  0.5043 -1.2110 -0.3734
12481TIP3   OH258933   3.980   3.334  13.663 -0.0077 -0.6804  0.2505
12481TIP3    H158934   3.959   3.303  13.751 -0.2825  0.9981  0.7951
12481TIP3    H258935   3.942   3.422  13.659 -0.0054 -0.7464 -1.5502
12482TIP3   OH258936   5.811   5.283  14.750 -0.0457 -0.1073  0.7237
12482TIP3    H158937   5.871   5.352  14.777  1.6084 -0.8549 -0.9451
12482TIP3    H258938   5.791   5.305  14.658 -1.3955 -0.5238  0.9092
12483TIP3   OH258939   2.935   5.735  16.605 -1.0569  0.1112 -0.4850
12483TIP3    H158940   2.998   5.784  16.658 -0.6020 -1.7139  0.7416
12483TIP3    H258941   2.850   5.766  16.635 -0.7900 -0.4218  0.8627
12484TIP3   OH258942   0.120   5.177  13.691 -0.0692 -0.1004  0.0820
12484TIP3    H158943   0.072   5.138  13.617 -1.6245  0.3183  0.8483
12484TIP3    H258944   0.111   5.272  13.678  0.8979 -0.0086  0.0232
12485TIP3   OH258945   2.131   1.285  13.131 -0.1962 -0.1231  0.6280
12485TIP3    H158946   2.094   1.209  13.087  1.6044 -1.0246  0.6422
12485TIP3    H258947   2.206   1.310  13.077 -0.2728  1.1271  1.0829
12486TIP3   OH258948   0.296   5.937  16.559  0.3381  1.0977 -0.2874
12486TIP3    H158949   0.375   5.883  16.562 -0.1530  0.4297  1.0843
12486TIP3    H258950   0.251   5.910  16.479  1.2036  1.0697 -0.7683
12487TIP3   OH258951   0.320   1.611   3.735 -0.3526 -0.2826  0.4711
12487TIP3    H158952   0.307   1.521   3.765 -0.7180 -0.3193  0.2034
12487TIP3    H258953   0.260   1.621   3.661 -0.1076  0.0920  0.3201
12488TIP3   OH258954   1.254   2.196   0.647 -0.0797  0.5132 -0.3593
12488TIP3    H158955   1.172   2.246   0.647  0.0510  0.7450  0.6708
12488TIP3    H258956   1.228   2.109   0.678  0.2342  0.9065  1.0589
12489TIP3   OH258957   1.138   3.248   2.298  0.1203 -0.0325  0.1507
12489TIP3    H158958   1.067   3.272   2.239  0.3824  0.9020  0.1972
12489TIP3    H258959   1.119   3.296   2.379  0.7356  0.1388  0.1976
12490TIP3   OH258960   4.634   6.197   5.549  0.5017 -1.1508  0.0792
12490TIP3    H158961   4.666   6.107   5.553 -1.2074 -1.7684  0.4716
12490TIP3    H258962   4.579   6.206   5.627 -0.4655 -0.2304 -0.6998
12491TIP3   OH258963   1.861   0.478  16.692  0.0203 -0.0384 -0.0130
12491TIP3    H158964   1.811   0.423  16.753  0.1099  1.9662  1.9517
12491TIP3    H258965   1.889   0.418  16.623 -1.5655 -2.0393  1.0178
12492TIP3   OH258966   5.086   4.621   1.237 -0.4754 -0.1652  0.1565
12492TIP3    H158967   4.992   4.635   1.250 -0.3979  1.4538 -0.9507
12492TIP3    H258968   5.127   4.665   1.312 -0.5568 -0.4219  0.3558
12493TIP3   OH258969   2.924   5.283  16.003 -0.1102  0.2152 -0.1514
12493TIP3    H158970   2.946   5.315  16.091  0.1934 -1.3415  0.3607
12493TIP3    H258971   2.982   5.208  15.990 -1.0792 -0.3744 -1.1428
12494TIP3   OH258972   2.703   5.113  12.404  0.0462 -0.2541  0.3708
12494TIP3    H158973   2.731   5.069  12.485 -0.2089  0.6044  0.9272
12494TIP3    H258974   2.783   5.127  12.355  0.1166 -1.4835  0.1157
12495TIP3   OH258975   2.274   0.881   3.599 -0.2651 -0.7192 -0.2417
12495TIP3    H158976   2.272   0.929   3.516 -0.7843  0.8271  0.6380
12495TIP3    H258977   2.274   0.789   3.574 -1.7370 -0.2813 -1.9414
12496TIP3   OH258978   3.800   2.152  16.838  0.6988  0.2792  0.6121
12496TIP3    H158979   3.802   2.238  16.796  0.8262 -0.4906 -1.0139
12496TIP3    H258980   3.709   2.140  16.864  0.4414  0.3910 -0.2372
12497TIP3   OH258981   4.961   2.600   6.233  0.2790  0.1912 -0.5508
12497TIP3    H158982   4.933   2.682   6.275  2.8070 -0.1310  1.9134
12497TIP3    H258983   4.885   2.542   6.241  0.8697 -0.0738  4.3250
12498TIP3   OH258984   1.028   5.100  14.133  0.0626  0.1975 -0.2934
12498TIP3    H158985   1.038   5.140  14.047 -0.5832  0.1372 -0.4002
12498TIP3    H258986   1.110   5.053  14.147  0.7043  1.2821 -0.3064
12499TIP3   OH258987   5.061   1.482   6.227 -0.7539  0.3662  0.0684
12499TIP3    H158988   5.100   1.394   6.227  0.9883  1.1065  0.0234
12499TIP3    H258989   5.033   1.495   6.318 -0.2846  0.0563  0.2648
12500TIP3   OH258990   1.481   3.420  13.507  0.0859 -0.2620 -0.1675
12500TIP3    H158991   1.427   3.341  13.502  0.9375 -0.7792 -1.1570
12500TIP3    H258992   1.553   3.397  13.565 -0.1381  0.0750  0.2501
12501TIP3   OH258993   4.223   4.153  13.628 -0.0318  0.4192 -0.3648
12501TIP3    H158994   4.182   4.197  13.702 -0.4912  2.1073 -1.5881
12501TIP3    H258995   4.172   4.182  13.552 -0.3303 -2.1967 -1.2276
12502TIP3   OH258996   6.140   2.953  15.264  0.0070 -0.4784 -0.1536
12502TIP3    H158997   6.232   2.964  15.240 -0.0924  0.6584 -0.0350
12502TIP3    H258998   6.091   2.985  15.188 -0.2919 -0.2408  0.1370
12503TIP3   OH258999   2.725   3.468   4.803  0.0544 -0.1717  0.3153
12503TIP3    H159000   2.644   3.519   4.791  1.0373  1.3214 -0.1987
12503TIP3    H259001   2.724   3.404   4.731 -0.3678  0.2610 -0.0717
12504TIP3   OH259002   1.952   2.996   2.008  0.4095 -0.9505 -0.2128
12504TIP3    H159003   1.872   2.947   1.991 -0.2526  0.0305 -0.0084
12504TIP3    H259004   2.020   2.949   1.961 -0.4469 -1.3123 -1.1131
12505TIP3   OH259005   4.242   4.411  15.115 -0.4010  0.1475 -0.1637
12505TIP3    H159006   4.306   4.476  15.085  1.2643 -1.4073 -0.1045
12505TIP3    H259007   4.293   4.351  15.170 -1.9366 -1.0793 -0.0410
12506TIP3   OH259008   4.395   1.835   0.860  0.0135  0.1119 -0.1099
12506TIP3    H159009   4.374   1.800   0.947  0.2640 -0.1463 -0.1527
12506TIP3    H259010   4.310   1.859   0.823  0.0295  1.7530  0.8437
12507TIP3   OH259011   0.676   3.450  11.845 -0.4661  0.0223  0.3213
12507TIP3    H159012   0.651   3.382  11.907 -0.6779  0.6526  0.9438
12507TIP3    H259013   0.595   3.497  11.826 -0.0448  1.1338  1.1881
12508TIP3   OH259014   0.958   0.914  12.778  0.6297  0.4153 -0.0861
12508TIP3    H159015   0.918   0.827  12.767 -2.0183  1.2597  2.3448
12508TIP3    H259016   0.982   0.940  12.689 -1.1777 -1.5879 -1.2269
12509TIP3   OH259017   5.064   4.292  16.541 -0.2123 -0.1246 -0.2634
12509TIP3    H159018   5.121   4.270  16.468 -0.7384  1.9345 -1.3214
12509TIP3    H259019   5.123   4.314  16.613  0.3010 -0.3911 -0.6036
12510TIP3   OH259020   5.708   3.064   3.312 -0.3790 -0.2460 -0.1847
12510TIP3    H159021   5.623   3.104   3.329 -0.7588 -1.1135  0.0206
12510TIP3    H259022   5.686   2.981   3.270  0.4020 -0.0594 -0.9621
12511TIP3   OH259023   4.703   6.138  13.646  0.4376 -0.2916  0.2474
12511TIP3    H159024   4.627   6.169  13.695 -0.1862 -0.6570 -0.4843
12511TIP3    H259025   4.711   6.045  13.671  0.7350 -0.2183  0.4316
12512TIP3   OH259026   3.315   2.639   3.411 -0.4226 -0.5731 -0.0022
12512TIP3    H159027   3.316   2.726   3.371 -0.2964 -0.0058  1.2191
12512TIP3    H259028   3.386   2.591   3.367 -1.0169 -0.3213 -1.2378
12513TIP3   OH259029   2.756   1.778   6.257  0.2028  0.0438  0.0229
12513TIP3    H159030   2.753   1.756   6.350 -0.9692 -1.7279 -0.3990
12513TIP3    H259031   2.718   1.701   6.213  4.8410 -1.1484 -2.2761
12514TIP3   OH259032   1.953   3.810   5.623 -0.5384  0.2772  0.2565
12514TIP3    H159033   1.957   3.716   5.604  1.2275  0.4825 -0.4570
12514TIP3    H259034   1.964   3.815   5.718  0.6443 -0.1666  0.1477
12515TIP3   OH259035   2.347   4.841  11.930  0.3054 -0.1164 -0.4052
12515TIP3    H159036   2.377   4.811  11.844 -1.1239 -1.6031 -0.3914
12515TIP3    H259037   2.262   4.799  11.943  0.9833 -0.7715  2.2174
12516TIP3   OH259038   5.702   1.147  16.153 -0.2143  0.4573 -1.0370
12516TIP3    H159039   5.767   1.199  16.201 -1.4621  0.0558  1.1390
12516TIP3    H259040   5.626   1.205  16.146 -1.2027 -0.6348  0.3881
12517TIP3   OH259041   2.309   2.293   0.469  0.2425  0.0350 -0.4160
12517TIP3    H159042   2.395   2.277   0.510 -0.0852  0.3418  0.3992
12517TIP3    H259043   2.300   2.222   0.406  0.6017 -0.6576  0.3015
12518TIP3   OH259044   4.310   6.678   0.448 -0.1343  0.2714 -0.2049
12518TIP3    H159045   4.299   6.657   0.355 -0.9507  0.1415 -0.0851
12518TIP3    H259046   4.260   6.610   0.494 -1.2994  1.4083  0.2525
12519TIP3   OH259047   3.513   6.591   3.949 -0.0032 -0.3682  0.6717
12519TIP3    H159048   3.484   6.501   3.961  0.6100 -0.5651  0.7234
12519TIP3    H259049   3.552   6.615   4.034  0.8109 -0.4256  0.3203
12520TIP3   OH259050   5.282   0.818   5.234 -0.4070 -0.3191  0.2106
12520TIP3    H159051   5.224   0.792   5.306  0.2726  0.7430  1.1477
12520TIP3    H259052   5.368   0.829   5.275 -0.1588  0.9926 -0.6279
12521TIP3   OH259053   6.239   1.309  11.792  0.1029 -0.3745 -0.1368
12521TIP3    H159054   6.273   1.239  11.737  1.9265  0.9308 -0.7362
12521TIP3    H259055   6.315   1.341  11.841 -0.5491  1.6222 -0.3620
12522TIP3   OH259056   2.014   6.645   1.826  0.3072  0.2109 -0.0011
12522TIP3    H159057   2.072   6.632   1.901  1.3435  0.2301 -0.7852
12522TIP3    H259058   2.002   6.557   1.789  0.3669  0.3003 -0.2334
12523TIP3   OH259059   4.550   6.379  13.583  0.1240  0.7386 -0.6500
12523TIP3    H159060   4.522   6.408  13.670 -2.0402  0.4375 -1.2098
12523TIP3    H259061   4.645   6.381  13.586  0.0495  2.6062  1.0942
12524TIP3   OH259062   5.067   4.023  16.496 -0.2978  0.4784  0.0629
12524TIP3    H159063   4.988   3.989  16.537 -1.0686 -0.0520 -1.8046
12524TIP3    H259064   5.042   4.111  16.466  0.2431  0.8478  0.6904
12525TIP3   OH259065   4.155   3.645   3.806 -0.1338  0.0363  0.3867
12525TIP3    H159066   4.239   3.641   3.850 -0.0181  2.5221  0.4076
12525TIP3    H259067   4.175   3.625   3.714  0.6608  1.6599  0.1884
12526TIP3   OH259068   5.201   2.308  11.479 -0.2029  0.2662 -0.1951
12526TIP3    H159069   5.269   2.258  11.526 -1.0929  0.2434  1.0842
12526TIP3    H259070   5.179   2.252  11.404  1.7737  0.6498 -1.1151
12527TIP3   OH259071   3.031   6.110  16.813  0.6421 -0.0890  0.0198
12527TIP3    H159072   3.036   6.171  16.739 -1.6170  1.3392  0.9632
12527TIP3    H259073   3.119   6.073  16.820  1.2352  0.7025 -2.5604
12528TIP3   OH259074   5.072   6.737   6.383 -0.5899  0.4774 -0.2657
12528TIP3    H159075   5.137   6.719   6.315  0.4105 -2.7335  1.4799
12528TIP3    H259076   4.988   6.732   6.337  0.0298 -2.3548 -1.1740
12529TIP3   OH259077   3.678   2.393  15.861 -0.7812  0.2095 -0.5064
12529TIP3    H159078   3.601   2.408  15.916 -0.5603 -3.7837  1.1016
12529TIP3    H259079   3.730   2.473  15.869 -1.8855  0.6435  3.3017
12530TIP3   OH259080   3.725   3.857   5.593  0.1379  0.7875  0.2904
12530TIP3    H159081   3.671   3.922   5.549  1.6544  0.5736 -1.9470
12530TIP3    H259082   3.757   3.801   5.523  1.2156 -0.6254  1.8714
12531TIP3   OH259083   1.228   4.929   5.114 -0.1720 -0.5832  0.3241
12531TIP3    H159084   1.282   4.899   5.188  0.0491 -1.6966 -0.2794
12531TIP3    H259085   1.249   4.869   5.043 -1.3472 -0.3082 -0.2692
12532TIP3   OH259086   0.814   3.620  13.551 -0.5382  0.3078 -0.5129
12532TIP3    H159087   0.757   3.576  13.614 -1.0243  0.3018 -0.9568
12532TIP3    H259088   0.901   3.617  13.591 -1.5534  4.1465  2.2173
12533TIP3   OH259089   5.523   6.124   0.056  0.1538  0.5365 -0.5969
12533TIP3    H159090   5.440   6.120   0.008  0.8248  0.2468 -1.7531
12533TIP3    H259091   5.573   6.192   0.011  0.5321  0.7410  0.1308
12534TIP3   OH259092   0.386   3.748  12.338  0.2853 -0.2237 -0.2525
12534TIP3    H159093   0.327   3.755  12.263 -1.4103 -2.1321  0.8692
12534TIP3    H259094   0.376   3.831  12.385  0.6249  0.5805 -1.5797
12535TIP3   OH259095   2.943   4.822  15.566 -0.6399  0.1609 -0.6102
12535TIP3    H159096   2.933   4.731  15.536 -0.0987  0.2530 -1.0740
12535TIP3    H259097   3.019   4.819  15.625 -1.1339  0.1586  0.0376
12536TIP3   OH259098   2.248   5.113   1.035  0.0488  0.0510  0.2000
12536TIP3    H159099   2.329   5.164   1.046 -0.9248  1.3317  1.5502
12536TIP3    H259100   2.279   5.024   1.021  1.7361  0.7090 -0.4830
12537TIP3   OH259101   1.381   5.488   0.438 -0.4098 -0.3561 -0.5312
12537TIP3    H159102   1.300   5.466   0.392 -0.1808 -0.9371 -0.6633
12537TIP3    H259103   1.361   5.474   0.531 -0.2500 -1.2050 -0.6155
12538TIP3   OH259104   4.879   3.426   4.799 -0.3588 -0.5127  0.4785
12538TIP3    H159105   4.867   3.353   4.859 -1.6568 -0.0231  0.8199
12538TIP3    H259106   4.842   3.395   4.716  0.8195 -0.9389  0.1067
12539TIP3   OH259107   0.436   5.338  12.150  0.0315  0.3066  0.2082
12539TIP3    H159108   0.523   5.308  12.125 -0.5479  0.9898 -2.9186
12539TIP3    H259109   0.447   5.432  12.167  0.0699  0.2064  0.7470
12540TIP3   OH259110   0.449   3.078   2.769 -0.0955  0.0153 -0.1027
12540TIP3    H159111   0.425   3.016   2.838  2.2539 -1.0083 -0.1717
12540TIP3    H259112   0.382   3.147   2.774 -1.6414 -1.5375  1.2356
12541TIP3   OH259113   0.050   1.772   2.833 -0.1673  0.0556 -0.0410
12541TIP3    H159114  -0.007   1.712   2.882 -0.5305 -0.6606 -1.3186
12541TIP3    H259115   0.133   1.770   2.880 -1.0686  0.8307  1.6390
12542TIP3   OH259116   2.593   0.640  15.121 -0.2671 -0.6486  0.3918
12542TIP3    H159117   2.574   0.584  15.046 -2.0781 -0.2263  0.5057
12542TIP3    H259118   2.514   0.635  15.175  1.0467 -0.9978  2.2999
12543TIP3   OH259119   1.993   5.452   0.385 -0.0969 -0.4791  0.1548
12543TIP3    H159120   1.914   5.468   0.438 -0.3765  0.5658 -0.5507
12543TIP3    H259121   2.064   5.444   0.449 -0.2107  2.0957  0.6543
12544TIP3   OH259122   2.963   5.067   5.401  0.8801 -0.1515  0.0644
12544TIP3    H159123   2.927   5.044   5.487 -1.7020 -0.5301 -1.0797
12544TIP3    H259124   2.958   5.163   5.398  0.0017 -0.1967 -0.0543
12545TIP3   OH259125   4.811   6.716  13.237 -0.1289 -0.0384  0.8442
12545TIP3    H159126   4.777   6.785  13.293  1.2461  2.6129 -1.4990
12545TIP3    H259127   4.865   6.662  13.295  0.0798  1.7808  2.3920
12546TIP3   OH259128   4.824   0.302  10.672  0.9280  0.0095 -0.1485
12546TIP3    H159129   4.866   0.333  10.592  1.1861 -0.7432 -0.3020
12546TIP3    H259130   4.892   0.307  10.738  0.3272  2.0098  0.3651
12547TIP3   OH259131   5.327   4.983   0.461 -0.0994 -0.5996  0.3710
12547TIP3    H159132   5.382   4.987   0.539  1.9468 -0.3385 -1.0403
12547TIP3    H259133   5.278   4.901   0.471  2.3708 -2.1262  0.5133
12548TIP3   OH259134   5.025   5.336  17.224  0.6050 -0.0307 -0.1469
12548TIP3    H159135   5.009   5.349  17.317 -0.3289  2.0075 -0.5764
12548TIP3    H259136   5.115   5.367  17.211 -0.4390  2.9141 -0.5369
12549TIP3   OH259137   6.622   3.645  16.656  0.0475  0.1414 -0.1516
12549TIP3    H159138   6.588   3.629  16.744 -0.1346 -0.1066 -0.2654
12549TIP3    H259139   6.678   3.570  16.638  0.7343  0.5955  0.0755
12550TIP3   OH259140   3.421   6.815  11.086 -0.5569  0.6173  0.0232
12550TIP3    H159141   3.391   6.829  10.996 -0.4749 -0.6852 -0.2082
12550TIP3    H259142   3.464   6.898  11.110  1.3245  0.2260 -1.8878
12551TIP3   OH259143   3.124   2.053  13.637 -0.5538  0.0066  0.0938
12551TIP3    H159144   3.129   2.137  13.682  1.5638 -1.3490  2.5243
12551TIP3    H259145   3.192   2.058  13.569 -2.0107  1.0916 -1.3159
12552TIP3   OH259146   5.599   3.009  13.205  0.1385 -0.1965  0.1696
12552TIP3    H159147   5.671   2.969  13.253  0.0788 -0.2415  0.2224
12552TIP3    H259148   5.631   3.019  13.116  0.3132  0.0472  0.2580
12553TIP3   OH259149   6.671   1.733  13.192 -0.2368  0.4024 -0.1205
12553TIP3    H159150   6.748   1.736  13.134  0.3928  0.8513  0.7279
12553TIP3    H259151   6.652   1.639  13.201  1.6416  0.1316  1.4938
12554TIP3   OH259152   5.671   3.486  11.799  0.0320 -0.2714  0.4218
12554TIP3    H159153   5.766   3.480  11.808 -0.0279 -0.7660  0.7864
12554TIP3    H259154   5.639   3.403  11.834 -0.5819  0.2309  1.0636
12555TIP3   OH259155   5.991   2.544  10.755  0.2819 -0.2801 -0.2928
12555TIP3    H159156   6.067   2.601  10.742  1.1960 -1.6063 -0.9489
12555TIP3    H259157   6.023   2.476  10.814 -1.3887  0.9984  2.1239
12556TIP3   OH259158   4.806   6.526  16.409  0.8750 -0.0927 -0.4607
12556TIP3    H159159   4.795   6.481  16.493  0.5196 -0.1100 -0.5181
12556TIP3    H259160   4.730   6.585  16.404  0.7295 -0.3148 -0.9119
12557TIP3   OH259161   4.847   0.978   3.961 -0.8339 -0.1209 -0.3709
12557TIP3    H159162   4.816   0.906   4.016  1.8034 -1.4957 -0.5910
12557TIP3    H259163   4.839   0.945   3.871  0.5682 -0.2455 -0.4622
12558TIP3   OH259164   4.060   4.326   2.958  0.1031  0.2840 -0.0451
12558TIP3    H159165   4.020   4.267   2.894 -1.7345  1.9204 -0.4464
12558TIP3    H259166   4.016   4.306   3.040  3.1818 -2.5461  1.0545
12559TIP3   OH259167   2.654   6.621   1.625 -0.0652 -0.4033  0.6432
12559TIP3    H159168   2.569   6.658   1.601  0.6251  1.9147  1.5467
12559TIP3    H259169   2.647   6.602   1.718  0.1594 -0.9545  0.5494
12560TIP3   OH259170   2.660   0.185   1.021 -0.1291 -0.9267 -0.3607
12560TIP3    H159171   2.684   0.277   1.032  0.0293 -0.9652 -0.3865
12560TIP3    H259172   2.684   0.144   1.104 -3.5043 -0.2485  1.0484
12561TIP3   OH259173   1.932   6.559  15.485 -0.0063  0.3535  0.2164
12561TIP3    H159174   1.925   6.520  15.398  2.1255 -0.3516  0.3192
12561TIP3    H259175   1.845   6.548  15.523 -0.3445 -1.4046 -0.9879
12562TIP3   OH259176   1.342   5.686  12.871 -0.6251  0.3117 -0.1508
12562TIP3    H159177   1.320   5.779  12.868 -1.5240  0.0463 -2.2616
12562TIP3    H259178   1.387   5.668  12.789  0.6728 -0.8581  0.7850
12563TIP3   OH259179   2.635   1.159  12.029  0.6525 -0.2017  0.5383
12563TIP3    H159180   2.684   1.167  11.947  0.5376 -0.2212  0.4665
12563TIP3    H259181   2.606   1.248  12.048  1.1874 -0.0978  0.8743
12564TIP3   OH259182   6.332   5.097  13.436  0.5009  0.1515 -0.2032
12564TIP3    H159183   6.249   5.116  13.392 -0.4956  0.2696  1.7048
12564TIP3    H259184   6.317   5.012  13.478  1.0881  0.5327  0.7786
12565TIP3   OH259185   0.771   2.136  12.219 -0.9546 -0.0738 -0.3142
12565TIP3    H159186   0.684   2.144  12.180 -1.5506  0.9066  1.1623
12565TIP3    H259187   0.805   2.225  12.221  0.6482 -0.6300 -2.1064
12566TIP3   OH259188   5.117   2.841   3.801  0.3643 -0.3379 -0.0406
12566TIP3    H159189   5.145   2.931   3.785 -0.0998 -0.1355  0.2612
12566TIP3    H259190   5.184   2.787   3.760  2.4428  0.0856  2.6099
12567TIP3   OH259191   3.260   1.610  12.512 -0.1815  0.3759 -0.3081
12567TIP3    H159192   3.337   1.633  12.459 -0.1527  0.8927 -0.0470
12567TIP3    H259193   3.252   1.682  12.575 -0.8044  0.2597 -0.2533
12568TIP3   OH259194   2.557   5.109  14.184  0.0687 -0.4286  0.2201
12568TIP3    H159195   2.509   5.091  14.103  1.2349 -0.1861 -0.5291
12568TIP3    H259196   2.596   5.195  14.172  0.1350 -0.3218  1.1054
12569TIP3   OH259197   1.869   3.133   2.323 -0.7156  0.4020 -0.5857
12569TIP3    H159198   1.817   3.061   2.360 -0.4145  0.0689 -0.8080
12569TIP3    H259199   1.945   3.090   2.285 -0.4827  0.8529 -0.6264
12570TIP3   OH259200   3.334   4.501   2.018  0.0527  0.0345  0.5107
12570TIP3    H159201   3.339   4.443   2.094 -1.2162 -0.0382  0.5472
12570TIP3    H259202   3.410   4.558   2.026  0.1399 -0.2296  1.6250
12571TIP3   OH259203   3.175   0.164   6.189 -0.1211 -0.5439  0.4948
12571TIP3    H159204   3.134   0.250   6.189 -0.8568 -0.8888  0.3012
12571TIP3    H259205   3.255   0.175   6.240  0.1995  0.4445 -0.2034
12572TIP3   OH259206   0.932   3.235   0.879  0.3648  0.7616 -0.0523
12572TIP3    H159207   0.870   3.199   0.815 -0.0334 -0.2008  0.8626
12572TIP3    H259208   0.882   3.305   0.922 -0.0062  0.1785  0.4830
12573TIP3   OH259209   3.613   3.215  13.384  0.1117  0.0290  0.4007
12573TIP3    H159210   3.582   3.130  13.355  1.1080 -0.1438 -0.2034
12573TIP3    H259211   3.654   3.199  13.469  0.2946 -0.0904  0.2882
12574TIP3   OH259212   5.160   1.889   5.157 -0.2450 -0.7940  0.2897
12574TIP3    H159213   5.069   1.860   5.162  0.0208 -1.5258  0.9846
12574TIP3    H259214   5.174   1.938   5.239 -0.8545  1.8380 -1.1079
12575TIP3   OH259215   1.890   0.076   6.767 -0.2946 -0.1401 -0.0606
12575TIP3    H159216   1.964   0.124   6.803 -0.6703  0.8214 -0.5513
12575TIP3    H259217   1.910   0.068   6.674 -0.3383 -0.7510 -0.0198
12576TIP3   OH259218   2.420   6.766  14.954 -0.3516  0.2587  0.2000
12576TIP3    H159219   2.383   6.803  14.874  2.3911  2.1518 -0.2568
12576TIP3    H259220   2.436   6.674  14.932  1.1101  0.9411 -1.7224
12577TIP3   OH259221   1.075   6.475   4.451 -0.5086  0.2923  0.1354
12577TIP3    H159222   1.120   6.391   4.443  0.0047  0.3721  1.9124
12577TIP3    H259223   0.999   6.468   4.395  1.5519  0.0317 -2.7412
12578TIP3   OH259224   3.274   4.000   3.344 -0.1914 -0.6052  0.4910
12578TIP3    H159225   3.237   3.917   3.373 -0.9933 -0.8041 -1.0754
12578TIP3    H259226   3.202   4.063   3.352 -0.1141 -0.4429 -0.0534
12579TIP3   OH259227   0.955   2.012  15.170  0.5287 -0.2092  0.0327
12579TIP3    H159228   0.879   2.025  15.226  2.4364  2.4932  2.0990
12579TIP3    H259229   0.938   2.066  15.093  0.6029  0.8206  0.7378
12580TIP3   OH259230   6.307   1.556   1.446 -0.0087 -0.1360 -0.0900
12580TIP3    H159231   6.230   1.579   1.498 -1.1719 -0.5095 -1.6164
12580TIP3    H259232   6.311   1.460   1.450  0.9902 -0.0582  0.8469
12581TIP3   OH259233   2.750   5.456  15.672 -0.2708 -0.0158 -0.8801
12581TIP3    H159234   2.685   5.388  15.654  0.5174 -0.6175 -1.4486
12581TIP3    H259235   2.772   5.444  15.764 -1.6534  0.7930 -0.4197
12582TIP3   OH259236   2.149   5.654  12.983  0.2409  0.5233  0.7787
12582TIP3    H159237   2.113   5.687  13.065 -0.5576  0.5613  0.4169
12582TIP3    H259238   2.173   5.733  12.933 -0.1804  0.5260  0.5763
12583TIP3   OH259239   6.737   6.216  16.453 -0.5625  0.0399 -0.1879
12583TIP3    H159240   6.703   6.293  16.498  0.8709  1.1479 -0.9658
12583TIP3    H259241   6.758   6.155  16.524  0.7330  1.3689  0.5981
12584TIP3   OH259242   4.525   4.956  16.159 -0.2997 -0.1462 -0.0807
12584TIP3    H159243   4.551   5.015  16.230 -0.9868  0.2142 -0.1290
12584TIP3    H259244   4.430   4.955  16.161 -0.2941 -4.0849  2.2150
12585TIP3   OH259245   5.560   4.986  15.761 -0.2075  0.3382  0.6709
12585TIP3    H159246   5.510   4.909  15.731  1.8161 -0.6483 -0.2739
12585TIP3    H259247   5.539   4.993  15.854  0.2336 -1.8994  0.9709
12586TIP3   OH259248   5.674   0.805   1.850  0.5298 -0.4781 -0.1569
12586TIP3    H159249   5.607   0.741   1.872 -1.2553  0.7333 -1.8875
12586TIP3    H259250   5.664   0.874   1.915  1.6968 -1.3774  1.0120
12587TIP3   OH259251   1.294   3.594  14.664  0.3671  0.7910 -0.3565
12587TIP3    H159252   1.233   3.644  14.609  2.4022  0.4388 -3.0223
12587TIP3    H259253   1.251   3.510  14.679 -2.1256  2.4298  2.3447
12588TIP3   OH259254   0.492   6.266   2.924  0.1331 -0.2140 -0.6788
12588TIP3    H159255   0.475   6.176   2.896  0.1034 -0.3850 -0.1306
12588TIP3    H259256   0.411   6.313   2.903  0.2642 -0.2413 -1.2564
12589TIP3   OH259257   0.049   2.005   3.289 -0.0593  0.3358  0.2839
12589TIP3    H159258   0.084   1.994   3.377 -0.2802  1.2293  0.4907
12589TIP3    H259259   0.113   1.963   3.232  0.1115 -0.1986  0.8631
12590TIP3   OH259260   6.785   3.300  12.930  0.1440 -0.7390  0.3258
12590TIP3    H159261   6.860   3.254  12.967  1.1622 -0.1169 -0.9506
12590TIP3    H259262   6.779   3.268  12.840 -0.9618 -0.5880  0.3391
12591TIP3   OH259263   1.687   1.951   6.925  0.3693  0.5061 -0.5934
12591TIP3    H159264   1.633   1.912   6.856 -0.4786 -0.3104  0.5372
12591TIP3    H259265   1.756   1.997   6.877 -0.3480  0.1417 -2.0022
12592TIP3   OH259266   1.163   2.352  15.095 -0.3104  0.1863 -0.0068
12592TIP3    H159267   1.151   2.345  15.000  0.9801 -3.0462  0.0317
12592TIP3    H259268   1.123   2.436  15.118 -1.2588  0.6843 -3.2998
12593TIP3   OH259269   1.606   2.478  16.345  0.2275 -0.4109 -0.1985
12593TIP3    H159270   1.565   2.463  16.430 -1.1243  0.1248 -0.7471
12593TIP3    H259271   1.670   2.407  16.337 -0.2644 -0.9896  0.8710
12594TIP3   OH259272   5.132   5.608  12.857 -0.1142  0.5677  0.7476
12594TIP3    H159273   5.095   5.667  12.922  3.2532  1.4411  1.9519
12594TIP3    H259274   5.152   5.664  12.782 -1.0110  0.1282  0.1679
12595TIP3   OH259275   5.965   3.285  13.116  0.0526  0.3078 -0.2888
12595TIP3    H159276   6.057   3.259  13.117  0.0421  0.2682  0.7129
12595TIP3    H259277   5.945   3.303  13.208 -1.2706 -0.8674 -0.3298
12596TIP3   OH259278   2.106   1.057  15.484 -0.4275  0.2386 -0.6727
12596TIP3    H159279   2.166   1.075  15.412  0.2101  0.0196 -0.1978
12596TIP3    H259280   2.157   1.073  15.563 -1.2674  0.9471 -0.2615
12597TIP3   OH259281   6.113   4.421  11.963  0.2094  0.6770  0.3350
12597TIP3    H159282   6.043   4.486  11.958 -1.0525 -0.4936  2.1279
12597TIP3    H259283   6.093   4.370  12.041  3.0166  0.2398  0.8370
12598TIP3   OH259284   4.256   5.665   4.819  0.9177  0.3510 -0.0441
12598TIP3    H159285   4.190   5.642   4.885  1.8726  0.0967  0.8301
12598TIP3    H259286   4.218   5.635   4.736  0.3358 -0.6498  0.5710
12599TIP3   OH259287   6.769   3.863  11.811  0.2485 -0.3213  0.1237
12599TIP3    H159288   6.809   3.938  11.767  0.2216 -0.3078  0.1221
12599TIP3    H259289   6.817   3.787  11.778 -0.1474 -0.3640 -0.3561
12600TIP3   OH259290   4.233   0.641   4.593 -0.2490 -0.4811  0.2521
12600TIP3    H159291   4.161   0.652   4.530  0.4798 -0.0000 -0.4997
12600TIP3    H259292   4.273   0.557   4.569  0.4165 -0.0040 -0.3287
12601TIP3   OH259293   5.234   0.035  11.620 -0.5200 -0.3271 -0.0374
12601TIP3    H159294   5.286  -0.038  11.587 -0.9843  0.3235 -2.3238
12601TIP3    H259295   5.160  -0.006  11.665 -0.6318 -1.2843 -1.0607
12602TIP3   OH259296   1.564   5.946   5.523 -0.0046  0.2619 -0.1375
12602TIP3    H159297   1.573   5.996   5.442 -2.3329 -1.0457 -1.2642
12602TIP3    H259298   1.469   5.945   5.539  0.0691 -3.0515  0.2921
12603TIP3   OH259299   0.128   4.070  15.958 -0.7105 -0.3030 -1.0831
12603TIP3    H159300   0.080   4.011  15.901 -0.8153 -0.6610 -0.6293
12603TIP3    H259301   0.200   4.017  15.992 -1.5219 -0.5507  0.3030
12604TIP3   OH259302   0.213   6.222   5.125 -0.3100  0.0121  0.1319
12604TIP3    H159303   0.299   6.215   5.168 -0.0685  0.6913 -0.2289
12604TIP3    H259304   0.173   6.136   5.137  0.4971 -0.3662  0.1582
12605TIP3   OH259305   5.128   1.053   3.113 -0.3926  0.2409  0.4916
12605TIP3    H159306   5.084   1.085   3.034 -1.5090 -0.3499  0.8671
12605TIP3    H259307   5.057   1.023   3.170  0.4737 -0.3537  1.2719
12606TIP3   OH259308   1.244   0.706  13.999  0.1629 -0.0500 -0.1879
12606TIP3    H159309   1.268   0.619  13.967  2.0844  0.1980  0.5011
12606TIP3    H259310   1.223   0.692  14.091 -1.6969 -0.1367 -0.6089
12607TIP3   OH259311   2.856   4.077  12.366 -0.1934 -0.3336 -0.2013
12607TIP3    H159312   2.921   4.025  12.412 -0.7563  0.7202  1.8356
12607TIP3    H259313   2.907   4.130  12.304  0.5084 -2.1633 -1.2436
12608TIP3   OH259314   2.139   4.104   2.311 -0.7284 -0.7544  0.1435
12608TIP3    H159315   2.143   4.009   2.306  0.5019 -0.6790 -0.4066
12608TIP3    H259316   2.201   4.127   2.381  2.2168 -0.1135 -2.5799
12609TIP3   OH259317   4.841   3.905   1.777  0.0503 -0.1175  0.3687
12609TIP3    H159318   4.844   3.995   1.808 -1.9653  0.3905 -0.8209
12609TIP3    H259319   4.812   3.855   1.853 -1.2662  0.6090  0.3683
12610TIP3   OH259320   2.462   2.859  10.919 -0.1312  0.1483  0.7488
12610TIP3    H159321   2.541   2.872  10.972  0.3085 -1.1361  0.4349
12610TIP3    H259322   2.392   2.895  10.973  0.5439  0.4821  1.4299
12611TIP3   OH259323   4.501   2.960   2.651  0.1594  0.2116 -0.0625
12611TIP3    H159324   4.494   3.041   2.600  2.0400 -0.0531 -0.7663
12611TIP3    H259325   4.586   2.923   2.627 -1.3093 -2.7644 -0.8803
12612TIP3   OH259326   3.991   0.450  14.855 -0.3574  0.1385 -0.3802
12612TIP3    H159327   3.917   0.412  14.902  0.3985 -0.8499  0.0233
12612TIP3    H259328   4.057   0.466  14.923  1.2164 -2.4414 -1.2555
12613TIP3   OH259329   4.710   2.372   5.789  0.1674  0.8419  0.2150
12613TIP3    H159330   4.648   2.442   5.809 -0.8183 -0.2266  0.9886
12613TIP3    H259331   4.793   2.402   5.827 -0.0085  2.0230 -0.3250
12614TIP3   OH259332   3.723   3.839   4.475 -0.4417 -0.0661  0.3602
12614TIP3    H159333   3.649   3.779   4.466 -0.1721 -0.2137 -0.8695
12614TIP3    H259334   3.744   3.866   4.386 -2.5678  4.3210  1.0292
12615TIP3   OH259335   2.923   3.321  12.246  0.4796  0.0942 -0.5598
12615TIP3    H159336   2.978   3.302  12.322 -0.1566  1.3399  0.2218
12615TIP3    H259337   2.956   3.404  12.213 -1.3629  1.2118  0.3365
12616TIP3   OH259338   3.249   5.318   2.254  0.2664 -0.1619 -0.0456
12616TIP3    H159339   3.296   5.235   2.262 -1.9310 -1.2747  1.8568
12616TIP3    H259340   3.161   5.293   2.225  0.0588  1.6434 -1.0229
12617TIP3   OH259341   6.417   1.484  16.841  0.0293  0.2264 -0.0063
12617TIP3    H159342   6.346   1.546  16.856 -2.3245 -2.2967 -0.2428
12617TIP3    H259343   6.419   1.472  16.746  0.5899  0.0771  0.0221
12618TIP3   OH259344   0.708   3.302   6.161 -0.2748  0.6946  0.2838
12618TIP3    H159345   0.801   3.283   6.151 -0.5194 -0.8557  0.7151
12618TIP3    H259346   0.703   3.360   6.237  0.4335  1.8212 -0.5149
12619TIP3   OH259347   4.108   5.590  15.297 -0.2922  0.2285 -0.0286
12619TIP3    H159348   4.108   5.671  15.246 -2.1693 -1.1654 -2.3409
12619TIP3    H259349   4.150   5.526  15.240  0.2489 -0.6787  1.3758
12620TIP3   OH259350   4.015   4.702  16.411 -0.0661  0.3494  0.0932
12620TIP3    H159351   3.929   4.666  16.433 -0.4822  1.6640  0.6532
12620TIP3    H259352   4.001   4.751  16.330 -0.0711  1.3830  0.7090
12621TIP3   OH259353   5.154   2.327   2.741  0.2977  0.0178  0.1575
12621TIP3    H159354   5.083   2.302   2.682 -0.5687  0.1931  1.1086
12621TIP3    H259355   5.202   2.396   2.694 -0.9989  0.8835  0.0784
12622TIP3   OH259356   3.797   0.324  15.045  0.6257  0.7227 -0.4733
12622TIP3    H159357   3.888   0.298  15.060  0.6137  0.6265 -0.5641
12622TIP3    H259358   3.746   0.249  15.076  0.5909  0.6349 -0.7484
12623TIP3   OH259359   2.790   0.085  16.441  0.1137 -0.3658  0.0490
12623TIP3    H159360   2.779   0.179  16.455 -0.6891 -0.2344 -1.3932
12623TIP3    H259361   2.738   0.044  16.511 -0.8513  0.2668 -0.2854
12624TIP3   OH259362   4.838   0.023   1.533 -0.3184 -0.2248  0.0893
12624TIP3    H159363   4.821  -0.034   1.459 -0.3893  1.2218 -1.0329
12624TIP3    H259364   4.757   0.021   1.584 -0.6578 -0.3731 -0.4480
12625TIP3   OH259365   0.164   5.529   6.281 -0.1317  0.4222  0.1297
12625TIP3    H159366   0.154   5.588   6.206 -0.2747 -0.8529 -0.8621
12625TIP3    H259367   0.132   5.580   6.355  2.6057  2.7284 -0.1798
12626TIP3   OH259368   3.826   5.649   5.760  0.1630 -0.1273  1.0947
12626TIP3    H159369   3.832   5.616   5.671 -0.6389 -3.4674  2.1873
12626TIP3    H259370   3.911   5.629   5.799  0.3517  0.9058  1.2355
12627TIP3   OH259371   0.699   1.004   0.989  0.3756 -0.0920 -0.0360
12627TIP3    H159372   0.605   0.988   0.996 -0.3141  2.9225 -1.4558
12627TIP3    H259373   0.735   0.922   0.956 -2.2581 -0.2750 -2.6503
12628TIP3   OH259374   2.008   4.678   3.820  0.0816 -0.5111  0.2478
12628TIP3    H159375   2.048   4.764   3.809  0.0403 -0.5845 -0.4723
12628TIP3    H259376   2.082   4.619   3.833  0.0837 -0.2921  1.2485
12629TIP3   OH259377   5.169   2.129  14.284 -0.3094  0.0418  0.5118
12629TIP3    H159378   5.087   2.104  14.329 -1.0637  1.2876 -0.1604
12629TIP3    H259379   5.159   2.222  14.267  1.3980  0.2572  0.6786
12630TIP3   OH259380   5.139   6.170   2.806  0.6649 -0.3183 -0.2924
12630TIP3    H159381   5.181   6.238   2.753  0.8211 -0.4820 -0.3796
12630TIP3    H259382   5.205   6.102   2.815  0.6456 -0.2796  0.1381
12631TIP3   OH259383   3.573   3.916   3.335  0.3390 -0.7922  0.4465
12631TIP3    H159384   3.526   3.922   3.251 -0.1972 -0.2455  0.7772
12631TIP3    H259385   3.504   3.895   3.399  0.9668 -2.6807  0.5410
12632TIP3   OH259386   1.107   2.312   3.153 -0.2526  0.1260  0.7020
12632TIP3    H159387   1.169   2.385   3.148 -1.0480  0.7234 -0.5449
12632TIP3    H259388   1.055   2.318   3.073 -0.7622 -1.4288  0.8874
12633TIP3   OH259389   6.482   2.797   4.468  0.0671  0.3602 -0.1475
12633TIP3    H159390   6.458   2.797   4.561  0.2947 -0.8138 -0.0888
12633TIP3    H259391   6.569   2.838   4.466  0.9215 -1.3750  0.3920
12634TIP3   OH259392   6.297   2.572  17.028  0.1720  0.2282 -0.3304
12634TIP3    H159393   6.324   2.596  16.939 -0.0570 -0.8862 -0.7067
12634TIP3    H259394   6.291   2.476  17.026 -1.1313  0.2832  0.5028
12635TIP3   OH259395   6.156   1.708   1.192  0.2072  0.0747 -0.1909
12635TIP3    H159396   6.234   1.732   1.143  0.8134 -0.5072  0.4630
12635TIP3    H259397   6.131   1.622   1.157 -1.5645  1.3141 -2.0674
12636TIP3   OH259398   2.451   1.144   3.370  0.1167 -0.0453 -0.6239
12636TIP3    H159399   2.486   1.073   3.425 -0.0960  0.2357 -0.1156
12636TIP3    H259400   2.380   1.102   3.320  0.2398 -0.2798 -0.6037
12637TIP3   OH259401   5.855   6.406  15.492  0.0041  0.2184 -0.2415
12637TIP3    H159402   5.761   6.392  15.480  0.0463 -0.0162 -0.3057
12637TIP3    H259403   5.893   6.386  15.406  0.3448 -1.7562  0.3612
12638TIP3   OH259404   0.425   1.338  15.335  0.2205 -0.0124 -0.5056
12638TIP3    H159405   0.498   1.400  15.340  0.6878 -0.4367 -1.8059
12638TIP3    H259406   0.346   1.393  15.343  0.6762  0.3454  1.7982
12639TIP3   OH259407   6.180   0.026  13.257  0.5577 -0.3201 -0.0286
12639TIP3    H159408   6.242   0.084  13.214  1.2399 -1.5932 -0.7759
12639TIP3    H259409   6.134   0.083  13.320  1.4930  0.9223 -0.4496
12640TIP3   OH259410   3.463   4.728   1.699  0.1119 -0.3153  0.8041
12640TIP3    H159411   3.558   4.729   1.701  0.1088 -1.0349  1.2487
12640TIP3    H259412   3.440   4.636   1.683 -0.5050 -0.1415  0.6769
12641TIP3   OH259413   5.410   3.812   1.766  0.4129 -0.1650 -0.5105
12641TIP3    H159414   5.395   3.783   1.856  1.2250  0.2690 -0.2336
12641TIP3    H259415   5.337   3.872   1.747  1.3855  1.3767  0.5805
12642TIP3   OH259416   0.610   1.330   0.956 -0.3515  0.1868  0.0684
12642TIP3    H159417   0.530   1.282   0.977  0.6715 -0.6100  2.2909
12642TIP3    H259418   0.642   1.291   0.875 -0.9288 -1.1310  0.4777
12643TIP3   OH259419   3.614   6.603   3.543  0.0285 -0.0112 -0.2601
12643TIP3    H159420   3.529   6.609   3.585  0.5514  1.0844  0.6918
12643TIP3    H259421   3.652   6.691   3.553  0.9701 -0.2907 -1.2844
12644TIP3   OH259422   5.957   2.364  13.989 -0.0296  0.0353 -0.3629
12644TIP3    H159423   5.889   2.426  14.017 -0.0967 -0.1844 -0.0310
12644TIP3    H259424   6.034   2.389  14.041 -0.5221 -1.1996  0.9751
12645TIP3   OH259425   3.364   0.785   4.865 -0.3096 -0.8079 -0.4088
12645TIP3    H159426   3.428   0.815   4.801  1.8561 -0.4884  1.8216
12645TIP3    H259427   3.357   0.691   4.848  1.4405 -1.0156 -0.1430
12646TIP3   OH259428   0.584   1.396  11.084  0.1717 -0.4971 -0.2315
12646TIP3    H159429   0.489   1.405  11.072  0.1944  0.6565  0.3112
12646TIP3    H259430   0.619   1.480  11.054  0.9936 -0.8174 -0.1646
12647TIP3   OH259431   1.282   4.928  14.949  0.5891  0.1016  0.1712
12647TIP3    H159432   1.252   4.856  15.005  0.4623  0.5759  0.7204
12647TIP3    H259433   1.276   4.893  14.860 -1.0600 -0.0066  0.3059
12648TIP3   OH259434   0.805   0.542   3.504 -0.2743  0.4367  0.0051
12648TIP3    H159435   0.729   0.499   3.544 -1.0157  0.7120 -1.0630
12648TIP3    H259436   0.853   0.579   3.578 -1.6125  0.9308  0.6636
12649TIP3   OH259437   2.188   1.852  12.859 -0.0089 -0.1200  0.2261
12649TIP3    H159438   2.186   1.930  12.914 -0.6565 -0.3311  0.4945
12649TIP3    H259439   2.233   1.881  12.779  0.3728  0.3430  0.6066
12650TIP3   OH259440   3.770   3.518   1.705  0.4188 -0.1226 -0.0749
12650TIP3    H159441   3.834   3.540   1.637  0.0409 -2.6089 -1.3144
12650TIP3    H259442   3.685   3.537   1.664  0.2038 -1.2866 -0.1878
12651TIP3   OH259443   6.813   1.761  15.383 -0.2531 -0.0683  0.4025
12651TIP3    H159444   6.758   1.761  15.304 -1.4546 -0.6499  1.2197
12651TIP3    H259445   6.847   1.851  15.388 -1.7111  0.5196  0.2578
12652TIP3   OH259446   2.631   1.611   6.060  0.5141 -0.3595 -0.1763
12652TIP3    H159447   2.671   1.525   6.070  0.0823 -0.5444 -0.0200
12652TIP3    H259448   2.591   1.608   5.972 -1.6791 -1.2369  0.8084
12653TIP3   OH259449   1.806   3.182  15.650 -0.0035  0.1247 -0.5473
12653TIP3    H159450   1.730   3.212  15.600  0.4282 -0.0803 -1.3274
12653TIP3    H259451   1.769   3.151  15.733 -0.5165  2.3413  0.0908
12654TIP3   OH259452   4.231   4.518   4.488  0.3557 -0.7298 -0.4388
12654TIP3    H159453   4.274   4.475   4.563 -1.0402 -1.1547  0.1268
12654TIP3    H259454   4.159   4.567   4.527 -0.4715 -1.0720 -1.5248
12655TIP3   OH259455   2.994   3.597   3.157  0.4834 -0.5141  0.2825
12655TIP3    H159456   3.086   3.614   3.178  0.8373 -1.0276 -0.7951
12655TIP3    H259457   2.949   3.679   3.177  1.2244 -0.1717  0.5544
12656TIP3   OH259458   2.676   1.523   3.787 -0.3989  0.1586  0.2409
12656TIP3    H159459   2.603   1.518   3.848 -0.4451 -0.5580  0.1359
12656TIP3    H259460   2.635   1.533   3.701 -0.4052 -1.1083  0.0896
12657TIP3   OH259461   5.045   1.344   4.813  0.4418 -0.4553  0.2652
12657TIP3    H159462   4.953   1.369   4.809  0.0457 -2.0452 -0.7916
12657TIP3    H259463   5.083   1.378   4.733  1.7224  3.6850  2.4749
12658TIP3   OH259464   2.219   3.355   3.308 -0.2354  0.0010  0.2249
12658TIP3    H159465   2.246   3.300   3.381  1.6787 -1.5830 -1.5787
12658TIP3    H259466   2.271   3.435   3.317 -0.7112  0.2099  1.1146
12659TIP3   OH259467   5.859   1.512   0.876 -0.4539  0.0002  0.5398
12659TIP3    H159468   5.863   1.594   0.925  0.1344  0.7218 -0.6783
12659TIP3    H259469   5.771   1.478   0.894  0.4554 -0.8014  3.6768
12660TIP3   OH259470   4.900   1.857   3.289  0.0234 -0.0758 -0.1320
12660TIP3    H159471   4.886   1.764   3.304 -0.6636  0.1838  0.9099
12660TIP3    H259472   4.995   1.867   3.285  0.0946 -0.8423 -0.4154
12661TIP3   OH259473   1.088   4.286  14.520  0.2056  0.0020  0.0768
12661TIP3    H159474   1.126   4.203  14.549  1.9175  0.6013 -0.4266
12661TIP3    H259475   1.162   4.337  14.487 -0.8626  1.6332  0.1178
12662TIP3   OH259476   6.288   2.429  14.814  0.3847 -0.6663 -0.4626
12662TIP3    H159477   6.200   2.396  14.795  0.7868 -2.4311  0.6174
12662TIP3    H259478   6.294   2.426  14.909  1.4468 -0.0601 -0.5075
12663TIP3   OH259479   2.843   3.054  15.435 -0.0353  0.5713 -0.1302
12663TIP3    H159480   2.770   3.041  15.374  0.3620 -0.3172 -0.4276
12663TIP3    H259481   2.910   2.993  15.405  1.2460  2.1272 -0.5065
12664TIP3   OH259482   0.974   3.341  16.497 -0.0138 -0.4395 -0.0458
12664TIP3    H159483   0.929   3.374  16.419  0.5657  2.0169  0.6212
12664TIP3    H259484   1.067   3.344  16.474  0.0536 -1.6240  0.0378
12665TIP3   OH259485   1.181   0.105  16.946  0.3887 -0.4719 -0.2860
12665TIP3    H159486   1.197   0.140  16.858  1.2555 -0.9463 -0.3279
12665TIP3    H259487   1.166   0.011  16.932  1.8391 -0.7937  0.1897
12666TIP3   OH259488   5.680   2.143  13.977  0.1730  0.0900  0.3140
12666TIP3    H159489   5.658   2.155  14.069  0.1410  1.1593  0.1703
12666TIP3    H259490   5.716   2.054  13.972 -1.6827 -0.7373  1.0099
12667TIP3   OH259491   5.744   3.036   5.806  0.2845  0.2594  0.9176
12667TIP3    H159492   5.718   3.128   5.809  1.7500  0.6486  2.1970
12667TIP3    H259493   5.837   3.038   5.783  0.5986 -0.8581  2.0647
12668TIP3   OH259494   6.070   1.527   5.042  0.6657 -0.2045  0.4663
12668TIP3    H159495   5.979   1.537   5.015  0.7993  1.2333  0.5326
12668TIP3    H259496   6.089   1.433   5.029 -0.4493 -0.2811 -0.6786
12669TIP3   OH259497   0.213   1.538   0.905 -0.1031  0.2522  0.0431
12669TIP3    H159498   0.305   1.563   0.900  0.6584 -2.4284 -0.2774
12669TIP3    H259499   0.198   1.522   0.998 -0.1294  0.2793  0.0435
12670TIP3   OH259500   4.440   3.504   5.337 -0.5400  0.1980 -0.2055
12670TIP3    H159501   4.457   3.588   5.294  2.0683 -0.5461 -0.6963
12670TIP3    H259502   4.358   3.518   5.385 -1.1120  2.4407 -1.7607
12671TIP3   OH259503   4.013   0.493   1.298 -0.3242 -0.1199 -0.3212
12671TIP3    H159504   4.048   0.502   1.209  0.5997 -1.7900 -0.1544
12671TIP3    H259505   4.032   0.577   1.339  2.0390 -0.3916 -0.7735
12672TIP3   OH259506   6.266   4.981   2.624 -0.3426  0.0806  0.0162
12672TIP3    H159507   6.245   5.074   2.615  0.0937  0.2939  1.1452
12672TIP3    H259508   6.185   4.936   2.601 -0.8601  0.7723  0.4762
12673TIP3   OH259509   3.809   6.035   5.275  0.5517  0.1907 -0.1609
12673TIP3    H159510   3.820   5.950   5.318 -1.8585 -0.7699 -1.3495
12673TIP3    H259511   3.806   6.098   5.347 -0.0407 -1.0091  0.8784
12674TIP3   OH259512   5.794   3.319   0.773 -0.2621  0.0298 -0.4491
12674TIP3    H159513   5.784   3.341   0.866  0.6299 -2.2744  0.2225
12674TIP3    H259514   5.883   3.347   0.752  0.7910 -2.5290  0.3473
12675TIP3   OH259515   1.602   2.837   5.367  0.5054 -0.2968 -0.7283
12675TIP3    H159516   1.568   2.749   5.375 -1.4598  0.7188  3.4137
12675TIP3    H259517   1.533   2.887   5.324 -0.0804  0.0263  0.5391
12676TIP3   OH259518   5.056   0.943   0.717  0.3320 -0.4571 -0.5866
12676TIP3    H159519   5.104   0.934   0.799 -0.9872 -0.3050  0.2235
12676TIP3    H259520   5.094   1.021   0.675 -1.1937  1.4468  1.4620
12677TIP3   OH259521   0.028   2.027  14.017  0.1844 -0.0076 -0.1405
12677TIP3    H159522   0.082   2.056  14.091  0.3818  0.5901 -0.5093
12677TIP3    H259523  -0.042   2.092  14.012 -0.3230 -0.5362  0.0644
12678TIP3   OH259524   4.157   3.851  14.763 -0.5190  0.6277 -0.4280
12678TIP3    H159525   4.160   3.756  14.753 -1.1647  0.4512  0.9750
12678TIP3    H259526   4.221   3.884  14.700  0.7566 -0.8189  0.0921
12679TIP3   OH259527   4.072   5.419   0.505  0.5487 -0.6462  0.1669
12679TIP3    H159528   4.139   5.472   0.462  0.8208 -0.6783  0.5442
12679TIP3    H259529   3.989   5.456   0.475  0.6755  1.9661  2.7035
12680TIP3   OH259530   6.216   3.333   6.120  0.5399  0.3056  0.0306
12680TIP3    H159531   6.197   3.259   6.177 -1.2413  0.8272  0.1470
12680TIP3    H259532   6.188   3.410   6.170  1.0051  0.9367 -0.6667
12681TIP3   OH259533   4.980   2.943   0.745 -0.0082  0.2097  0.2519
12681TIP3    H159534   4.944   2.860   0.714 -0.3981 -0.0691  1.4402
12681TIP3    H259535   4.922   3.009   0.709 -2.5534 -0.2991  3.2180
12682TIP3   OH259536   4.879   4.783  14.123 -0.7461  0.2067 -0.1351
12682TIP3    H159537   4.796   4.823  14.148  0.0020 -0.4180  3.6429
12682TIP3    H259538   4.857   4.691  14.106 -0.7939 -0.0307  1.1716
12683TIP3   OH259539   0.924   3.216  17.209 -0.5564  0.4501 -0.2155
12683TIP3    H159540   0.994   3.281  17.209 -0.2797  0.2002 -2.1086
12683TIP3    H259541   0.960   3.141  17.256 -0.1307  0.9215  0.2080
12684TIP3   OH259542   0.022   1.201   6.809 -0.0285  0.0574  0.3558
12684TIP3    H159543   0.104   1.202   6.760 -0.2808  0.2124 -0.0562
12684TIP3    H259544  -0.013   1.113   6.796 -0.3435  0.2593 -0.1436
12685TIP3   OH259545   4.500   1.585   1.830 -0.0384 -0.1779  0.1538
12685TIP3    H159546   4.514   1.679   1.815  0.2379  0.0908  1.9819
12685TIP3    H259547   4.574   1.559   1.884 -0.2608 -1.4066 -0.1343
12686TIP3   OH259548   1.470   4.724  13.413  0.6954  0.5685 -0.2158
12686TIP3    H159549   1.477   4.663  13.487  0.1903 -0.3264 -0.8901
12686TIP3    H259550   1.558   4.729  13.377  0.0600 -2.9982 -2.6574
12687TIP3   OH259551   0.859   3.106   1.711  0.3544  1.0299  0.2335
12687TIP3    H159552   0.872   3.050   1.788 -2.2951 -0.3950 -0.3062
12687TIP3    H259553   0.831   3.190   1.747  1.0607  0.9974  0.8897
12688TIP3   OH259554   1.179   2.376   6.147 -0.0631  0.4974  0.1174
12688TIP3    H159555   1.253   2.400   6.204 -0.0152  0.6312 -0.0016
12688TIP3    H259556   1.220   2.348   6.065 -0.1558  0.8878 -0.0646
12689TIP3   OH259557   6.004   5.050   5.852  1.3550  0.2278  0.5765
12689TIP3    H159558   6.032   4.981   5.912  0.0466 -1.2171 -0.4411
12689TIP3    H259559   5.920   5.080   5.888  0.2503 -1.0769 -0.8260
12690TIP3   OH259560   3.546   2.253  12.588  0.3915  0.3360 -0.0778
12690TIP3    H159561   3.532   2.342  12.555  0.8339 -0.0718 -1.3888
12690TIP3    H259562   3.457   2.219  12.600  0.2168  0.6843 -0.3373
12691TIP3   OH259563   5.142   6.373  16.069 -0.3848  0.2483 -0.3696
12691TIP3    H159564   5.100   6.288  16.059 -0.5214  0.2310  0.2940
12691TIP3    H259565   5.097   6.430  16.007 -1.0444  0.1043 -0.0293
12692TIP3   OH259566   6.025   1.912   6.977  0.1475 -0.4186 -0.2986
12692TIP3    H159567   5.985   1.829   6.952 -0.5850 -0.5143  1.1048
12692TIP3    H259568   5.990   1.976   6.916 -1.4675 -0.6629  0.3523
12693TIP3   OH259569   4.775   5.988   4.653  0.3722  0.2902 -0.3384
12693TIP3    H159570   4.765   6.080   4.676 -0.7730 -0.2391  1.3472
12693TIP3    H259571   4.699   5.945   4.692 -0.2209 -1.0774 -2.8702
12694TIP3   OH259572   4.089   6.301  15.407  0.5747 -0.0155  0.1551
12694TIP3    H159573   4.049   6.352  15.336  0.3597 -0.6595 -0.1930
12694TIP3    H259574   4.152   6.244  15.362 -0.1042 -0.9646  0.3968
12695TIP3   OH259575   1.640   4.957   2.260 -0.3078 -0.0042 -0.4093
12695TIP3    H159576   1.644   4.929   2.351 -1.5064 -0.9647 -0.6308
12695TIP3    H259577   1.731   4.956   2.230  0.2000  1.3025  1.0541
12696TIP3   OH259578   0.855   2.317  14.890 -0.4640 -0.3508 -0.2835
12696TIP3    H159579   0.946   2.308  14.860 -0.0570 -0.6156  1.0073
12696TIP3    H259580   0.836   2.410  14.881 -0.4791 -0.4840 -1.7268
12697TIP3   OH259581   0.619   1.587  16.484  0.4489  0.0090 -0.1945
12697TIP3    H159582   0.622   1.519  16.550  1.0906  0.6092  0.4045
12697TIP3    H259583   0.711   1.605  16.463  0.2941  0.7628 -0.2634
12698TIP3   OH259584   3.457   1.363  14.032 -0.0599 -0.2074  0.1430
12698TIP3    H159585   3.450   1.267  14.027 -1.9665 -0.0998  0.5269
12698TIP3    H259586   3.389   1.395  13.974 -1.2416  0.9333  2.1206
12699TIP3   OH259587   4.564   0.432  14.799 -0.1552  0.2571  0.4918
12699TIP3    H159588   4.506   0.509  14.798 -0.9792 -0.3682 -0.5038
12699TIP3    H259589   4.616   0.442  14.719 -0.3077 -0.2454  0.3301
12700TIP3   OH259590   5.348   1.169   0.006  0.2581 -0.7205 -0.4458
12700TIP3    H159591   5.277   1.205  -0.047 -0.9805  1.0555  2.2687
12700TIP3    H259592   5.384   1.098  -0.046 -2.4062 -0.5447 -2.6246
12701TIP3   OH259593   4.529   4.263   3.669  0.0024  0.4906  0.2115
12701TIP3    H159594   4.559   4.211   3.744  2.6172  1.0368 -0.4108
12701TIP3    H259595   4.568   4.220   3.593 -0.3993  1.5240 -0.5890
12702TIP3   OH259596   1.183   1.525   4.412 -0.2757  0.1430 -0.0767
12702TIP3    H159597   1.094   1.492   4.425 -0.2642  0.3471  0.5258
12702TIP3    H259598   1.238   1.466   4.463 -0.3503  1.6300  1.7519
12703TIP3   OH259599   4.887   4.310   1.418 -0.2258  0.7395  0.3045
12703TIP3    H159600   4.830   4.252   1.368  0.0765 -0.3458  1.2200
12703TIP3    H259601   4.969   4.261   1.428 -0.0765  1.2006  1.3649
12704TIP3   OH259602   3.682   1.565   3.530 -0.0382 -0.2441 -0.1723
12704TIP3    H159603   3.714   1.655   3.534  1.9976 -0.9549  0.2210
12704TIP3    H259604   3.671   1.547   3.437  2.3105 -0.5005 -0.4244
12705TIP3   OH259605   1.646   6.797  10.933  0.4633 -0.0014 -0.0614
12705TIP3    H159606   1.707   6.752  10.875  0.3975 -1.4073  0.9473
12705TIP3    H259607   1.676   6.776  11.021 -1.2866 -0.4308  0.4475
12706TIP3   OH259608   5.583   5.265   5.863 -0.8168  0.0443 -0.1363
12706TIP3    H159609   5.627   5.284   5.946  1.0951 -0.7627 -0.9275
12706TIP3    H259610   5.612   5.335   5.803 -1.4825  0.1220 -0.3802
12707TIP3   OH259611   1.699   5.518   5.348 -0.2815  0.4270  0.0388
12707TIP3    H159612   1.610   5.554   5.351 -0.5458 -0.0934 -1.4038
12707TIP3    H259613   1.700   5.462   5.270  0.2067 -2.5133  2.0590
12708TIP3   OH259614   5.357   5.572  14.441 -0.3676  0.2216  0.1317
12708TIP3    H159615   5.449   5.573  14.417 -0.3903 -0.5060  0.0060
12708TIP3    H259616   5.311   5.578  14.357 -0.4508 -2.5544 -0.0389
12709TIP3   OH259617   6.759   4.318   5.511 -0.3158 -0.4819 -0.6027
12709TIP3    H159618   6.842   4.321   5.558 -0.9273  1.6904  0.4302
12709TIP3    H259619   6.704   4.259   5.563 -0.3093  0.2798  0.2912
12710TIP3   OH259620   1.602   0.556   1.531 -0.1458  0.9562 -0.3881
12710TIP3    H159621   1.558   0.515   1.606  2.2532 -1.1839 -0.0558
12710TIP3    H259622   1.583   0.496   1.458  1.1114  0.7034 -0.5125
12711TIP3   OH259623   1.222   1.587   1.365 -0.3626  0.5490  0.2384
12711TIP3    H159624   1.234   1.517   1.300 -2.0818  0.8638 -0.4491
12711TIP3    H259625   1.131   1.578   1.393 -0.0705  1.3885  1.4834
12712TIP3   OH259626   6.433   2.534   6.665 -0.2745  0.4172  0.3787
12712TIP3    H159627   6.408   2.594   6.736 -1.9946  1.3139 -0.9381
12712TIP3    H259628   6.417   2.584   6.585  1.9537 -0.4681 -0.6624
12713TIP3   OH259629   4.392   3.367  14.202 -0.7878  0.4275 -0.1726
12713TIP3    H159630   4.450   3.326  14.138 -0.3602  0.8822 -0.0776
12713TIP3    H259631   4.344   3.434  14.152 -1.3156 -0.0212 -0.2748
12714TIP3   OH259632   2.425   4.724   3.054 -0.4069 -0.0204 -0.2787
12714TIP3    H159633   2.426   4.689   3.143  0.4438 -1.0994 -0.6931
12714TIP3    H259634   2.337   4.760   3.043 -1.3029 -1.9759  0.2022
12715TIP3   OH259635   5.570   5.022  10.301 -0.6127  0.4801 -0.0592
12715TIP3    H159636   5.597   4.956  10.237  1.6596  1.5966 -0.3200
12715TIP3    H259637   5.543   5.097  10.249 -1.8936  0.2620  0.2637
12716TIP3   OH259638   5.773   6.021  13.237  0.6739  0.3536 -0.0943
12716TIP3    H159639   5.778   5.935  13.195  1.5597  0.5265 -0.3593
12716TIP3    H259640   5.850   6.067  13.205 -0.4994  1.7174 -1.0003
12717TIP3   OH259641   5.907   3.143  11.964  0.2956 -0.0907 -0.5501
12717TIP3    H159642   5.815   3.147  11.935 -0.8319  1.2783  2.9821
12717TIP3    H259643   5.920   3.052  11.991 -0.1482 -0.1866 -0.6522
12718TIP3   OH259644   0.725   6.295   6.442 -0.1892  0.0789 -0.1445
12718TIP3    H159645   0.636   6.330   6.447 -0.7050 -1.2404  0.3141
12718TIP3    H259646   0.715   6.212   6.396  1.0996  0.8330 -1.8148
12719TIP3   OH259647   0.883   4.941  14.353 -0.1451 -0.5537 -0.3567
12719TIP3    H159648   0.857   4.870  14.295 -1.5780  0.4803 -0.9986
12719TIP3    H259649   0.942   4.995  14.300  0.9029 -1.2058  0.1132
12720TIP3   OH259650   2.617   0.002  14.315 -0.3322 -0.0485 -0.1908
12720TIP3    H159651   2.694   0.060  14.312 -0.7842  0.5932  0.6644
12720TIP3    H259652   2.594  -0.010  14.223 -0.7748  1.8634 -0.3539
12721TIP3   OH259653   4.302   2.985   3.087 -0.0825  0.2082  0.4173
12721TIP3    H159654   4.370   3.038   3.127 -0.3332  1.0809 -0.3000
12721TIP3    H259655   4.306   3.008   2.994 -1.3228  0.2202  0.3695
12722TIP3   OH259656   2.050   2.543   1.535 -0.0587  0.2280 -1.0600
12722TIP3    H159657   2.049   2.459   1.580 -1.2371  0.4946 -0.5653
12722TIP3    H259658   1.981   2.594   1.578  0.5873  1.4171 -1.4046
12723TIP3   OH259659   5.868   4.992  16.072 -0.4311  0.1598  0.0423
12723TIP3    H159660   5.956   5.020  16.097 -0.8261  1.4190  0.0605
12723TIP3    H259661   5.867   4.999  15.976 -0.2276 -0.7038 -0.0194
12724TIP3   OH259662   4.473   4.340   0.753  0.7584 -0.2987  0.3893
12724TIP3    H159663   4.518   4.293   0.682 -0.6243 -1.9374  0.5426
12724TIP3    H259664   4.380   4.330   0.732  0.4015  0.9360  1.3645
12725TIP3   OH259665   6.282   5.332   0.698  0.1028 -0.2523 -0.6120
12725TIP3    H159666   6.268   5.239   0.717  0.7961 -0.2543 -0.1012
12725TIP3    H259667   6.200   5.361   0.658 -0.5380 -0.7930  0.3052
12726TIP3   OH259668   5.904   2.049  11.330  0.0660  0.1472 -0.2021
12726TIP3    H159669   5.881   2.142  11.332  2.0987  0.6526  2.4863
12726TIP3    H259670   5.983   2.045  11.276  0.9621  0.2354  1.0956
12727TIP3   OH259671   6.481   3.310  15.964 -0.5738  0.3862  0.1626
12727TIP3    H159672   6.525   3.380  15.916 -0.3605 -0.4848 -0.9063
12727TIP3    H259673   6.521   3.312  16.051  1.3808 -0.1792 -0.6882
12728TIP3   OH259674   2.154   6.330  12.063 -0.3146 -0.3802  0.0396
12728TIP3    H159675   2.183   6.288  11.982 -0.0733 -1.7055  0.8187
12728TIP3    H259676   2.062   6.351  12.046 -0.1286 -0.1832 -0.7698
12729TIP3   OH259677   4.603   2.944  13.552 -0.2200 -0.3554 -0.7270
12729TIP3    H159678   4.588   3.031  13.514  3.2566  1.2827  1.4018
12729TIP3    H259679   4.694   2.925  13.531  0.7336 -0.9935  3.5976
12730TIP3   OH259680   0.487   0.265  14.694 -0.4035  0.1774 -0.2166
12730TIP3    H159681   0.441   0.282  14.776 -1.7746 -0.0947 -0.9079
12730TIP3    H259682   0.510   0.173  14.698 -0.9437  0.0339 -0.3623
12731TIP3   OH259683   3.860   4.448   3.899  0.0681 -0.5531  0.5158
12731TIP3    H159684   3.885   4.459   3.808 -1.1420 -0.7531  0.1433
12731TIP3    H259685   3.920   4.381   3.932  0.1852 -0.8492 -0.2770
12732TIP3   OH259686   1.505   1.367  15.450 -0.1564  0.5528  0.3594
12732TIP3    H159687   1.539   1.290  15.403 -0.6076 -0.7299  2.0677
12732TIP3    H259688   1.578   1.397  15.504 -1.1911 -1.2931  2.8943
12733TIP3   OH259689   6.540   0.865   3.431  0.1364 -0.6593  0.2543
12733TIP3    H159690   6.595   0.897   3.502 -0.7396  2.0591 -0.2284
12733TIP3    H259691   6.451   0.868   3.466 -0.2357  0.1151 -0.7333
12734TIP3   OH259692   0.164   3.712  15.724 -0.4203  0.5008  0.0296
12734TIP3    H159693   0.090   3.770  15.742 -0.7964  0.0435 -0.0031
12734TIP3    H259694   0.126   3.641  15.672 -0.4830 -1.0172  2.0558
12735TIP3   OH259695   1.071   2.772  10.842 -0.3679 -0.0628 -0.2732
12735TIP3    H159696   1.022   2.739  10.767 -1.5600  1.9899 -0.4224
12735TIP3    H259697   1.091   2.694  10.893 -2.2651 -1.1403 -1.1183
12736TIP3   OH259698   1.732   4.928   4.112 -0.3759  0.0637 -0.3210
12736TIP3    H159699   1.827   4.938   4.111 -0.4482  0.7441 -0.6453
12736TIP3    H259700   1.704   4.973   4.192 -0.2501 -1.8340  0.8183
12737TIP3   OH259701   1.374   3.588  16.944 -0.4206 -0.4610  0.2676
12737TIP3    H159702   1.347   3.590  16.852  0.7979  0.8683 -0.0829
12737TIP3    H259703   1.365   3.679  16.974  1.6374 -0.3691  0.7077
12738TIP3   OH259704   0.814   6.776  16.724  0.0324  0.2670 -0.3567
12738TIP3    H159705   0.863   6.696  16.702  0.9307  0.9110 -0.7218
12738TIP3    H259706   0.860   6.812  16.800  0.3492  1.0711 -0.9259
12739TIP3   OH259707   1.313   4.340   0.695  0.6308 -0.2025 -0.1671
12739TIP3    H159708   1.292   4.364   0.785 -1.4447 -1.5372 -0.2428
12739TIP3    H259709   1.368   4.262   0.702  0.3418 -0.3966 -0.0451
12740TIP3   OH259710   2.651   2.424  14.522  1.3466  0.5425  0.4952
12740TIP3    H159711   2.629   2.333  14.502  1.1104  0.7896 -0.3884
12740TIP3    H259712   2.567   2.464  14.546  1.3954  0.6178  0.5414
12741TIP3   OH259713   3.705   3.744  13.328 -0.7377 -0.0528  0.1059
12741TIP3    H159714   3.683   3.779  13.414 -1.4399  0.4758 -0.2837
12741TIP3    H259715   3.647   3.790  13.267  2.6446  2.7238 -1.1927
12742TIP3   OH259716   6.336   0.299  16.874 -0.2334  0.1142 -0.3619
12742TIP3    H159717   6.408   0.316  16.814  1.0151 -0.4412  0.9492
12742TIP3    H259718   6.285   0.230  16.831  1.5480 -1.4348 -0.1072
12743TIP3   OH259719   6.398   5.721   0.196 -0.2267 -0.5012 -0.1538
12743TIP3    H159720   6.396   5.638   0.243  0.6769 -0.3235  0.2016
12743TIP3    H259721   6.475   5.767   0.230 -2.1767  1.6004  1.5566
12744TIP3   OH259722   4.299   0.475   4.143  0.2527 -0.3604  0.1433
12744TIP3    H159723   4.345   0.546   4.099  0.4001 -0.8880 -0.5679
12744TIP3    H259724   4.368   0.413   4.167  0.1311 -0.2426  0.8104
12745TIP3   OH259725   1.986   5.342   1.674  0.0851  0.0162 -0.4484
12745TIP3    H159726   2.025   5.392   1.602 -0.2455  1.1407  0.1308
12745TIP3    H259727   1.941   5.270   1.632 -0.4682  0.9123 -1.4159
12746TIP3   OH259728   2.200   4.111   4.360  0.5833 -0.4016  0.5313
12746TIP3    H159729   2.265   4.137   4.295  0.9913  0.1352  1.1613
12746TIP3    H259730   2.246   4.050   4.417 -0.2933 -2.3542 -0.7844
12747TIP3   OH259731   0.063   1.930   4.694 -0.3320  0.3530  0.3514
12747TIP3    H159732  -0.002   1.904   4.760 -1.2979  0.7241 -0.4457
12747TIP3    H259733   0.145   1.891   4.725 -1.4418 -2.3509  0.0039
12748TIP3   OH259734   0.695   2.632   4.830  0.1298  0.3683 -0.1463
12748TIP3    H159735   0.615   2.600   4.788  1.2385 -0.5167 -1.6510
12748TIP3    H259736   0.724   2.560   4.886  0.7301  0.0329 -0.8619
12749TIP3   OH259737   2.252   6.391  12.922  0.5756 -0.3218  0.1764
12749TIP3    H159738   2.215   6.311  12.960 -1.5768  0.3434 -0.4550
12749TIP3    H259739   2.233   6.459  12.987  0.7703  0.0032 -0.1100
12750TIP3   OH259740   6.796   4.902  16.428  0.1249  0.4045 -0.9325
12750TIP3    H159741   6.841   4.943  16.354  1.0564 -0.1260 -0.6655
12750TIP3    H259742   6.757   4.823  16.391  1.4601 -0.3993 -0.6389
12751TIP3   OH259743   4.183   1.107  11.940  0.3267 -0.5446  0.3614
12751TIP3    H159744   4.199   1.030  11.993 -2.4540 -0.9174  0.7596
12751TIP3    H259745   4.219   1.180  11.990 -1.6180 -0.9789  2.4607
12752TIP3   OH259746   3.952   0.816   2.405 -0.7240 -0.1619 -0.4271
12752TIP3    H159747   4.044   0.801   2.425 -1.1858 -5.5194 -1.4104
12752TIP3    H259748   3.910   0.823   2.491  0.3425  0.1104  0.0743
12753TIP3   OH259749   2.532   4.505   4.862  0.4724  0.0265  0.6066
12753TIP3    H159750   2.474   4.466   4.796 -0.4399  0.2954  1.2445
12753TIP3    H259751   2.483   4.498   4.944  1.4107  0.1209  1.1832
12754TIP3   OH259752   3.527   3.935  10.702 -0.0991  0.1153 -0.0589
12754TIP3    H159753   3.450   3.959  10.752 -0.6642 -0.9405 -0.4104
12754TIP3    H259754   3.527   3.839  10.701  1.8158  0.0691  0.8591
12755TIP3   OH259755   6.231   6.093  12.285  0.3362 -0.0395 -0.3218
12755TIP3    H159756   6.279   6.175  12.301 -0.2927  0.0378  1.2310
12755TIP3    H259757   6.259   6.066  12.197  1.4146  1.2428 -0.3912
12756TIP3   OH259758   3.583   4.204  11.888 -0.3022  0.0229 -0.5189
12756TIP3    H159759   3.553   4.265  11.821 -0.4153 -0.2782 -0.7449
12756TIP3    H259760   3.584   4.255  11.968 -0.9092  0.1809 -0.6090
12757TIP3   OH259761   4.468   3.428   1.311  0.2378 -0.5641 -0.3370
12757TIP3    H159762   4.443   3.485   1.239  0.0913  1.4862  1.3054
12757TIP3    H259763   4.548   3.467   1.346 -0.2520 -0.9616  1.2539
12758TIP3   OH259764   5.588   3.351  14.887  0.2132 -0.3510 -0.3033
12758TIP3    H159765   5.500   3.359  14.923  0.3940 -0.8178  0.2644
12758TIP3    H259766   5.644   3.343  14.964  0.6677 -0.8205 -0.6793
12759TIP3   OH259767   0.173   1.548  16.406 -0.0764 -0.7092  0.0950
12759TIP3    H159768   0.259   1.525  16.371  0.2410  1.4193 -0.5779
12759TIP3    H259769   0.133   1.464  16.429  1.0064 -1.9447 -2.3465
12760TIP3   OH259770   6.179   1.005   1.144  0.4167  0.2861 -0.3424
12760TIP3    H159771   6.256   1.063   1.144  0.0801  0.7531 -1.6025
12760TIP3    H259772   6.104   1.065   1.150  0.1353 -0.1636  0.8093
12761TIP3   OH259773   1.767   6.023  16.167 -0.5458  0.2258 -0.0276
12761TIP3    H159774   1.847   6.043  16.216 -0.7086 -0.2706  0.4538
12761TIP3    H259775   1.795   5.965  16.096 -0.3343  0.8114 -0.4214
12762TIP3   OH259776   3.962   2.722  14.115 -0.4858  0.5674 -0.3617
12762TIP3    H159777   3.914   2.642  14.135  0.5244  0.1729  0.5238
12762TIP3    H259778   3.944   2.738  14.023 -0.5909 -0.7555 -0.5843
12763TIP3   OH259779   6.438   1.790  13.032  0.5284  0.3963  0.3133
12763TIP3    H159780   6.505   1.761  13.094  0.6577 -0.3311 -0.1543
12763TIP3    H259781   6.381   1.713  13.022 -1.3430  1.5270  1.9997
12764TIP3   OH259782   1.780   3.152   0.349 -0.4610  0.0573 -0.2943
12764TIP3    H159783   1.771   3.247   0.353 -2.0616 -0.0976 -0.0210
12764TIP3    H259784   1.746   3.121   0.433  0.6016 -0.7332 -0.1359
12765TIP3   OH259785   2.637   4.160   4.104 -0.6292  0.0230  0.0213
12765TIP3    H159786   2.656   4.150   4.197 -0.8756  0.8594  0.1696
12765TIP3    H259787   2.717   4.132   4.059  0.7676  2.9050  0.6131
12766TIP3   OH259788   1.874   6.745  12.830  0.5917  0.8105  0.2641
12766TIP3    H159789   1.801   6.797  12.795  0.0333  0.1727  0.4695
12766TIP3    H259790   1.908   6.797  12.902 -1.8632 -0.4264  2.4090
12767TIP3   OH259791   0.853   4.179  17.255 -0.2031  0.1786  0.4709
12767TIP3    H159792   0.768   4.139  17.241  0.3072 -1.1198  0.9260
12767TIP3    H259793   0.888   4.134  17.333  0.3672  1.5626  1.0428
12768TIP3   OH259794   0.774   4.536  12.877  0.3220 -1.0331  0.6738
12768TIP3    H159795   0.745   4.613  12.926 -0.4725 -0.2112 -1.0384
12768TIP3    H259796   0.710   4.526  12.807  2.8456 -0.5468 -1.7990
12769TIP3   OH259797   1.594   4.997  12.806 -0.2025 -0.7047 -0.3544
12769TIP3    H159798   1.637   5.018  12.724  1.1739  0.3355  0.6148
12769TIP3    H259799   1.563   5.081  12.840 -0.6212 -1.1033  0.2688
12770TIP3   OH259800   5.178   4.752  12.241  0.4659 -0.2884  0.1360
12770TIP3    H159801   5.261   4.793  12.267 -0.7460  0.6499  2.7533
12770TIP3    H259802   5.130   4.821  12.195  1.2623 -0.9372 -1.6874
12771TIP3   OH259803   1.494   1.033   4.016  0.0341 -0.0434  0.3956
12771TIP3    H159804   1.555   1.042   4.089  0.3270 -0.8864  0.2525
12771TIP3    H259805   1.451   0.949   4.031  0.1613 -0.2586 -0.4502
12772TIP3   OH259806   2.269   4.364  16.889  0.3427  0.0924 -0.4921
12772TIP3    H159807   2.257   4.304  16.963  0.5877 -1.1896 -1.4919
12772TIP3    H259808   2.268   4.451  16.929  2.3508 -0.6623  1.2711
12773TIP3   OH259809   3.749   3.411  16.470 -0.6478  0.4534  0.0906
12773TIP3    H159810   3.689   3.339  16.486  0.8122 -0.5048  1.4049
12773TIP3    H259811   3.758   3.454  16.555  1.6868 -0.3477  0.2845
12774TIP3   OH259812   2.704   0.425  10.562 -0.6930 -0.2658  0.3898
12774TIP3    H159813   2.621   0.456  10.599 -0.1087  3.1060 -0.9010
12774TIP3    H259814   2.686   0.414  10.469  0.6374  1.9795 -0.1771
12775TIP3   OH259815   5.729   4.787  13.107 -0.0179  0.4813 -0.1174
12775TIP3    H159816   5.802   4.843  13.082  1.6699 -1.2543  0.7565
12775TIP3    H259817   5.760   4.698  13.090 -1.5339 -0.3490  1.2424
12776TIP3   OH259818   1.164   3.217   5.718 -0.1446  0.0706  0.3189
12776TIP3    H159819   1.166   3.123   5.700  1.1233  0.2915 -0.8044
12776TIP3    H259820   1.079   3.232   5.760 -0.4275 -1.5412  0.3495
12777TIP3   OH259821   0.451   2.292  17.165 -0.2361 -0.6947  0.7769
12777TIP3    H159822   0.481   2.331  17.083 -0.6483  0.4993  1.1707
12777TIP3    H259823   0.357   2.310  17.167 -0.0453  0.2676  2.0007
12778TIP3   OH259824   5.128   1.297  12.101 -0.2677 -0.0636 -0.3995
12778TIP3    H159825   5.213   1.307  12.058 -0.5130  1.3103 -0.6041
12778TIP3    H259826   5.129   1.364  12.170 -1.3558  0.2588 -0.6956
12779TIP3   OH259827   0.406   6.785  15.673  0.5876  0.9945 -0.1387
12779TIP3    H159828   0.360   6.717  15.623  0.5821  0.1702  0.9634
12779TIP3    H259829   0.434   6.848  15.607  1.5468 -0.6179 -1.3090
12780TIP3   OH259830   3.288   5.861  12.914  0.2992  0.6196 -0.3227
12780TIP3    H159831   3.339   5.862  12.995  0.6018 -0.9674 -0.4880
12780TIP3    H259832   3.275   5.954  12.893 -1.1745  1.0633  2.3957
12781TIP3   OH259833   0.328   1.646   1.298  0.1747 -0.2881  0.2455
12781TIP3    H159834   0.255   1.661   1.357 -1.7432  0.5108 -2.2458
12781TIP3    H259835   0.372   1.731   1.292 -1.2215  0.3415 -1.4965
12782TIP3   OH259836   5.286   6.535   5.811  0.0502 -0.5664  0.2931
12782TIP3    H159837   5.333   6.603   5.860 -0.3804 -0.0651  0.0184
12782TIP3    H259838   5.244   6.482   5.879  0.6182 -0.7288  0.5199
12783TIP3   OH259839   6.598   5.378   4.590 -0.1779 -0.2182 -0.2011
12783TIP3    H159840   6.600   5.444   4.659  0.0311  2.0495 -2.3152
12783TIP3    H259841   6.534   5.313   4.620  0.6625  0.1692  2.5670
12784TIP3   OH259842   3.632   5.855  11.597  0.2496  0.6536 -0.1337
12784TIP3    H159843   3.559   5.883  11.651  0.9486  2.8485 -0.2869
12784TIP3    H259844   3.661   5.772  11.636 -0.5512  1.1741  1.6002
12785TIP3   OH259845   3.788   2.172   4.571  0.0359 -0.0415  0.0846
12785TIP3    H159846   3.855   2.128   4.518 -0.7913 -0.6296 -0.4877
12785TIP3    H259847   3.715   2.111   4.572 -0.6601  0.7934  0.3426
12786TIP3   OH259848   2.926   3.677  12.546  0.0822 -0.4525 -0.5352
12786TIP3    H159849   2.997   3.667  12.610  0.8670  1.0493 -1.1182
12786TIP3    H259850   2.865   3.739  12.587  0.3279  0.1123 -1.0068
12787TIP3   OH259851   4.220   1.480  16.859 -0.8808  0.0436  0.2888
12787TIP3    H159852   4.241   1.479  16.952 -0.9191  1.7212  0.3367
12787TIP3    H259853   4.303   1.466  16.815 -0.9626 -1.3829  0.5792
12788TIP3   OH259854   3.062   2.851   4.529  0.0559  0.0763  0.6742
12788TIP3    H159855   3.061   2.826   4.437  1.1639 -1.4059  1.0560
12788TIP3    H259856   3.022   2.777   4.575 -2.6069  1.7438  1.1956
12789TIP3   OH259857   1.754   4.018  12.114  0.1931  0.0847  0.4985
12789TIP3    H159858   1.846   4.008  12.141  0.8571  1.8173 -0.9986
12789TIP3    H259859   1.724   4.096  12.161 -0.2048  0.1282  0.1742
12790TIP3   OH259860   3.425   3.633  11.772 -0.9007 -0.2845 -0.3194
12790TIP3    H159861   3.356   3.663  11.712 -0.9141 -2.9540 -1.7494
12790TIP3    H259862   3.498   3.692  11.756 -1.7087  0.4752 -1.2878
12791TIP3   OH259863   0.638   3.775  13.804  0.6230  0.7800 -0.4850
12791TIP3    H159864   0.602   3.860  13.830  2.6083  1.5048  0.0240
12791TIP3    H259865   0.568   3.712  13.820 -1.0665  2.3871 -1.3595
12792TIP3   OH259866   1.131   4.492   6.296  0.4998 -0.5824 -0.0575
12792TIP3    H159867   1.139   4.586   6.278 -1.2739 -0.4335 -0.1999
12792TIP3    H259868   1.075   4.487   6.374 -1.4697 -1.5475 -1.4725
12793TIP3   OH259869   2.383   6.336   2.053 -0.5591  0.0428  0.2282
12793TIP3    H159870   2.452   6.276   2.078  0.3387  1.1928  0.5427
12793TIP3    H259871   2.424   6.422   2.053 -1.8905  0.7000  0.0487
12794TIP3   OH259872   3.361   5.462   0.243 -1.1663  0.2504  1.0622
12794TIP3    H159873   3.320   5.416   0.317 -0.3995 -0.6072  0.9630
12794TIP3    H259874   3.346   5.405   0.168  1.4122 -0.7858  1.2852
12795TIP3   OH259875   1.449   3.888   3.108  0.4572 -0.0092  0.0959
12795TIP3    H159876   1.362   3.926   3.123  0.3371  0.2836 -1.2618
12795TIP3    H259877   1.498   3.958   3.065  2.3286  0.8594  3.4650
12796TIP3   OH259878   4.726   2.749  11.682 -0.2936  0.6076 -0.0750
12796TIP3    H159879   4.765   2.808  11.618  0.2408  0.2866 -0.0404
12796TIP3    H259880   4.695   2.807  11.752  0.4333  0.8261  0.0657
12797TIP3   OH259881   5.353   2.535   1.396  0.3499 -0.4515  0.1716
12797TIP3    H159882   5.283   2.551   1.333  0.1260 -0.5203  0.4011
12797TIP3    H259883   5.350   2.609   1.456  0.0611 -0.7697  0.5539
12798TIP3   OH259884   3.518   2.976  11.788 -0.1911 -0.3800  0.0805
12798TIP3    H159885   3.480   3.025  11.716  1.3257  1.9009  0.7906
12798TIP3    H259886   3.547   3.043  11.850 -3.5508 -2.2550  3.9533
12799TIP3   OH259887   2.906   0.933   0.262 -0.0188  0.1611 -0.1008
12799TIP3    H159888   2.997   0.907   0.273 -0.4890 -1.7019 -0.4615
12799TIP3    H259889   2.857   0.878   0.323 -1.0976 -0.2095 -1.2655
12800TIP3   OH259890   5.095   5.486  15.848  0.1478  0.0821 -0.3488
12800TIP3    H159891   5.078   5.405  15.896 -0.4634  1.2636  1.4804
12800TIP3    H259892   5.012   5.506  15.804 -0.0087  0.2708  0.0358
12801TIP3   OH259893   2.613   4.417  11.278 -0.3939 -0.4556  0.7640
12801TIP3    H159894   2.673   4.465  11.335 -1.3748  1.1918  0.4444
12801TIP3    H259895   2.665   4.346  11.241  1.8345  1.9309 -0.8351
12802TIP3   OH259896   6.597   1.413  12.893 -0.5271 -0.0656 -0.2634
12802TIP3    H159897   6.622   1.411  12.801  0.7453  0.6837  0.0614
12802TIP3    H259898   6.561   1.326  12.910  2.9164 -1.6077 -0.4539
12803TIP3   OH259899   4.566   6.362   0.215 -0.3796 -0.2677  0.5178
12803TIP3    H159900   4.606   6.416   0.147 -0.6819 -0.0012  0.5506
12803TIP3    H259901   4.639   6.313   0.253 -0.5032 -2.0130 -1.4112
12804TIP3   OH259902   4.603   0.981  12.265 -0.3439  0.5588  0.6096
12804TIP3    H159903   4.597   1.071  12.297  0.8655  0.3606  1.4258
12804TIP3    H259904   4.547   0.930  12.323 -0.2243  0.6249  0.7815
12805TIP3   OH259905   6.393   3.849  13.412 -0.1121  0.5844 -0.2841
12805TIP3    H159906   6.343   3.773  13.442 -0.8375  1.2638  0.2613
12805TIP3    H259907   6.448   3.872  13.487 -0.3557  0.9740 -0.2209
12806TIP3   OH259908   4.806   0.311   3.748 -0.5552 -0.8675  1.0244
12806TIP3    H159909   4.847   0.248   3.689 -2.0712 -1.5029  0.6401
12806TIP3    H259910   4.864   0.312   3.825  1.2681 -0.2397 -0.3236
12807TIP3   OH259911   1.738   3.074   1.612  0.1755  0.6507  0.2130
12807TIP3    H159912   1.701   3.035   1.691  0.2180  0.0769 -0.0443
12807TIP3    H259913   1.791   3.147   1.644 -1.0449  1.3891  0.5953
12808TIP3   OH259914   4.836   4.953  11.149 -0.4943 -0.1173 -0.6952
12808TIP3    H159915   4.908   4.974  11.090  0.9981  0.5317  1.2988
12808TIP3    H259916   4.795   4.875  11.111  2.4184 -1.6210 -0.8935
12809TIP3   OH259917   3.465   2.963   4.076  0.2832 -0.0988 -0.1818
12809TIP3    H159918   3.472   2.949   3.981  2.3218 -1.7129  0.1871
12809TIP3    H259919   3.553   2.987   4.104 -0.2617  0.1825  1.3664
12810TIP3   OH259920   4.863   0.210   4.952  0.3538 -0.0111 -0.0401
12810TIP3    H159921   4.937   0.272   4.951 -0.6644  1.2281 -0.2207
12810TIP3    H259922   4.823   0.222   5.038  0.0822 -0.3481 -0.1195
12811TIP3   OH259923   1.358   0.674   1.423  1.1700 -0.1075 -0.5362
12811TIP3    H159924   1.346   0.748   1.363  1.0021 -2.4550 -3.5191
12811TIP3    H259925   1.452   0.673   1.442  1.4520 -0.1783 -1.9113
12812TIP3   OH259926   0.551   4.916   2.701  0.5570 -0.0199  0.5677
12812TIP3    H159927   0.600   4.977   2.646 -1.2863 -0.5696 -1.7518
12812TIP3    H259928   0.515   4.971   2.770 -0.0030  1.3071 -0.7502
12813TIP3   OH259929   0.781   4.825   2.797 -0.9494 -0.4607  0.3357
12813TIP3    H159930   0.701   4.778   2.773 -3.0713  2.6716  1.0681
12813TIP3    H259931   0.766   4.855   2.886  1.3105 -0.2988  0.7043
12814TIP3   OH259932   0.860   4.004   0.179  0.1948 -0.3967 -0.3280
12814TIP3    H159933   0.909   4.049   0.247  0.5933 -0.7469 -0.3818
12814TIP3    H259934   0.769   4.007   0.209 -0.0303  1.8531 -1.0898
12815TIP3   OH259935   0.515   2.285  14.600 -0.4052  0.7519 -0.4228
12815TIP3    H159936   0.561   2.369  14.591 -0.8839  1.2954  1.9058
12815TIP3    H259937   0.558   2.241  14.673 -0.1264 -1.0857 -1.6580
12816TIP3   OH259938   4.395   6.068   2.282 -0.0744 -0.8843 -0.3945
12816TIP3    H159939   4.380   6.138   2.218  0.7782  2.1450  2.5800
12816TIP3    H259940   4.311   6.057   2.326  0.2148 -0.6454  0.2134
12817TIP3   OH259941   3.481   4.675  16.133  0.4542 -0.2700  0.6470
12817TIP3    H159942   3.439   4.627  16.062 -1.4188  1.0952  0.7905
12817TIP3    H259943   3.516   4.754  16.091 -0.5410  0.4751  1.1867
12818TIP3   OH259944   3.066   0.537   2.094  0.5828  0.2473 -0.3939
12818TIP3    H159945   3.123   0.504   2.164 -0.2578 -0.3966 -0.0190
12818TIP3    H259946   3.113   0.516   2.014  1.8982  1.6216 -0.0149
12819TIP3   OH259947   0.792   2.903   3.493 -0.3344  0.6841  0.2004
12819TIP3    H159948   0.704   2.939   3.483 -0.7134 -0.2182  0.2753
12819TIP3    H259949   0.821   2.936   3.578  0.2272  2.7053 -0.7413
12820TIP3   OH259950   0.814   5.212  11.733 -0.5369 -0.4166 -0.1579
12820TIP3    H159951   0.840   5.158  11.659  1.8030  0.4246  0.0277
12820TIP3    H259952   0.835   5.301  11.707 -2.4012  0.1974  0.3794
12821TIP3   OH259953   6.066   4.691   4.635  0.4632  0.0128 -0.4252
12821TIP3    H159954   5.984   4.700   4.683 -0.2549 -0.4358 -1.5434
12821TIP3    H259955   6.130   4.739   4.687  0.0697 -1.8110  1.8569
12822TIP3   OH259956   2.040   4.669  11.638 -0.0995  0.2426 -0.5093
12822TIP3    H159957   1.957   4.625  11.616 -0.0923 -0.0989  0.1527
12822TIP3    H259958   2.019   4.762  11.634 -0.6133  0.1520  0.0228
12823TIP3   OH259959   1.142   4.788   2.060  0.2788  0.6219  1.0368
12823TIP3    H159960   1.069   4.810   2.002  2.0858 -1.1391 -2.0410
12823TIP3    H259961   1.195   4.868   2.064  0.0369  0.8118  0.4147
12824TIP3   OH259962   2.981   5.618  14.231  0.1922  0.4518  0.0025
12824TIP3    H159963   2.908   5.665  14.272  0.1575  0.1253  0.3227
12824TIP3    H259964   2.948   5.529  14.219  0.6316  0.2272  0.4136
12825TIP3   OH259965   2.656   4.966   1.647  0.0848  0.4192 -0.2059
12825TIP3    H159966   2.592   4.951   1.579 -1.0261  0.1255  0.8898
12825TIP3    H259967   2.661   5.061   1.656  0.7333  0.4763 -1.1583
12826TIP3   OH259968   6.755   0.669  12.886  0.0241  0.3543 -0.0653
12826TIP3    H159969   6.725   0.752  12.925  0.0370 -0.5819  2.0197
12826TIP3    H259970   6.798   0.624  12.959 -2.0398 -2.5005 -0.5599
12827TIP3   OH259971   6.484   0.663  12.112  0.0958  0.9866  0.4951
12827TIP3    H159972   6.477   0.741  12.056 -1.2468  2.0293  2.0661
12827TIP3    H259973   6.464   0.590  12.053  1.6320  1.7753 -1.0659
12828TIP3   OH259974   1.752   4.716   4.439  0.3329  0.4412 -0.2329
12828TIP3    H159975   1.824   4.656   4.424 -0.4885 -0.6747  0.2672
12828TIP3    H259976   1.683   4.686   4.380 -0.0409  0.9674 -0.0649
12829TIP3   OH259977   5.387   1.808   4.493  0.0683  0.6541 -0.3498
12829TIP3    H159978   5.333   1.876   4.533  1.6225  1.5570  0.2541
12829TIP3    H259979   5.477   1.840   4.503  0.6723 -0.4400 -2.0481
12830TIP3   OH259980   5.299   1.564   4.654 -0.5879 -0.9152 -0.1032
12830TIP3    H159981   5.358   1.490   4.637  1.7549  0.1608  2.9235
12830TIP3    H259982   5.328   1.632   4.593 -1.9908 -2.0515 -2.0809
12831TIP3   OH259983   0.149   2.169  12.523  0.0520  0.1796  0.5204
12831TIP3    H159984   0.203   2.090  12.512  1.1251  0.6638  2.1136
12831TIP3    H259985   0.062   2.136  12.544  0.4113 -0.5852  0.8305
12832TIP3   OH259986   4.413   6.794   3.757  0.5918  0.3816  0.2053
12832TIP3    H159987   4.482   6.805   3.692  0.7667  0.2844  0.3753
12832TIP3    H259988   4.421   6.870   3.815  0.6013  0.3327  0.2680
12833TIP3   OH259989   6.800   5.564  10.835 -0.2115 -0.0089 -0.1709
12833TIP3    H159990   6.761   5.618  10.765 -0.8642 -0.1303  0.0969
12833TIP3    H259991   6.868   5.620  10.873  0.5587 -0.1478 -1.2841
12834TIP3   OH259992   1.948   4.922  11.635  0.2017  0.3147  0.0807
12834TIP3    H159993   1.962   5.005  11.682 -1.6917  1.1549 -0.7703
12834TIP3    H259994   1.987   4.937  11.549  1.1351 -0.2017  0.4115
12835TIP3   OH259995   0.427   6.358   4.758  0.3598  0.3752 -0.2671
12835TIP3    H159996   0.403   6.450   4.749 -0.6578 -0.0623 -2.2634
12835TIP3    H259997   0.343   6.311   4.756  0.9636 -0.6956 -0.9897
12836TIP3   OH259998   0.382   2.691   3.727 -0.0106  0.0283 -0.3189
12836TIP3    H159999   0.456   2.708   3.668  0.0429 -0.7199 -0.4736
12836TIP3    H260000   0.414   2.623   3.786 -0.3530  0.1761  0.0326
12837TIP3   OH260001   3.884   2.091   5.495  0.4028 -0.2270  0.0915
12837TIP3    H160002   3.910   2.001   5.474  0.0710 -0.5187  0.9198
12837TIP3    H260003   3.910   2.102   5.586 -2.0574 -0.4052  0.8488
12838TIP3   OH260004   1.763   2.068  17.072  0.5472 -0.5170  0.4426
12838TIP3    H160005   1.734   2.085  17.161 -2.5647 -3.0456 -0.0088
12838TIP3    H260006   1.727   2.141  17.021 -1.1729 -1.2450  0.6139
12839TIP3   OH260007   1.815   0.375  15.924 -0.3437  0.0263 -0.2822
12839TIP3    H160008   1.878   0.303  15.934  1.0727  1.1228 -1.1435
12839TIP3    H260009   1.734   0.332  15.899 -0.0153 -1.4450  1.0472
12840TIP3   OH260010   1.434   5.031  14.483 -0.6943  0.1360  0.2763
12840TIP3    H160011   1.388   5.114  14.479 -1.3253 -0.2242  0.0744
12840TIP3    H260012   1.519   5.048  14.441 -1.6557  0.1120 -1.7055
12841TIP3   OH260013   2.140   6.510   2.046  0.1750  0.4526  0.1589
12841TIP3    H160014   2.213   6.485   2.103  0.3662  1.5305  0.3922
12841TIP3    H260015   2.138   6.442   1.979  0.8184 -0.0808  0.6717
12842TIP3   OH260016   2.181   6.346   6.527 -0.1717 -0.2950 -0.6435
12842TIP3    H160017   2.257   6.393   6.562  0.3841 -0.5645 -1.4699
12842TIP3    H260018   2.110   6.411   6.528  0.0022 -0.1048  0.3382
12843TIP3   OH260019   0.396   4.240  15.086 -0.3884 -0.9124 -0.1179
12843TIP3    H160020   0.407   4.335  15.075 -0.3344 -1.0316 -1.1463
12843TIP3    H260021   0.306   4.224  15.058  0.0112 -1.3444 -1.1806
12844TIP3   OH260022   0.456   1.003   4.688 -0.1296  0.1390 -0.6705
12844TIP3    H160023   0.494   0.919   4.714  0.4564 -0.1449 -2.3888
12844TIP3    H260024   0.521   1.068   4.716 -0.6072  0.0298  0.7078
12845TIP3   OH260025   6.079   4.185  12.898 -0.0780  0.0746 -0.0708
12845TIP3    H160026   6.098   4.275  12.873 -0.0624 -0.0961 -0.6792
12845TIP3    H260027   6.087   4.135  12.816 -0.4273 -0.4231  0.1980
12846TIP3   OH260028   3.324   6.131   4.551 -0.5597 -0.2061 -0.1989
12846TIP3    H160029   3.414   6.107   4.574  0.4589  2.0164 -1.6619
12846TIP3    H260030   3.306   6.210   4.603 -1.7627 -0.7816  0.2723
12847TIP3   OH260031   2.993   0.090   3.672 -0.0518 -0.1762 -0.7271
12847TIP3    H160032   2.925   0.079   3.605 -0.2860 -1.7287 -0.2543
12847TIP3    H260033   2.965   0.167   3.722 -1.4621 -0.7721 -0.5661
12848TIP3   OH260034   6.267   3.280   6.442 -0.3837 -0.7597  0.1917
12848TIP3    H160035   6.235   3.286   6.532  0.0464 -0.8448  0.3532
12848TIP3    H260036   6.309   3.365   6.426 -0.5654 -0.6995  0.0300
12849TIP3   OH260037   2.641   1.465   4.998 -0.4883  0.2907  0.1495
12849TIP3    H160038   2.711   1.403   4.979 -1.9364 -1.2371 -0.3226
12849TIP3    H260039   2.608   1.491   4.912  0.6725  2.4375  0.3001
12850TIP3   OH260040   1.089   1.172  11.173 -0.1908 -0.6544 -0.7691
12850TIP3    H160041   1.028   1.244  11.161 -1.0669 -1.6107 -2.2042
12850TIP3    H260042   1.104   1.137  11.085  3.5235  0.4011 -0.6598
12851TIP3   OH260043   0.133   4.378  11.924  0.3272  0.4549  0.3920
12851TIP3    H160044   0.075   4.452  11.904  0.0379  0.3034  0.6600
12851TIP3    H260045   0.084   4.301  11.897  0.7294  0.3737 -0.1106
12852TIP3   OH260046   6.161   6.011  12.591 -0.3116 -0.1965  0.6120
12852TIP3    H160047   6.162   6.008  12.495 -0.9294 -0.5471  0.6109
12852TIP3    H260048   6.168   5.919  12.618 -0.2004 -0.1053  0.8986
12853TIP3   OH260049   5.793   6.136  11.085  0.1610  0.1516 -0.5338
12853TIP3    H160050   5.803   6.079  11.008 -0.7659  1.3129 -1.5349
12853TIP3    H260051   5.761   6.219  11.049  0.9404  1.1264  0.9742
12854TIP3   OH260052   1.257   6.736   4.494 -0.5469 -0.5162  0.2009
12854TIP3    H160053   1.167   6.769   4.502  0.1580  1.3715  0.5204
12854TIP3    H260054   1.248   6.641   4.502 -2.3923 -0.2691  1.3425
12855TIP3   OH260055   3.075   2.799  12.282  0.3986 -1.2340 -0.5506
12855TIP3    H160056   3.060   2.707  12.303  0.2629 -1.1879 -0.4430
12855TIP3    H260057   3.004   2.823  12.223  0.9322 -1.4341 -1.2810
12856TIP3   OH260058   2.073   4.203   6.116  0.2986  0.0154  1.1445
12856TIP3    H160059   2.027   4.147   6.178 -1.4543  0.4707  0.2941
12856TIP3    H260060   2.086   4.286   6.163 -2.1036  0.7745  0.5329
12857TIP3   OH260061   1.744   5.345  15.245  0.3494 -0.3620  0.9167
12857TIP3    H160062   1.774   5.348  15.155  2.7335 -0.2649  1.6931
12857TIP3    H260063   1.712   5.255  15.257 -1.7304  0.1376 -0.5256
12858TIP3   OH260064   6.494   4.497  16.560  0.2478  0.3380 -0.3071
12858TIP3    H160065   6.544   4.421  16.530 -0.3332 -0.3846  0.4973
12858TIP3    H260066   6.467   4.541  16.480  0.4621 -0.4015 -0.7954
12859TIP3   OH260067   1.108   2.749  11.880 -0.7785  0.2889 -0.2717
12859TIP3    H160068   1.043   2.679  11.872  0.3335 -1.2681  3.0202
12859TIP3    H260069   1.175   2.728  11.815 -1.1866 -0.9241 -0.3136
12860TIP3   OH260070   3.635   3.179   5.653  0.3374 -0.5673 -0.5924
12860TIP3    H160071   3.579   3.241   5.699  0.8676  0.2466 -1.0381
12860TIP3    H260072   3.600   3.177   5.564  0.0537 -1.2418 -0.4716
12861TIP3   OH260073   5.434   4.535  10.922 -0.2120 -0.8177 -0.4039
12861TIP3    H160074   5.454   4.522  10.829  1.0304 -0.8073 -0.1533
12861TIP3    H260075   5.459   4.626  10.939  0.2704 -1.0432  0.1101
12862TIP3   OH260076   4.179   0.500  15.042 -0.1765 -0.5464 -0.3753
12862TIP3    H160077   4.184   0.448  15.123  1.0860 -0.2536 -0.2587
12862TIP3    H260078   4.256   0.474  14.992 -0.0294  0.5306 -0.7247
12863TIP3   OH260079   1.317   1.847   1.136 -0.0975  0.2674  0.2669
12863TIP3    H160080   1.233   1.881   1.167 -0.7428  0.2758 -1.4429
12863TIP3    H260081   1.350   1.915   1.077 -0.2787 -1.0034 -1.3268
12864TIP3   OH260082   6.123   1.547  16.662 -0.0342  0.5212 -0.5167
12864TIP3    H160083   6.206   1.596  16.664 -0.3948  1.1287  0.0098
12864TIP3    H260084   6.062   1.604  16.708 -0.4427 -0.4843  0.1968
12865TIP3   OH260085   5.732   5.139   2.710  0.3469 -0.5182  0.0708
12865TIP3    H160086   5.640   5.119   2.694  0.0908  0.6726  0.0037
12865TIP3    H260087   5.771   5.056   2.737 -1.0305 -0.7556  1.3896
12866TIP3   OH260088   4.106   3.141  13.467  0.4718 -0.3021 -0.0777
12866TIP3    H160089   4.075   3.209  13.527 -0.8825 -0.5705 -0.4752
12866TIP3    H260090   4.062   3.061  13.495  0.6065 -0.6354 -0.8027
12867TIP3   OH260091   4.815   1.269  12.998  0.0785 -0.7878  0.0352
12867TIP3    H160092   4.805   1.219  13.078  1.2258  0.6028  1.0734
12867TIP3    H260093   4.759   1.346  13.010  0.2624 -0.5699 -0.4917
12868TIP3   OH260094   5.274   5.518  12.547  0.5191  0.8125 -0.3648
12868TIP3    H160095   5.309   5.473  12.624  1.2346 -1.7146 -2.0987
12868TIP3    H260096   5.238   5.599  12.582 -2.1741 -1.7179  3.1593
12869TIP3   OH260097   3.049   0.109   4.385 -0.1376 -0.2246  0.0257
12869TIP3    H160098   3.053   0.078   4.295  2.8472 -0.7256  0.2871
12869TIP3    H260099   3.024   0.032   4.436  0.6060 -0.5573 -0.1061
12870TIP3   OH260100   0.496   6.713   3.906 -0.0762 -0.0883 -0.2851
12870TIP3    H160101   0.444   6.759   3.840  0.8223  2.1844  0.5320
12870TIP3    H260102   0.587   6.729   3.879  0.2851  0.3860  1.1698
12871TIP3   OH260103   5.350   3.254  12.073 -0.8600 -0.4209 -0.7123
12871TIP3    H160104   5.415   3.324  12.079 -0.3588 -0.9527  0.1963
12871TIP3    H260105   5.396   3.176  12.104 -1.8596 -0.8493 -0.2790
12872TIP3   OH260106   1.730   0.965   2.002 -0.2902  0.0238  0.0984
12872TIP3    H160107   1.792   1.033   2.026 -0.0316 -1.0211  2.5312
12872TIP3    H260108   1.716   0.915   2.083 -0.5518 -2.7384 -1.5769
12873TIP3   OH260109   4.463   2.221   2.673  0.3690 -0.4445 -0.8969
12873TIP3    H160110   4.505   2.213   2.587 -0.5803 -2.7672 -1.1889
12873TIP3    H260111   4.487   2.140   2.718 -0.2823  0.1414  0.5171
12874TIP3   OH260112   2.454   0.439   5.507  0.1403  0.1879 -0.6794
12874TIP3    H160113   2.384   0.487   5.462 -1.4675 -1.0153  0.4893
12874TIP3    H260114   2.490   0.501   5.570  0.3677  0.9243 -1.5263
12875TIP3   OH260115   4.664   1.822  15.497 -0.5654  0.7162 -0.6147
12875TIP3    H160116   4.601   1.874  15.546 -1.0334  0.5924 -1.0837
12875TIP3    H260117   4.742   1.819  15.553 -1.7230 -0.9569  0.9456
12876TIP3   OH260118   5.457   3.472   5.815 -0.5403  0.4567 -0.1094
12876TIP3    H160119   5.473   3.550   5.867 -0.7592 -0.1852  0.9488
12876TIP3    H260120   5.368   3.445   5.839  0.0629 -0.9296  0.6283
12877TIP3   OH260121   2.889   3.842   3.206  0.0239 -0.1247  0.1633
12877TIP3    H160122   2.890   3.914   3.268 -1.5769 -0.5319  0.7101
12877TIP3    H260123   2.801   3.844   3.169  0.5588 -0.6644 -1.1634
12878TIP3   OH260124   0.595   0.358  13.029  0.3969 -0.0928  0.3715
12878TIP3    H160125   0.535   0.369  12.956 -0.8889  2.2541  1.7513
12878TIP3    H260126   0.669   0.415  13.009 -0.7651  1.9560  1.6932
12879TIP3   OH260127   5.149   4.671   5.295  0.0750  0.2649 -0.7307
12879TIP3    H160128   5.232   4.717   5.307  0.4403 -0.4477 -0.5212
12879TIP3    H260129   5.164   4.584   5.330 -0.0998 -0.5674 -2.6688
12880TIP3   OH260130   5.095   0.739  14.241  0.1576  0.5092  1.1117
12880TIP3    H160131   5.143   0.662  14.270  2.2729  1.3661  0.0581
12880TIP3    H260132   5.003   0.715  14.249  0.7253 -0.9578  3.8565
12881TIP3   OH260133   6.461   2.319   0.361 -0.0316  0.3834 -0.7374
12881TIP3    H160134   6.465   2.280   0.273 -1.1674  0.8355 -1.0034
12881TIP3    H260135   6.533   2.383   0.362 -0.3476  0.7585 -1.5367
12882TIP3   OH260136   3.348   5.472   5.980 -0.0971 -0.0182 -0.4297
12882TIP3    H160137   3.341   5.565   5.956  0.6109 -0.8789 -4.2255
12882TIP3    H260138   3.325   5.425   5.900  0.4418 -3.1402  1.1889
12883TIP3   OH260139   0.202   4.919  15.232  0.3940 -0.4641  0.3268
12883TIP3    H160140   0.217   4.824  15.225 -0.4016 -0.5216 -0.9525
12883TIP3    H260141   0.113   4.931  15.198  0.6826  0.7991 -0.0098
12884TIP3   OH260142   6.682   2.356  14.582 -0.1539  0.0611  0.2265
12884TIP3    H160143   6.604   2.410  14.568  1.1189  2.5091  2.1378
12884TIP3    H260144   6.656   2.292  14.647 -1.2843 -0.7967 -1.0335
12885TIP3   OH260145   6.684   0.645  14.639  0.7655  0.0934  0.2045
12885TIP3    H160146   6.696   0.556  14.605 -2.7003 -0.4765  0.2771
12885TIP3    H260147   6.669   0.633  14.733  3.1117  1.0366  0.7205
12886TIP3   OH260148   6.479   3.297   5.793 -0.0385 -0.4562 -0.0340
12886TIP3    H160149   6.528   3.227   5.751 -0.4828  0.6325 -2.4825
12886TIP3    H260150   6.545   3.354   5.831  0.4085 -1.1632  0.2458
12887TIP3   OH260151   1.576   1.576   0.354  0.4425 -0.1412  0.9625
12887TIP3    H160152   1.602   1.667   0.346  2.5767 -0.4704  3.6640
12887TIP3    H260153   1.480   1.579   0.356  0.5003  2.0415  1.3780
12888TIP3   OH260154   2.300   3.412  16.780  0.1924 -0.9449 -0.4993
12888TIP3    H160155   2.317   3.320  16.761 -1.7461 -0.9542 -2.2299
12888TIP3    H260156   2.387   3.450  16.794  1.3053 -2.1882 -3.6925
12889TIP3   OH260157   1.633   4.940   5.050  0.1032 -0.1511  0.6062
12889TIP3    H160158   1.672   4.912   5.133 -3.1768 -1.8692  1.6725
12889TIP3    H260159   1.562   4.998   5.076 -1.4028 -1.2460 -0.9520
12890TIP3   OH260160   5.645   3.827   2.020  0.5285  0.4959  0.0290
12890TIP3    H160161   5.633   3.920   1.999 -0.0379  0.2126 -0.8996
12890TIP3    H260162   5.676   3.788   1.939 -2.4532 -0.7639 -0.5582
12891TIP3   OH260163   2.210   6.792  11.385 -0.6033  0.0847  0.3511
12891TIP3    H160164   2.270   6.729  11.344  0.1901 -0.3101  2.0601
12891TIP3    H260165   2.258   6.875  11.385 -1.8344  0.8695 -2.3380
12892TIP3   OH260166   5.685   5.241   0.244  0.2369  0.0183  0.2404
12892TIP3    H160167   5.708   5.240   0.152  0.1788  3.9021  0.1327
12892TIP3    H260168   5.593   5.216   0.246  0.5580 -1.2913 -0.6065
12893TIP3   OH260169   4.839   1.990   4.172 -0.3821 -0.4089  0.4135
12893TIP3    H160170   4.878   2.072   4.202  0.2088 -0.2266 -0.7882
12893TIP3    H260171   4.764   2.017   4.119 -2.4453 -0.7767  3.0928
12894TIP3   OH260172   4.353   3.793  16.391  0.7809  0.4482 -0.4349
12894TIP3    H160173   4.371   3.730  16.321 -0.4835 -0.9127  0.4385
12894TIP3    H260174   4.415   3.772  16.460  0.2913  0.0769 -0.1024
12895TIP3   OH260175   5.306   2.780   1.040  0.0063  0.4931 -0.4248
12895TIP3    H160176   5.397   2.759   1.060 -0.0445  0.9120  0.2693
12895TIP3    H260177   5.303   2.876   1.040 -0.6089  0.4840  0.4171
12896TIP3   OH260178   2.172   2.641  16.794  0.0256  0.2273 -0.6421
12896TIP3    H160179   2.154   2.674  16.706  0.0128 -1.6135 -1.3572
12896TIP3    H260180   2.209   2.554  16.780  0.1164 -0.0488  1.1698
12897TIP3   OH260181   2.186   5.092   3.782 -0.0306  0.5806  0.2949
12897TIP3    H160182   2.107   5.080   3.729  0.1633 -1.2517  0.3901
12897TIP3    H260183   2.190   5.013   3.836  1.7665  0.7650  0.4471
12898TIP3   OH260184   0.126   4.205  16.600 -0.3629  0.6570  0.0806
12898TIP3    H160185   0.033   4.190  16.620  0.0696  0.0147  1.6894
12898TIP3    H260186   0.170   4.196  16.684  1.3245 -0.2682 -0.8839
12899TIP3   OH260187   3.470   6.619   2.382  0.3496  0.0907 -0.0100
12899TIP3    H160188   3.390   6.604   2.331  0.7952  0.8055 -0.9458
12899TIP3    H260189   3.530   6.550   2.353  0.2562 -0.1245  0.3046
12900TIP3   OH260190   5.438   3.198   3.883 -0.2426 -0.3340 -0.5442
12900TIP3    H160191   5.400   3.235   3.803  0.6921  0.5770 -0.5724
12900TIP3    H260192   5.532   3.214   3.875 -0.3732  1.9791  1.8593
12901TIP3   OH260193   5.894   1.082  11.857  0.0194  0.1380 -0.2258
12901TIP3    H160194   5.973   1.072  11.804  0.9336  2.0918  0.7057
12901TIP3    H260195   5.875   1.176  11.853 -1.3125 -0.0758  0.9124
12902TIP3   OH260196   5.855   6.438   5.778 -0.4187 -0.3478  0.4583
12902TIP3    H160197   5.814   6.397   5.854 -3.2532 -0.7214 -1.1941
12902TIP3    H260198   5.907   6.368   5.738 -1.2546 -0.9484  0.4200
12903TIP3   OH260199   5.684   1.886  14.870 -0.4678  0.2818  0.0804
12903TIP3    H160200   5.606   1.880  14.925 -0.6960  0.5440 -0.2132
12903TIP3    H260201   5.698   1.980  14.858 -1.7622  0.2063 -2.1923
12904TIP3   OH260202   4.792   6.175  12.209  0.4102  0.3482 -0.0552
12904TIP3    H160203   4.852   6.214  12.145  1.0182  0.0950  0.3511
12904TIP3    H260204   4.723   6.135  12.156  1.8373 -1.3938 -0.6469
12905TIP3   OH260205   4.198   4.471   0.242 -0.4632 -0.3047  0.6079
12905TIP3    H160206   4.264   4.409   0.274  0.6029  0.2095 -0.5470
12905TIP3    H260207   4.233   4.557   0.265 -0.4427 -0.0039 -0.5437
12906TIP3   OH260208   0.649   5.944   4.797 -0.2349  0.0966 -0.3124
12906TIP3    H160209   0.667   6.037   4.780  0.4324 -0.1374 -0.8833
12906TIP3    H260210   0.596   5.945   4.877 -0.4029  0.9847 -0.4283
12907TIP3   OH260211   2.327   4.154   4.005 -0.2894  0.0267  0.4847
12907TIP3    H160212   2.328   4.064   3.971  0.7224  0.2393 -0.0519
12907TIP3    H260213   2.417   4.170   4.032  0.0092  1.6228 -1.3837
12908TIP3   OH260214   0.357   4.484  13.667  0.0178 -0.3161  0.0826
12908TIP3    H160215   0.330   4.424  13.597 -1.1111  1.2695 -0.8729
12908TIP3    H260216   0.415   4.546  13.624 -0.0311  0.1813  0.7295
12909TIP3   OH260217   6.252   1.743   5.011  0.0764  0.4239 -0.4012
12909TIP3    H160218   6.195   1.666   5.009  1.0035 -0.5070  3.5626
12909TIP3    H260219   6.194   1.816   4.992 -1.7378 -0.8546  0.0653
12910TIP3   OH260220   6.331   4.115   0.451  0.1472 -0.1773 -0.1430
12910TIP3    H160221   6.255   4.059   0.435  1.3033 -1.8004 -0.0648
12910TIP3    H260222   6.302   4.202   0.425 -1.5592 -0.8659 -0.6389
12911TIP3   OH260223   1.009   0.225   3.657 -0.2196  0.1874 -0.1448
12911TIP3    H160224   0.924   0.182   3.646  0.8653 -2.0445 -0.0369
12911TIP3    H260225   1.027   0.264   3.571 -1.3141  0.6342 -0.1840
12912TIP3   OH260226   1.121   5.082  10.964 -0.6638 -0.2746  0.1983
12912TIP3    H160227   1.099   5.002  11.012  0.4249 -0.9708 -0.4357
12912TIP3    H260228   1.071   5.076  10.882 -0.0072 -0.6667 -0.1736
12913TIP3   OH260229   6.043   4.091   4.366  0.2004  0.4045  0.0409
12913TIP3    H160230   6.113   4.084   4.302  0.3826 -0.2342  0.3043
12913TIP3    H260231   6.064   4.170   4.416 -0.0824  1.0445 -0.8466
12914TIP3   OH260232   2.012   6.512   0.424  0.0269  0.2295 -0.3945
12914TIP3    H160233   1.974   6.581   0.369 -0.7565  0.4826  0.4587
12914TIP3    H260234   1.941   6.486   0.482  0.4025 -1.1202 -0.5406
12915TIP3   OH260235   1.535   1.236  12.598  0.5451 -0.4601 -0.1350
12915TIP3    H160236   1.459   1.209  12.649 -0.2830  1.8282 -0.1016
12915TIP3    H260237   1.525   1.330  12.588  2.1247 -0.4731 -2.1968
12916TIP3   OH260238   6.035   1.353   1.835  0.3692 -0.1886  0.3943
12916TIP3    H160239   6.128   1.335   1.853  0.4838 -0.2887 -0.2952
12916TIP3    H260240   5.988   1.295   1.896  0.7529 -1.7003 -0.6977
12917TIP3   OH260241   5.227   5.694  10.310  0.3072  0.0880  0.2847
12917TIP3    H160242   5.157   5.705  10.247 -2.0413 -1.4658  2.5017
12917TIP3    H260243   5.261   5.606  10.293 -0.5145 -0.4427  1.3091
12918TIP3   OH260244   6.333   6.161   4.869 -0.3381 -0.2607  0.0666
12918TIP3    H160245   6.424   6.130   4.870 -0.3742 -0.4012  1.6299
12918TIP3    H260246   6.337   6.248   4.830  0.5654 -0.0104  0.7033
12919TIP3   OH260247   6.209   3.257   5.826  0.4404 -0.5697  0.0894
12919TIP3    H160248   6.300   3.260   5.798  0.2125 -2.2087 -0.8914
12919TIP3    H260249   6.212   3.260   5.922  1.4525  0.5170  0.0300
12920TIP3   OH260250   3.621   3.224   4.015  0.5622  0.0144  0.4574
12920TIP3    H160251   3.714   3.210   4.003  0.3626 -1.1315  0.1679
12920TIP3    H260252   3.605   3.208   4.108  0.8224  1.2800  0.7328
12921TIP3   OH260253   0.217   6.171   4.026  0.3233  0.5055 -0.2241
12921TIP3    H160254   0.273   6.151   4.101 -0.4874 -0.0875  0.2328
12921TIP3    H260255   0.242   6.259   4.000  0.3392  0.8740  1.0018
12922TIP3   OH260256   6.795   0.668  13.248 -0.0470  0.2203 -0.5068
12922TIP3    H160257   6.820   0.610  13.177 -0.7034 -0.7080  0.0103
12922TIP3    H260258   6.779   0.752  13.206  0.5151 -0.0715 -1.3161
12923TIP3   OH260259   1.821   0.657   1.920  0.3915  0.4348 -0.3494
12923TIP3    H160260   1.765   0.582   1.942 -0.8594  1.1013 -1.1783
12923TIP3    H260261   1.868   0.676   2.000 -1.0321  0.2322  0.5536
12924TIP3   OH260262   6.238   4.339   0.740  0.0995 -0.0660 -0.4519
12924TIP3    H160263   6.267   4.339   0.649  2.1390  1.0389  0.1775
12924TIP3    H260264   6.159   4.394   0.740  0.7189  0.8395 -1.3725
12925TIP3   OH260265   5.691   4.219  16.398  0.6504  0.4871  0.5963
12925TIP3    H160266   5.648   4.199  16.481 -0.7751  0.4511 -0.1428
12925TIP3    H260267   5.734   4.303  16.413  0.4609  0.4406  1.3994
12926TIP3   OH260268   0.796   0.761  12.173 -0.4467 -0.3557  0.5076
12926TIP3    H160269   0.863   0.809  12.221 -0.3220 -1.4287  1.3988
12926TIP3    H260270   0.791   0.676  12.215 -2.1624 -0.4027  0.2690
12927TIP3   OH260271   4.138   5.007  14.660 -0.6104 -0.1988 -0.2489
12927TIP3    H160272   4.139   4.956  14.741 -1.6139 -0.9057 -0.6869
12927TIP3    H260273   4.048   5.000  14.628 -0.9032  2.2387 -0.0570
12928TIP3   OH260274   0.733   0.715   5.676  0.0979  0.8205 -0.0905
12928TIP3    H160275   0.707   0.694   5.766  0.9918  0.6128  0.1173
12928TIP3    H260276   0.800   0.782   5.685  0.8433  0.1546 -0.5558
12929TIP3   OH260277   6.377   3.176  15.607  0.5364 -0.1101  0.4402
12929TIP3    H160278   6.445   3.118  15.643  1.3246  1.3758  1.3901
12929TIP3    H260279   6.295   3.140  15.641  0.8571 -1.7260 -0.4445
12930TIP3   OH260280   1.363   1.445   3.307 -0.3561 -0.0936 -0.4134
12930TIP3    H160281   1.363   1.362   3.354  3.2708  0.2816  0.3923
12930TIP3    H260282   1.294   1.497   3.349  0.5867 -0.9649  2.3025
12931TIP3   OH260283   6.570   2.629   2.477  0.0800  0.5792  0.4012
12931TIP3    H160284   6.645   2.671   2.435  1.3664 -1.7786  0.3020
12931TIP3    H260285   6.576   2.656   2.569  0.7932  0.7739  0.3011
12932TIP3   OH260286   6.657   0.902  16.135  0.6767 -0.3400  0.5525
12932TIP3    H160287   6.618   0.822  16.172  1.6591 -0.5669  1.1116
12932TIP3    H260288   6.636   0.897  16.042 -0.5206 -0.5228  0.8172
12933TIP3   OH260289   6.764   4.964   5.492 -0.7419  0.2368  0.5151
12933TIP3    H160290   6.743   4.946   5.400  1.2907  2.1525 -0.3711
12933TIP3    H260291   6.823   4.893   5.518 -2.3682 -1.0531  0.7856
12934TIP3   OH260292   0.284   1.082  11.813 -0.6652  0.3565 -0.0466
12934TIP3    H160293   0.368   1.120  11.784 -0.6907 -1.0558 -2.1123
12934TIP3    H260294   0.259   1.023  11.742 -2.1564 -1.1829  1.6939
12935TIP3   OH260295   3.788   6.794  16.335 -0.0664  0.1402  0.1447
12935TIP3    H160296   3.799   6.850  16.412  0.8427 -2.1005  1.6959
12935TIP3    H260297   3.869   6.807  16.285 -1.2876  2.7162 -1.2143
12936TIP3   OH260298   3.140   0.686  11.802  0.5908 -0.2566  0.3339
12936TIP3    H160299   3.067   0.679  11.862 -1.7605 -0.8543 -2.4655
12936TIP3    H260300   3.184   0.601  11.807 -0.1313 -0.6229  0.5319
12937TIP3   OH260301   0.023   4.358  11.497 -0.9697  0.1255 -0.3413
12937TIP3    H160302   0.032   4.404  11.414 -1.0150 -0.5919 -0.7493
12937TIP3    H260303   0.098   4.387  11.549  0.7564 -1.6988 -1.7341
12938TIP3   OH260304   0.142   3.352   0.211 -0.6050 -0.5747  0.1476
12938TIP3    H160305   0.060   3.313   0.181  0.4954  0.3127 -4.5126
12938TIP3    H260306   0.197   3.278   0.235 -2.4388 -1.2045  2.6778
12939TIP3   OH260307   6.230   2.052   3.334 -1.0307 -0.1776 -0.3135
12939TIP3    H160308   6.231   2.020   3.244  0.1470  0.6083 -0.5899
12939TIP3    H260309   6.279   1.985   3.383 -0.3788  0.1415 -0.5240
12940TIP3   OH260310   5.827   2.219  16.147  0.5414 -0.4342 -0.0347
12940TIP3    H160311   5.903   2.211  16.205  0.5685 -1.2920 -0.1850
12940TIP3    H260312   5.801   2.311  16.154 -0.0264 -0.7447  2.0485
12941TIP3   OH260313   0.164   4.193   5.732 -0.3561  0.5141 -0.5099
12941TIP3    H160314   0.202   4.140   5.801  0.4596  1.3079 -0.3289
12941TIP3    H260315   0.225   4.184   5.658 -0.0888  1.3528 -0.4048
12942TIP3   OH260316   5.997   6.066  12.820  0.1296  0.4860  0.8236
12942TIP3    H160317   6.056   6.033  12.752 -1.4594 -1.5461  0.3675
12942TIP3    H260318   6.029   6.154  12.839  1.4201  0.5860 -1.5908
12943TIP3   OH260319   5.051   5.223   6.671  0.0046  0.4142  0.6398
12943TIP3    H160320   4.959   5.198   6.678 -0.5421  2.2859  0.2020
12943TIP3    H260321   5.075   5.252   6.759  0.3911 -0.7009  0.9206
12944TIP3   OH260322   4.494   5.233   0.427  0.0502 -0.2162 -0.3308
12944TIP3    H160323   4.409   5.188   0.424  0.3725 -1.2108  2.9391
12944TIP3    H260324   4.558   5.163   0.417  0.5213 -0.2646  2.6198
12945TIP3   OH260325   0.245   1.023  13.006 -0.7267  0.1668  1.0304
12945TIP3    H160326   0.266   0.992  12.918 -0.9545  1.9047  0.3521
12945TIP3    H260327   0.161   1.068  12.996  0.8367  3.2990  1.4628
12946TIP3   OH260328   5.958   4.082   0.639  0.0844  0.7003  0.3089
12946TIP3    H160329   5.864   4.092   0.656  0.3843  1.2889  1.6372
12946TIP3    H260330   6.000   4.096   0.724  1.2819 -1.0809  0.0361
12947TIP3   OH260331   3.880   5.267  15.026  0.1108  0.6861 -0.1621
12947TIP3    H160332   3.879   5.347  14.973  1.3920  1.1391  0.4785
12947TIP3    H260333   3.900   5.197  14.963  1.7014  1.2343 -0.3009
12948TIP3   OH260334   1.088   4.730   5.804  0.0694 -0.5699 -0.2242
12948TIP3    H160335   1.175   4.719   5.841  0.2721  0.7367 -0.3187
12948TIP3    H260336   1.029   4.719   5.879  0.3638 -0.2766  0.0494
12949TIP3   OH260337   6.432   5.923   6.587  0.3494 -0.4735  0.0708
12949TIP3    H160338   6.348   5.886   6.614  0.8278  0.2383  2.6520
12949TIP3    H260339   6.435   5.907   6.492 -2.7276 -0.3699 -0.1093
12950TIP3   OH260340   4.004   0.077   5.506  0.6552 -0.2721 -0.3019
12950TIP3    H160341   3.948   0.057   5.431  1.7371 -1.0963 -0.8923
12950TIP3    H260342   4.009  -0.005   5.555  0.1808  0.1861  0.5355
12951TIP3   OH260343   2.259   0.218   5.507 -0.3790 -0.0535  0.0088
12951TIP3    H160344   2.185   0.218   5.446  0.4247 -0.1689 -0.9973
12951TIP3    H260345   2.277   0.311   5.522  0.7998  0.0297 -1.6944
12952TIP3   OH260346   2.249   0.775   1.545  0.4644 -0.6840 -0.3275
12952TIP3    H160347   2.342   0.782   1.568  0.0906 -2.7510  1.9894
12952TIP3    H260348   2.213   0.861   1.565  1.8445  0.1156 -1.1712
12953TIP3   OH260349   6.730   0.027  12.173  0.2810  0.1050  0.0282
12953TIP3    H160350   6.750   0.087  12.102 -1.9351  1.0672  0.1581
12953TIP3    H260351   6.749   0.077  12.253 -1.3662  0.6155  0.1338
12954TIP3   OH260352   1.451   3.482  16.395 -0.1749 -0.5358  0.5556
12954TIP3    H160353   1.389   3.554  16.404 -1.3546 -1.4163 -0.3495
12954TIP3    H260354   1.468   3.454  16.485  1.7925  2.0801  1.0488
12955TIP3   OH260355   3.545   2.025   3.852  0.2763  0.3715  0.3845
12955TIP3    H160356   3.594   2.032   3.770  0.9492  1.0872  0.8389
12955TIP3    H260357   3.599   1.969   3.907  0.0506  0.2719  0.5043
12956TIP3   OH260358   2.510   3.808   1.843 -0.0043 -0.5875  0.0271
12956TIP3    H160359   2.485   3.893   1.880 -0.4321 -0.1793 -1.1502
12956TIP3    H260360   2.471   3.743   1.902 -1.8158  0.0476 -0.4398
12957TIP3   OH260361   1.942   4.839  14.156 -0.1547  0.2526 -0.0833
12957TIP3    H160362   2.011   4.903  14.136 -0.3390  0.8834  1.2533
12957TIP3    H260363   1.963   4.764  14.101  1.8770  0.2548  0.6211
12958TIP3   OH260364   5.078   5.352  11.404  0.1350  0.2595 -0.7209
12958TIP3    H160365   5.135   5.304  11.463 -0.2294  2.1590  1.2498
12958TIP3    H260366   5.077   5.300  11.323  0.6656 -2.3622  0.9144
12959TIP3   OH260367   4.840   5.708  16.882 -0.2319 -0.6987  0.0798
12959TIP3    H160368   4.907   5.642  16.866 -0.9630 -1.1766 -1.1181
12959TIP3    H260369   4.766   5.681  16.827 -1.1734  0.1614  0.8890
12960TIP3   OH260370   2.230   6.277  11.803 -0.1503 -0.1175 -0.3508
12960TIP3    H160371   2.148   6.238  11.773  0.6663 -0.7746 -1.7717
12960TIP3    H260372   2.235   6.361  11.756 -0.2266  0.1260  0.0749
12961TIP3   OH260373   1.118   2.209   6.755 -0.5021  0.1401  0.0235
12961TIP3    H160374   1.174   2.263   6.810  1.7343 -0.9418 -1.1461
12961TIP3    H260375   1.143   2.119   6.775 -0.3270 -0.2927 -2.0633
12962TIP3   OH260376   5.648   0.322  12.098 -0.2820 -0.3521  0.4109
12962TIP3    H160377   5.644   0.402  12.045  0.4035 -0.8741 -0.4584
12962TIP3    H260378   5.613   0.253  12.040 -1.4008 -0.5815  1.3523
12963TIP3   OH260379   4.085   1.796   5.145 -0.6732  0.3512  0.2880
12963TIP3    H160380   4.078   1.720   5.088  1.3812  1.2084 -1.1566
12963TIP3    H260381   4.058   1.870   5.090 -0.2456  0.9783  0.9186
12964TIP3   OH260382   3.173   3.763   5.455  0.0682  0.0088 -0.2843
12964TIP3    H160383   3.266   3.784   5.459 -0.2857  1.2805  2.4126
12964TIP3    H260384   3.166   3.676   5.493  0.0210  0.4698  0.7847
12965TIP3   OH260385   5.160   4.049  15.203 -0.2536 -0.0482 -0.1580
12965TIP3    H160386   5.198   4.075  15.119 -0.5681  1.0142  0.0111
12965TIP3    H260387   5.072   4.019  15.181 -0.3502  0.2649 -0.2161
12966TIP3   OH260388   4.080   0.317  16.386  0.0568  0.0312  0.2421
12966TIP3    H160389   4.012   0.356  16.331  0.4632 -1.2356 -1.1746
12966TIP3    H260390   4.141   0.388  16.403  0.4705  0.1979 -1.8145
12967TIP3   OH260391   5.485   1.361  16.051 -0.0941 -0.3474 -0.3191
12967TIP3    H160392   5.394   1.335  16.035 -0.3380  0.0962  0.3468
12967TIP3    H260393   5.485   1.395  16.140  0.4898  0.7651 -0.7379
12968TIP3   OH260394   1.823   0.065  14.724  0.1819 -0.2204  0.5205
12968TIP3    H160395   1.844  -0.007  14.783  2.1818 -0.7602 -0.8099
12968TIP3    H260396   1.730   0.055  14.706  0.0487 -1.3820  1.7800
12969TIP3   OH260397   0.634   4.673   0.546 -0.5937 -0.0363 -0.3561
12969TIP3    H160398   0.678   4.591   0.567 -1.3698 -0.3224  0.1827
12969TIP3    H260399   0.544   4.647   0.524 -1.0432  0.7395  0.5116
12970TIP3   OH260400   5.409   2.631   6.125  0.7975 -0.2480 -0.4161
12970TIP3    H160401   5.374   2.705   6.076 -1.2899 -0.5144  0.5860
12970TIP3    H260402   5.419   2.561   6.060  2.4346  0.7949 -1.2939
12971TIP3   OH260403   6.416   2.282   6.754  0.4042 -0.0644 -0.2432
12971TIP3    H160404   6.438   2.311   6.842  0.9618  2.0561 -1.0471
12971TIP3    H260405   6.370   2.356   6.715  1.3210 -0.4707 -2.1644
12972TIP3   OH260406   6.116   6.046  16.348 -0.4047  0.1966 -0.3924
12972TIP3    H160407   6.054   6.119  16.345 -0.5670  0.0288 -1.2586
12972TIP3    H260408   6.097   5.996  16.268 -1.0580 -1.4096  0.7482
12973TIP3   OH260409   1.198   1.221   0.425 -0.4231 -0.3291  1.0162
12973TIP3    H160410   1.142   1.296   0.404  1.3729  1.1001  1.1888
12973TIP3    H260411   1.137   1.148   0.436 -2.2230  1.1226  0.9600
12974TIP3   OH260412   3.924   1.158  12.973  0.3609 -0.6039  0.0910
12974TIP3    H160413   3.982   1.167  13.049  0.5070 -0.1753 -0.0704
12974TIP3    H260414   3.950   1.228  12.914 -1.2759  0.5092  0.6399
12975TIP3   OH260415   6.562   5.408  15.952  0.2396  0.0533  0.0254
12975TIP3    H160416   6.485   5.374  15.996 -0.2223  0.5960 -0.3591
12975TIP3    H260417   6.534   5.491  15.915  0.2886 -0.9234 -2.2900
12976TIP3   OH260418   5.909   6.019  15.605 -0.4307  0.7346 -0.0549
12976TIP3    H160419   5.993   6.065  15.597  0.1440  0.0799  2.0444
12976TIP3    H260420   5.862   6.043  15.525  0.3690  3.9064  0.3420
12977TIP3   OH260421   3.391   5.332   0.598 -0.0983 -0.1851  0.6461
12977TIP3    H160422   3.321   5.379   0.643  0.1280  1.7484 -0.9332
12977TIP3    H260423   3.351   5.248   0.574 -1.5629  0.4817  0.6740
12978TIP3   OH260424   0.022   5.534   3.356 -0.2411  0.3741 -0.4699
12978TIP3    H160425   0.010   5.573   3.270 -0.5760 -0.3496 -0.7564
12978TIP3    H260426  -0.045   5.575   3.411 -0.9874 -0.2364 -0.9174
12979TIP3   OH260427   2.528   4.968   5.992 -0.1334 -0.1121  0.2549
12979TIP3    H160428   2.571   5.015   5.921 -0.4956 -1.6386 -0.9938
12979TIP3    H260429   2.594   4.962   6.061 -0.0215  2.0565  0.3980
12980TIP3   OH260430   3.984   4.102  11.452  0.3682 -0.3730  0.4506
12980TIP3    H160431   4.075   4.074  11.467  0.3689 -0.7062 -0.1260
12980TIP3    H260432   3.984   4.134  11.362 -0.0248 -0.1130  0.5439
12981TIP3   OH260433   0.551   6.218  14.967 -0.4396 -0.2122 -0.0634
12981TIP3    H160434   0.497   6.187  14.894 -0.4935  0.2717 -0.2273
12981TIP3    H260435   0.639   6.227  14.930 -0.6967  1.1468 -0.3741
12982TIP3   OH260436   4.027   4.051   1.799  0.2887 -0.2647 -0.1601
12982TIP3    H160437   4.013   4.084   1.710  0.2349 -2.2794 -0.9122
12982TIP3    H260438   4.119   4.024   1.800  0.0896 -0.9407  0.1628
12983TIP3   OH260439   1.450   4.460   1.784  0.4197 -1.0064  0.3047
12983TIP3    H160440   1.442   4.509   1.702  0.4137 -1.6295 -0.0721
12983TIP3    H260441   1.389   4.503   1.844  0.5281 -0.4598  0.0215
12984TIP3   OH260442   3.893   3.937  14.922 -0.1077  0.0521  0.2057
12984TIP3    H160443   3.975   3.918  14.968  0.0338 -1.9450 -0.8380
12984TIP3    H260444   3.916   4.005  14.858  1.2441 -2.0599 -1.5831
12985TIP3   OH260445   2.053   1.685  14.145  0.0619 -0.0796  0.7100
12985TIP3    H160446   2.074   1.711  14.235  2.2298  0.1345  0.1849
12985TIP3    H260447   2.108   1.608  14.130  0.6430  0.6196 -0.8188
12986TIP3   OH260448   6.044   3.286   0.983 -0.0386  0.3644  0.3527
12986TIP3    H160449   6.015   3.375   1.000  1.8084  1.0861 -0.1075
12986TIP3    H260450   6.041   3.243   1.069 -0.9242  0.8625  0.5795
12987TIP3   OH260451   0.741   5.400  14.943 -0.1893  0.6746 -0.2798
12987TIP3    H160452   0.745   5.307  14.966  0.9811  0.5105 -1.0732
12987TIP3    H260453   0.672   5.406  14.878 -2.2428  0.8423  1.8532
12988TIP3   OH260454   5.801   4.462  16.438 -0.2484  0.0371  0.1727
12988TIP3    H160455   5.714   4.494  16.419 -0.1462 -0.4750 -1.1938
12988TIP3    H260456   5.860   4.530  16.404 -0.0682 -0.8987 -1.4491
12989TIP3   OH260457   6.638   4.753  16.998 -1.0237 -0.3901 -0.2795
12989TIP3    H160458   6.715   4.779  17.049 -0.6070 -1.4971 -0.3372
12989TIP3    H260459   6.629   4.659  17.013 -1.2547 -0.6250 -1.7519
12990TIP3   OH260460   1.985   2.180   5.574  0.0418 -0.3214 -0.3328
12990TIP3    H160461   1.961   2.262   5.617  0.3651 -0.1902 -0.4029
12990TIP3    H260462   2.013   2.205   5.487 -1.1589 -0.6518 -0.8229
12991TIP3   OH260463   0.016   6.286  17.211  0.2918 -0.1286  0.0138
12991TIP3    H160464  -0.064   6.256  17.255  0.5063  0.6445  0.9551
12991TIP3    H260465   0.071   6.208  17.206 -0.9377 -0.9106 -1.5960
12992TIP3   OH260466   4.838   5.620   1.646 -0.4658 -0.2260 -0.0678
12992TIP3    H160467   4.835   5.684   1.717 -2.1919 -1.8038  1.3397
12992TIP3    H260468   4.931   5.603   1.632 -0.0733  1.2177  0.7982
12993TIP3   OH260469   6.662   3.489   5.912  0.0709 -0.2976  0.1936
12993TIP3    H160470   6.581   3.540   5.919 -0.1261 -0.3345 -1.4762
12993TIP3    H260471   6.731   3.554   5.921 -0.1331 -0.2222  1.3325
12994TIP3   OH260472   4.558   5.837  10.418  0.0824  0.3329  0.6437
12994TIP3    H160473   4.471   5.856  10.382 -0.4129  1.0868  2.1885
12994TIP3    H260474   4.599   5.923  10.427  1.4008 -0.0992 -1.0497
12995TIP3   OH260475   6.282   1.587  12.147  0.0291 -0.7801  0.3380
12995TIP3    H160476   6.233   1.510  12.120  1.0345 -1.1183 -0.5843
12995TIP3    H260477   6.288   1.580  12.242 -2.0420 -0.5086  0.5070
12996TIP3   OH260478   4.318   1.923  15.824  0.1111  0.3149  0.1266
12996TIP3    H160479   4.304   1.889  15.735 -2.6162  2.0499 -0.1547
12996TIP3    H260480   4.249   1.882  15.876  1.4379 -0.3589  1.3806
12997TIP3   OH260481   0.511   2.682   0.388  0.1960 -0.3822  0.2400
12997TIP3    H160482   0.579   2.630   0.430  0.6422  1.8708  2.3920
12997TIP3    H260483   0.556   2.760   0.357 -0.8118 -0.3996 -1.3465
12998TIP3   OH260484   0.970   6.673   4.991  0.0122  0.1259  0.8110
12998TIP3    H160485   0.976   6.762   5.027 -0.8562  1.2499 -1.6796
12998TIP3    H260486   1.059   6.651   4.965 -0.1152  1.1965 -0.6023
12999TIP3   OH260487   0.850   2.865   2.975  0.2173  0.1667 -0.4381
12999TIP3    H160488   0.868   2.917   2.897  1.3746  1.9262  0.9698
12999TIP3    H260489   0.936   2.843   3.010 -0.2749 -1.7723 -0.3885
13000TIP3   OH260490   3.419   0.094   0.558 -0.1450  0.2770 -0.0170
13000TIP3    H160491   3.434   0.010   0.515 -0.3444 -0.1351  0.7241
13000TIP3    H260492   3.371   0.145   0.492 -1.3015 -0.6882  0.0519
13001TIP3   OH260493   6.227   0.680  16.803  0.7051  0.3625 -0.1925
13001TIP3    H160494   6.178   0.640  16.875 -0.1535 -0.4178 -1.1879
13001TIP3    H260495   6.188   0.767  16.792  0.3545  0.2074 -0.1794
13002TIP3   OH260496   1.439   0.317  13.535  0.1206  0.0064 -0.5631
13002TIP3    H160497   1.469   0.329  13.445 -0.9010  1.7949 -0.6751
13002TIP3    H260498   1.514   0.344  13.589 -0.0144  1.0148 -0.8701
13003TIP3   OH260499   3.892   0.990   4.247  0.0592  0.0533  0.3140
13003TIP3    H160500   3.968   0.956   4.200  0.9758  2.4148  0.0379
13003TIP3    H260501   3.817   0.971   4.190  0.6131 -0.9689 -0.0775
13004TIP3   OH260502   1.048   0.351  14.397 -0.6288  0.5320  0.1099
13004TIP3    H160503   1.103   0.366  14.474 -0.1012  0.5642 -0.2670
13004TIP3    H260504   1.044   0.437  14.354  0.8464  0.0455 -1.0437
13005TIP3   OH260505   2.900   0.040   5.515  0.2275  0.0454 -0.8255
13005TIP3    H160506   2.991   0.014   5.531 -0.1516 -1.2530 -0.6805
13005TIP3    H260507   2.900   0.135   5.527  1.4701  0.0085 -0.3792
13006TIP3   OH260508   2.441   3.019  15.055  0.5308 -0.1394  0.5319
13006TIP3    H160509   2.435   3.054  15.144  0.2359 -0.1786  0.5294
13006TIP3    H260510   2.367   3.058  15.009  1.3814  0.8257 -0.0300
13007TIP3   OH260511   4.719   4.189  16.055  0.4814 -0.5539  0.0663
13007TIP3    H160512   4.683   4.110  16.096 -0.2154 -0.7210 -0.8396
13007TIP3    H260513   4.693   4.261  16.112 -0.2067 -0.8151  0.0818
13008TIP3   OH260514   3.337   2.033   4.859  0.1214  0.2003  0.5513
13008TIP3    H160515   3.258   2.028   4.912  0.3972  0.8587  1.0339
13008TIP3    H260516   3.367   1.942   4.851 -1.0720 -0.1377 -0.2509
13009TIP3   OH260517   3.057   3.503  16.787  0.3899 -0.4446 -0.0300
13009TIP3    H160518   3.091   3.415  16.776 -0.5147 -0.6322 -1.4675
13009TIP3    H260519   3.126   3.550  16.833  0.8265 -1.9241  0.8664
13010TIP3   OH260520   0.344   5.856  15.681  0.3975 -0.4943  0.1945
13010TIP3    H160521   0.310   5.839  15.769  0.6910  1.0248  0.6162
13010TIP3    H260522   0.439   5.862  15.693  0.3302  1.0288  0.0049
13011TIP3   OH260523   3.539   2.248   0.231  0.4781 -0.1973  0.4110
13011TIP3    H160524   3.516   2.305   0.158 -1.3400 -0.8325  0.4687
13011TIP3    H260525   3.626   2.213   0.208  1.0362  1.5585 -0.2261
13012TIP3   OH260526   5.766   1.330   1.519  0.2831 -0.0858 -0.0660
13012TIP3    H160527   5.709   1.337   1.596  0.6576  1.2411  0.1113
13012TIP3    H260528   5.722   1.268   1.462 -0.4951 -0.3439  0.7935
13013TIP3   OH260529   6.641   4.841   2.181  0.7040 -0.2078  0.1316
13013TIP3    H160530   6.566   4.900   2.181  0.5538 -0.3842  1.0748
13013TIP3    H260531   6.672   4.841   2.091 -1.5503 -1.5565 -0.6879
13014TIP3   OH260532   5.345   5.289   0.671  0.6188 -0.0898 -0.5748
13014TIP3    H160533   5.319   5.282   0.763  0.4517  1.7178 -0.4628
13014TIP3    H260534   5.278   5.241   0.624 -2.2061  3.2423 -0.1533
13015TIP3   OH260535   4.092   6.353  13.088  0.2631 -0.3182  0.6421
13015TIP3    H160536   4.176   6.315  13.115  0.1357 -0.7294  0.4707
13015TIP3    H260537   4.027   6.294  13.126  0.0950 -1.8088 -1.8410
13016TIP3   OH260538   3.795   5.359   5.365 -0.4788 -0.0947  0.3546
13016TIP3    H160539   3.710   5.351   5.322 -0.2874  1.1026 -0.2699
13016TIP3    H260540   3.808   5.275   5.409 -0.6396 -1.4254 -2.0546
13017TIP3   OH260541   0.397   6.697  12.693  0.0130  0.4063 -0.7536
13017TIP3    H160542   0.389   6.692  12.788  0.2464  1.7229 -0.6604
13017TIP3    H260543   0.485   6.663  12.676  0.4094  1.2442 -0.3987
13018TIP3   OH260544   6.027   2.448   5.894 -0.2204  0.3236 -0.3836
13018TIP3    H160545   6.054   2.518   5.834  0.3720  0.0869 -0.3969
13018TIP3    H260546   6.041   2.484   5.981 -0.0312  0.2672 -0.3903
13019TIP3   OH260547   4.648   4.122   0.004  0.4753  1.0263  0.1330
13019TIP3    H160548   4.688   4.035   0.013  1.3340  1.5006  0.9852
13019TIP3    H260549   4.716   4.175  -0.036  0.1048  1.4186  0.0255
13020TIP3   OH260550   6.603   3.599  12.554 -0.1584 -0.2645 -0.2960
13020TIP3    H160551   6.542   3.582  12.626  0.0277  0.1890 -0.0296
13020TIP3    H260552   6.689   3.602  12.595  0.3359 -3.1882 -0.9941
13021TIP3   OH260553   3.878   4.743   3.704  0.0213 -0.0646  0.2074
13021TIP3    H160554   3.893   4.660   3.658 -1.0517  0.0698 -0.4121
13021TIP3    H260555   3.952   4.751   3.763  2.0187  0.2276 -2.2220
13022TIP3   OH260556   6.416   5.441  16.519  0.3979 -0.5894  0.0788
13022TIP3    H160557   6.413   5.489  16.602 -1.4213  0.3938 -0.5335
13022TIP3    H260558   6.392   5.506  16.453 -0.2636 -1.8804 -0.9795
13023TIP3   OH260559   4.550   2.507   0.038  0.4165  0.3757 -0.6175
13023TIP3    H160560   4.628   2.553   0.070  0.1155  1.9010 -2.0138
13023TIP3    H260561   4.572   2.483  -0.052 -0.5854  0.4646 -0.8899
13024TIP3   OH260562   2.947   0.025  12.930 -0.6305 -0.2125 -1.1458
13024TIP3    H160563   2.872   0.069  12.970 -0.9589 -2.5091  0.9040
13024TIP3    H260564   2.909  -0.027  12.859 -1.3759 -3.0008  1.1906
13025TIP3   OH260565   2.264   6.073   2.208  0.3145  0.1805 -0.4793
13025TIP3    H160566   2.281   5.993   2.158  1.4163  0.2758 -0.2670
13025TIP3    H260567   2.304   6.143   2.157  0.0284  0.4973 -0.2760
13026TIP3   OH260568   5.004   3.483   1.362  0.4450 -0.4364 -0.1519
13026TIP3    H160569   5.051   3.528   1.292  1.1632 -0.3806  0.3483
13026TIP3    H260570   5.020   3.537   1.440  1.1465 -1.4293  0.4166
13027TIP3   OH260571   6.574   3.027   5.490  0.2585 -0.3881 -0.1547
13027TIP3    H160572   6.620   3.067   5.565  0.0939  0.1052 -0.3117
13027TIP3    H260573   6.585   3.091   5.419  0.9530 -1.1499 -0.7283
13028TIP3   OH260574   0.306   1.120  14.520 -1.0956 -0.5614 -0.1953
13028TIP3    H160575   0.268   1.206  14.504  1.4293  0.7737  0.6809
13028TIP3    H260576   0.333   1.089  14.433  0.8638  0.9697 -0.1702
13029TIP3   OH260577   6.712   6.758   2.895 -0.0868  0.2811  0.2030
13029TIP3    H160578   6.637   6.702   2.914  0.2290 -0.2087  0.0129
13029TIP3    H260579   6.785   6.697   2.883 -0.1914  0.5891 -2.1769
13030TIP3   OH260580   3.626   3.195   3.295 -0.6169 -0.0637  0.1746
13030TIP3    H160581   3.701   3.243   3.258  0.4379 -1.4841  0.4258
13030TIP3    H260582   3.636   3.106   3.261 -1.2613 -0.6685  1.5489
13031TIP3   OH260583   6.128   0.364   5.598 -0.3624 -0.0011  0.5250
13031TIP3    H160584   6.123   0.296   5.530 -0.6068 -0.8954  1.4325
13031TIP3    H260585   6.127   0.316   5.680  2.5723  0.8989  1.1496
13032TIP3   OH260586   5.807   0.323  11.437 -0.3565  0.1442 -0.2360
13032TIP3    H160587   5.716   0.345  11.454 -0.6224 -1.0558 -0.0844
13032TIP3    H260588   5.855   0.363  11.509 -0.7442  0.8644 -0.3703
13033TIP3   OH260589   5.209   3.797   3.954 -0.4624 -0.5941  0.3008
13033TIP3    H160590   5.217   3.815   4.048 -0.5715 -0.5765  0.3059
13033TIP3    H260591   5.266   3.862   3.913 -0.8184 -0.2668  0.3222
13034TIP3   OH260592   2.211   1.735   2.611 -0.4179  0.0523 -0.2929
13034TIP3    H160593   2.276   1.676   2.651 -1.3195 -0.2482  0.7570
13034TIP3    H260594   2.223   1.723   2.517  0.0732 -1.0914 -0.1009
13035TIP3   OH260595   5.256   5.144  16.465 -0.2437  0.6886 -0.2231
13035TIP3    H160596   5.173   5.112  16.429 -0.3221  0.8634 -0.1996
13035TIP3    H260597   5.311   5.159  16.388  0.2874 -0.8435 -0.1661
13036TIP3   OH260598   2.401   6.240  13.552  0.4014  0.6358  0.1167
13036TIP3    H160599   2.375   6.302  13.484  0.7047 -1.4698 -1.9409
13036TIP3    H260600   2.494   6.223  13.536 -0.2933 -2.3709 -0.9950
13037TIP3   OH260601   6.557   1.774   0.289 -0.1197 -0.0176 -0.0956
13037TIP3    H160602   6.644   1.763   0.252  0.7088  0.3157  1.6691
13037TIP3    H260603   6.498   1.769   0.215  1.2833 -1.8993 -1.1414
13038TIP3   OH260604   5.312   3.340  16.541 -0.1875 -0.4638 -0.0248
13038TIP3    H160605   5.225   3.315  16.570 -0.6169  0.8040 -0.2006
13038TIP3    H260606   5.356   3.371  16.620 -0.9702  1.8905 -0.4690
13039TIP3   OH260607   5.179   4.672   0.735 -1.2334 -0.0403 -0.5132
13039TIP3    H160608   5.212   4.745   0.788 -0.9490  0.2581 -1.0940
13039TIP3    H260609   5.113   4.630   0.790 -0.2401 -0.3330  0.4730
13040TIP3   OH260610   4.687   6.533   0.035 -0.3538  0.1839  0.0754
13040TIP3    H160611   4.683   6.493  -0.051  2.1327  0.2504 -0.1020
13040TIP3    H260612   4.685   6.627   0.017  1.0644  0.2143  0.0038
13041TIP3   OH260613   0.891   2.441  15.459 -0.1304 -0.4395  0.5763
13041TIP3    H160614   0.900   2.532  15.432  0.0976 -0.9276 -1.1080
13041TIP3    H260615   0.977   2.402  15.440 -0.4814 -1.1814  0.4811
13042TIP3   OH260616   5.980   0.624  10.789 -0.5927 -0.8405 -0.3734
13042TIP3    H160617   6.014   0.708  10.820 -1.2714 -0.6209 -0.2153
13042TIP3    H260618   6.035   0.603  10.713  0.5470 -0.9893  0.4791
13043TIP3   OH260619   2.351   5.793  16.200 -0.5976 -0.0781 -0.1764
13043TIP3    H160620   2.317   5.846  16.272 -0.3771  0.1648 -0.2492
13043TIP3    H260621   2.387   5.857  16.138 -0.4581 -0.3066 -0.3324
13044TIP3   OH260622   6.069   1.957   1.626 -0.0887  0.2710 -0.6478
13044TIP3    H160623   6.022   2.039   1.616  3.3913  2.6288  1.2099
13044TIP3    H260624   6.070   1.940   1.720  1.4700 -0.4752 -0.7751
13045TIP3   OH260625   2.965   4.161   0.451 -0.6624 -0.4065  0.0744
13045TIP3    H160626   2.885   4.112   0.431 -1.2967  0.1635  1.1435
13045TIP3    H260627   2.940   4.253   0.441 -0.5716 -0.1658  1.8574
13046TIP3   OH260628   6.235   2.217   6.050 -0.4140 -0.4269 -0.1421
13046TIP3    H160629   6.234   2.178   5.963 -1.3871 -1.8291  0.4773
13046TIP3    H260630   6.144   2.241   6.066 -0.7159 -2.6053  1.5475
13047TIP3   OH260631   1.376   1.107   4.716  0.5644  0.5398 -0.2296
13047TIP3    H160632   1.427   1.026   4.724  0.9750  0.8467  0.3017
13047TIP3    H260633   1.364   1.136   4.807 -0.4078  0.5598 -0.3586
13048TIP3   OH260634   4.099   4.400  14.884  0.2482 -0.1596 -0.6081
13048TIP3    H160635   4.174   4.459  14.875 -0.3549  0.8171  0.6678
13048TIP3    H260636   4.082   4.396  14.978 -0.0647 -1.9551 -0.7245
13049TIP3   OH260637   6.730   0.354  17.009 -0.2805 -0.1725  0.1732
13049TIP3    H160638   6.714   0.304  16.929  0.7186  1.5204 -1.1240
13049TIP3    H260639   6.649   0.346  17.059 -0.5083 -2.1911 -0.4742
13050TIP3   OH260640   4.185   5.250   1.048  0.2855 -0.3391 -0.5586
13050TIP3    H160641   4.234   5.298   1.114 -2.7705  1.3095  0.6088
13050TIP3    H260642   4.188   5.305   0.970  0.0431 -0.1046 -0.4018
13051TIP3   OH260643   4.393   6.363   3.157 -0.1184 -0.2546  0.2435
13051TIP3    H160644   4.454   6.354   3.230  0.7328 -2.4104 -0.6968
13051TIP3    H260645   4.390   6.277   3.117 -2.5435  0.2358 -0.7438
13052TIP3   OH260646   0.461   3.984   3.116  0.4883  0.1082 -0.0657
13052TIP3    H160647   0.370   4.011   3.127  0.5507  0.6286 -0.7658
13052TIP3    H260648   0.482   4.007   3.025  1.7795  1.3848  0.5324
13053TIP3   OH260649   1.954   3.754   2.635 -0.2282 -0.4058 -0.1721
13053TIP3    H160650   1.968   3.813   2.561  1.3290  2.3313  2.2194
13053TIP3    H260651   1.860   3.738   2.635 -0.5933  1.5718 -1.2688
13054TIP3   OH260652   5.530   4.382   4.377 -0.4325 -0.3465 -0.5946
13054TIP3    H160653   5.575   4.298   4.376 -0.4629 -0.4195 -4.6777
13054TIP3    H260654   5.492   4.390   4.289 -1.0514  3.5948 -0.0763
13055TIP3   OH260655   2.005   1.594   4.244 -0.4041  0.2561  0.0040
13055TIP3    H160656   1.981   1.629   4.330 -2.3670  0.2356 -0.5066
13055TIP3    H260657   1.921   1.574   4.203  0.5644 -0.7908 -1.4828
13056TIP3   OH260658   6.696   5.306   4.312 -0.0955 -0.0995  0.6017
13056TIP3    H160659   6.627   5.283   4.250 -0.5937  0.9403  0.7624
13056TIP3    H260660   6.650   5.343   4.387  0.3393 -3.2603  2.5228
13057TIP3   OH260661   0.415   2.072   5.361 -0.1178  0.1389  0.2341
13057TIP3    H160662   0.491   2.077   5.419 -1.0734  0.3434  1.4906
13057TIP3    H260663   0.425   2.147   5.302  0.4569  0.3883  0.6451
13058TIP3   OH260664   5.726   1.058   0.031  0.0726 -0.2562 -0.9495
13058TIP3    H160665   5.698   1.127   0.091 -0.9369  0.5529 -2.3231
13058TIP3    H260666   5.757   1.105  -0.046  1.1441 -1.2932 -1.1687
13059TIP3   OH260667   5.875   5.332  11.391 -0.4482  0.2539 -0.0332
13059TIP3    H160668   5.876   5.267  11.461  0.3633  2.5995  2.2102
13059TIP3    H260669   5.957   5.317  11.343 -0.7862 -1.0570 -0.2238
13060TIP3   OH260670   3.723   2.768  13.437  0.1178 -0.6658 -0.2899
13060TIP3    H160671   3.738   2.847  13.386 -0.0489 -0.2472  0.3083
13060TIP3    H260672   3.657   2.793  13.502 -1.4779 -1.8469 -1.4115
13061TIP3   OH260673   1.270   3.836   6.124  0.1727 -0.1766 -0.1142
13061TIP3    H160674   1.345   3.845   6.065  0.7646 -0.0426  0.6460
13061TIP3    H260675   1.228   3.755   6.097 -1.4489  1.4951 -2.8148
13062TIP3   OH260676   5.663   0.980   5.360  0.3575  0.5155 -0.0809
13062TIP3    H160677   5.686   1.027   5.280 -1.3186  0.9830 -0.3031
13062TIP3    H260678   5.567   0.980   5.361  0.3633 -0.3069  1.4439
13063TIP3   OH260679   5.812   0.943   3.028 -0.6637  0.0166 -0.6139
13063TIP3    H160680   5.836   1.019   3.081 -2.2721  0.9052 -1.1042
13063TIP3    H260681   5.770   0.884   3.091 -0.1168 -0.1198 -0.3762
13064TIP3   OH260682   3.333   5.066  12.019  0.0871  0.4955 -0.0964
13064TIP3    H160683   3.355   5.149  12.061  1.0793  0.3080 -0.2401
13064TIP3    H260684   3.416   5.032  11.986 -0.4159 -0.2076 -0.6784
13065TIP3   OH260685   6.214   5.965  15.343  0.1243 -0.5682  0.3402
13065TIP3    H160686   6.246   5.940  15.256 -0.4366  0.1196 -0.0653
13065TIP3    H260687   6.291   6.001  15.388  0.1450  0.1848 -0.2911
13066TIP3   OH260688   0.426   0.332   0.368  0.9309 -0.5374  0.3092
13066TIP3    H160689   0.401   0.296   0.283  0.7561  0.1608  0.0531
13066TIP3    H260690   0.465   0.417   0.348 -1.4734  0.8151  1.0752
13067TIP3   OH260691   4.425   3.105   6.439 -0.9542  0.4821  0.0031
13067TIP3    H160692   4.380   3.129   6.520 -0.4587  1.7075 -0.0737
13067TIP3    H260693   4.394   3.017   6.419 -2.4468  0.8736  0.5530
13068TIP3   OH260694   4.220   4.899  17.261  0.0808  0.0719 -0.0296
13068TIP3    H160695   4.131   4.929  17.279  0.1060 -0.2774  0.6875
13068TIP3    H260696   4.211   4.807  17.237  0.2024  0.1495 -0.3762
13069TIP3   OH260697   4.265   0.467   0.185  0.2123 -0.0411 -0.3380
13069TIP3    H160698   4.228   0.481   0.272 -0.7016  0.1544 -0.7537
13069TIP3    H260699   4.229   0.537   0.132 -0.5170 -1.0787 -1.2520
13070TIP3   OH260700   6.519   6.686   1.400  0.1813 -0.3742 -0.6887
13070TIP3    H160701   6.593   6.697   1.340 -0.5344 -0.0862 -1.5240
13070TIP3    H260702   6.559   6.688   1.487  0.8963  2.3000 -1.0277
13071TIP3   OH260703   1.190   6.144  14.584 -0.0252  0.0244  0.5388
13071TIP3    H160704   1.193   6.107  14.672 -0.2504 -0.7884  0.2143
13071TIP3    H260705   1.145   6.077  14.532  0.5831  0.2673 -0.3008
13072TIP3   OH260706   4.920   0.922   3.233 -0.5887  0.1981  0.2901
13072TIP3    H160707   4.835   0.956   3.262 -0.0312  1.6982  0.2562
13072TIP3    H260708   4.948   0.864   3.304 -0.5291  1.6287  1.4680
13073TIP3   OH260709   3.175   3.898  16.717  0.0190 -0.2723  0.4988
13073TIP3    H160710   3.179   3.822  16.659 -0.3218  0.3404 -0.3246
13073TIP3    H260711   3.087   3.896  16.753  0.0101 -0.2644  0.4770
13074TIP3   OH260712   5.695   2.611  16.699 -0.6772  0.5009 -0.0516
13074TIP3    H160713   5.719   2.523  16.731  0.2009  0.7680  0.0529
13074TIP3    H260714   5.628   2.595  16.633 -0.0861 -0.3084 -0.4784
13075TIP3   OH260715   0.173   6.539  11.069  0.2598  0.0313  0.5590
13075TIP3    H160716   0.264   6.512  11.057  0.2142  0.0746  0.1043
13075TIP3    H260717   0.143   6.560  10.980  0.5136  2.2753  0.9702
13076TIP3   OH260718   6.498   0.768  12.662  0.2056 -0.5400 -0.7086
13076TIP3    H160719   6.506   0.680  12.699  1.7333 -0.5575 -1.0788
13076TIP3    H260720   6.507   0.755  12.568  0.3266  0.0017 -0.7694
13077TIP3   OH260721   0.336   5.252  12.838  0.1489 -0.5451  0.1773
13077TIP3    H160722   0.334   5.174  12.893  1.7215 -1.5889 -1.2030
13077TIP3    H260723   0.334   5.218  12.748 -0.4512  1.0517 -0.4341
13078TIP3   OH260724   6.234   3.912   2.399 -0.1807  0.0566 -0.5485
13078TIP3    H160725   6.221   3.827   2.441  2.5457  0.3675  1.0590
13078TIP3    H260726   6.259   3.892   2.309  3.4345 -1.0309  0.6223
13079TIP3   OH260727   1.113   1.455   2.230  0.0145  0.3432  0.0323
13079TIP3    H160728   1.117   1.495   2.317 -0.4199  0.8995 -0.1989
13079TIP3    H260729   1.145   1.523   2.171  1.5897 -0.5048 -0.0957
13080TIP3   OH260730   4.275   2.058   1.710  0.0259  0.6364 -0.0968
13080TIP3    H160731   4.282   1.969   1.675 -0.6806 -0.0059  1.3468
13080TIP3    H260732   4.182   2.079   1.705 -0.6472 -0.7296  4.2656
13081TIP3   OH260733   1.580   5.133  11.131 -0.4590 -0.0260  0.3557
13081TIP3    H160734   1.509   5.125  11.068 -0.5252  3.2369 -0.0673
13081TIP3    H260735   1.539   5.170  11.210  0.4039  0.0487  0.7783
13082TIP3   OH260736   4.518   5.898  16.733  0.0377 -0.1940  0.0514
13082TIP3    H160737   4.602   5.939  16.755 -0.1231  0.0526  0.2058
13082TIP3    H260738   4.530   5.866  16.644  1.0189 -2.0482  0.8284
13083TIP3   OH260739   5.965   3.776  16.849 -0.4657  0.3055 -0.6541
13083TIP3    H160740   6.021   3.744  16.779 -0.9017 -2.1924  0.1063
13083TIP3    H260741   6.022   3.780  16.926 -1.1054 -1.4507 -0.0737
13084TIP3   OH260742   6.475   3.749  12.360 -0.3154 -0.1393 -0.6438
13084TIP3    H160743   6.411   3.680  12.346 -1.1215 -0.0189  2.1648
13084TIP3    H260744   6.524   3.721  12.438  1.4958  0.9169 -1.3565
13085TIP3   OH260745   5.750   4.292  10.674  0.0047 -0.0769  0.0930
13085TIP3    H160746   5.783   4.219  10.727 -1.2624 -0.8464 -0.1601
13085TIP3    H260747   5.763   4.263  10.584  1.1580  0.7751 -0.0159
13086TIP3   OH260748   2.033   3.199   4.518  0.1516  0.3138  0.4340
13086TIP3    H160749   2.123   3.176   4.538  0.3583  0.8130  0.0725
13086TIP3    H260750   2.014   3.152   4.437  0.0863  0.2168  0.5054
13087TIP3   OH260751   1.526   4.099   2.975 -0.2197  0.2515 -0.1867
13087TIP3    H160752   1.598   4.162   2.972  0.3075 -0.4117 -1.9284
13087TIP3    H260753   1.451   4.147   2.941 -0.0156  0.1858 -0.7264
13088TIP3   OH260754   1.320   6.085  13.321 -0.1098  0.0329  0.4529
13088TIP3    H160755   1.330   6.118  13.232 -0.1711 -2.3108 -0.4533
13088TIP3    H260756   1.270   6.153  13.367  0.2098  1.3958 -1.2107
13089TIP3   OH260757   2.249   2.316   6.081 -0.0816 -0.0435  0.6612
13089TIP3    H160758   2.199   2.373   6.023  1.4135 -0.3066 -0.9259
13089TIP3    H260759   2.259   2.366   6.162  0.8821  1.8134 -0.5833
13090TIP3   OH260760   1.917   3.036   0.005  0.0293  1.0552 -0.1724
13090TIP3    H160761   1.932   3.033  -0.090 -1.0938  0.1290 -0.3314
13090TIP3    H260762   1.998   2.999   0.042  0.6225  1.7584 -0.7485
13091TIP3   OH260763   5.452   0.477   4.483 -0.4788 -0.3336  0.1399
13091TIP3    H160764   5.524   0.439   4.432  0.1938 -0.5594  1.2386
13091TIP3    H260765   5.487   0.560   4.514 -0.1768 -1.0763  1.8437
13092TIP3   OH260766   4.328   5.920   0.623  0.1597 -0.0765  0.2919
13092TIP3    H160767   4.411   5.877   0.643 -0.0902 -0.2083  1.0524
13092TIP3    H260768   4.263   5.849   0.620  0.0406  0.0467 -0.1143
13093TIP3   OH260769   3.504   4.095   5.479 -0.5198  0.4117  0.2272
13093TIP3    H160770   3.550   4.148   5.413  0.5502 -1.1884 -0.3278
13093TIP3    H260771   3.505   4.150   5.558 -1.4602  2.1789 -0.9595
13094TIP3   OH260772   2.848   3.413   5.269  0.2973 -0.2196 -0.7965
13094TIP3    H160773   2.858   3.341   5.330  0.1064  0.1934 -0.2712
13094TIP3    H260774   2.836   3.490   5.324 -3.9397 -0.4012 -1.3325
13095TIP3   OH260775   5.364   6.032  11.577  0.3221  0.0590 -0.7989
13095TIP3    H160776   5.405   5.945  11.574  0.6131  0.1044  1.3708
13095TIP3    H260777   5.284   6.022  11.525  0.3506 -1.5218 -0.5669
13096TIP3   OH260778   3.968   5.649  12.600 -0.0467 -0.1483 -0.1917
13096TIP3    H160779   3.965   5.726  12.544  0.8798 -0.5382 -0.7771
13096TIP3    H260780   3.955   5.575  12.541 -1.7767 -0.4091  0.4771
13097TIP3   OH260781   0.388   5.224   1.886 -0.6171 -0.0618 -0.4081
13097TIP3    H160782   0.352   5.161   1.948 -1.5315  2.4967  1.7672
13097TIP3    H260783   0.441   5.282   1.940 -1.0742  1.9709 -2.0893
13098TIP3   OH260784   2.857   1.118   5.388 -0.1694 -0.5649  0.4759
13098TIP3    H160785   2.805   1.193   5.359 -0.4604 -0.6084  0.8815
13098TIP3    H260786   2.871   1.067   5.308  0.4377  0.1690  0.1121
13099TIP3   OH260787   0.105   5.010   0.662  1.2178 -0.1656 -0.3457
13099TIP3    H160788   0.191   4.985   0.696  0.7551 -2.4163 -0.7215
13099TIP3    H260789   0.045   4.999   0.736  0.8882 -0.9501 -0.7167
13100TIP3   OH260790   1.619   6.616  11.696 -0.7759  0.8458 -0.1879
13100TIP3    H160791   1.577   6.557  11.634 -0.3459  0.2841  0.0468
13100TIP3    H260792   1.570   6.698  11.689 -2.0732  0.1151  0.2813
13101TIP3   OH260793   4.907   2.296   5.234 -0.2095  0.2253  0.9930
13101TIP3    H160794   4.874   2.215   5.195  1.3816 -0.1495  0.3710
13101TIP3    H260795   5.002   2.284   5.236  0.0175  1.9678  1.1460
13102TIP3   OH260796   3.602   1.421   6.057 -0.3503  0.0956 -0.8926
13102TIP3    H160797   3.578   1.500   6.008  2.3937 -0.2719 -2.9579
13102TIP3    H260798   3.657   1.453   6.129  1.5717  0.0434 -2.2941
13103TIP3   OH260799   0.549   6.026  11.317  0.0245 -0.4231  0.4214
13103TIP3    H160800   0.575   6.024  11.225 -2.1795 -4.0614 -0.1988
13103TIP3    H260801   0.629   6.052  11.363  2.4366 -2.9217 -2.1530
13104TIP3   OH260802   2.639   3.848   6.761  0.2833 -0.0907 -0.0045
13104TIP3    H160803   2.611   3.782   6.698 -0.5692 -0.4363  0.7306
13104TIP3    H260804   2.677   3.917   6.707 -2.8772  0.8496 -1.1468
13105TIP3   OH260805   5.737   0.809   0.372  0.4080 -0.1696 -0.3037
13105TIP3    H160806   5.688   0.889   0.390 -1.8180 -1.2667 -1.3294
13105TIP3    H260807   5.710   0.748   0.441  2.8635  0.2530  1.0774
13106TIP3   OH260808   1.939   1.509   6.598  0.4845 -0.0964 -0.4311
13106TIP3    H160809   1.851   1.493   6.565 -0.3354  1.8787  0.7311
13106TIP3    H260810   1.984   1.554   6.527  0.3481 -0.5107 -0.7793
13107TIP3   OH260811   4.491   2.615   6.453 -0.8789 -0.2318 -0.1792
13107TIP3    H160812   4.464   2.542   6.397 -1.3408 -0.2835  0.1073
13107TIP3    H260813   4.528   2.573   6.531  0.4431 -0.1612 -0.7638
13108TIP3   OH260814   6.135   6.270   1.538  0.5913  0.5071 -0.6160
13108TIP3    H160815   6.052   6.274   1.585  2.3929  0.5644  2.7459
13108TIP3    H260816   6.147   6.358   1.503  0.9283  1.5646  2.0355
13109TIP3   OH260817   1.144   4.346  13.407  0.3379  0.6155  0.4440
13109TIP3    H160818   1.219   4.301  13.367  0.7962  1.2419  0.5923
13109TIP3    H260819   1.068   4.316  13.357  1.1731  3.3277 -2.5601
13110TIP3   OH260820   4.608   4.489  12.451  0.2009 -0.2636 -0.4456
13110TIP3    H160821   4.536   4.457  12.505  0.6112 -3.0234 -1.4631
13110TIP3    H260822   4.682   4.431  12.473  1.4972  1.1292 -1.0284
13111TIP3   OH260823   4.960   1.872   4.387  0.1319  0.5224 -0.0977
13111TIP3    H160824   4.909   1.883   4.307 -1.5193  3.2729  1.2632
13111TIP3    H260825   4.901   1.829   4.448  0.7105  0.3002  0.3129
13112TIP3   OH260826   0.653   2.554   0.746  0.2319 -0.7221  0.5404
13112TIP3    H160827   0.686   2.627   0.799  0.6528 -0.4651 -0.0648
13112TIP3    H260828   0.577   2.521   0.794 -0.4163  0.5931  0.4373
13113TIP3   OH260829   2.167   3.877   6.470 -0.5886 -0.1653 -0.3655
13113TIP3    H160830   2.225   3.933   6.521 -1.5805  1.5654 -1.1099
13113TIP3    H260831   2.202   3.788   6.483 -0.0728  0.3867  2.2783
13114TIP3   OH260832   2.581   5.341   2.112  0.0567 -0.1992 -0.3802
13114TIP3    H160833   2.596   5.316   2.021  1.1295  0.7515 -0.4766
13114TIP3    H260834   2.507   5.402   2.107  0.6093  0.4601 -0.7217
13115TIP3   OH260835   2.204   2.582  13.316  0.4710 -0.2856  0.0035
13115TIP3    H160836   2.114   2.615  13.317  0.2256 -0.9000 -1.1293
13115TIP3    H260837   2.221   2.561  13.224  1.2338 -1.6311  0.4360
13116TIP3   OH260838   2.975   5.388  15.283  0.2182  0.0530  0.3284
13116TIP3    H160839   2.915   5.386  15.209  0.2230 -1.8627  0.3442
13116TIP3    H260840   3.060   5.409  15.244 -0.0182  0.3741 -0.0189
13117TIP3   OH260841   6.397   0.827   4.495  0.2843 -0.1103  0.5861
13117TIP3    H160842   6.435   0.868   4.417  0.9043  1.8171  1.8760
13117TIP3    H260843   6.302   0.835   4.481  0.3861 -0.1034 -0.1342
13118TIP3   OH260844   5.797   3.029   3.572  0.0391 -0.2985 -0.0941
13118TIP3    H160845   5.768   3.053   3.483 -0.9415 -0.3479  0.2088
13118TIP3    H260846   5.799   2.933   3.571  2.9114 -0.2917 -0.9687
13119TIP3   OH260847   2.459   5.980  15.098 -0.3209  0.5974 -0.1457
13119TIP3    H160848   2.522   6.047  15.125 -0.0426  0.2103  0.1767
13119TIP3    H260849   2.407   6.022  15.030 -1.5064  1.8456  1.4785
13120TIP3   OH260850   6.032   1.209  16.414  0.7863 -0.0038  0.3441
13120TIP3    H160851   6.108   1.268  16.420  1.0394 -0.0377 -2.2061
13120TIP3    H260852   6.069   1.125  16.385  0.0026 -0.5355  0.8539
13121TIP3   OH260853   2.203   2.550   5.936 -0.3181 -0.2367 -0.1582
13121TIP3    H160854   2.288   2.590   5.955 -0.2326 -1.3277  1.9145
13121TIP3    H260855   2.157   2.615   5.883  1.2555  0.9708 -0.0824
13122TIP3   OH260856   4.365   4.473  14.682  0.4336  0.0105 -0.0338
13122TIP3    H160857   4.412   4.441  14.758  0.5920 -0.4666 -0.3246
13122TIP3    H260858   4.413   4.550  14.654  0.9571 -0.3837 -0.2357
13123TIP3   OH260859   2.146   5.631  15.383 -0.0252 -0.3917 -0.1684
13123TIP3    H160860   2.199   5.667  15.312 -0.3264  0.0590 -0.1703
13123TIP3    H260861   2.197   5.557  15.417  0.5870  0.0258 -0.1774
13124TIP3   OH260862   3.274   2.983   6.478  0.3681  0.1997  0.4914
13124TIP3    H160863   3.294   2.940   6.395 -0.6049  0.2356  0.2351
13124TIP3    H260864   3.351   3.036   6.497  1.2076 -0.9500  0.3530
13125TIP3   OH260865   4.289   6.050   3.198  0.4558  0.1502 -0.4431
13125TIP3    H160866   4.357   6.059   3.131 -0.5709  1.4507 -1.3417
13125TIP3    H260867   4.225   6.118   3.175 -0.8050 -0.6226  0.7881
13126TIP3   OH260868   5.468   5.210   5.554  0.4844  0.6872 -0.5560
13126TIP3    H160869   5.531   5.205   5.626  0.3672  1.0483 -0.4281
13126TIP3    H260870   5.519   5.186   5.476  0.5989  0.2498 -0.3457
13127TIP3   OH260871   6.302   0.263   0.658  0.3626 -0.0571 -0.4217
13127TIP3    H160872   6.280   0.183   0.705 -1.5743  1.4582  1.3625
13127TIP3    H260873   6.371   0.304   0.710  0.5320 -0.0018 -0.6895
13128TIP3   OH260874   3.110   4.571  17.123  0.1304 -0.3577  0.4422
13128TIP3    H160875   3.063   4.634  17.178  2.0090 -1.3254  3.2893
13128TIP3    H260876   3.195   4.613  17.106  0.4020 -1.0242  0.1567
13129TIP3   OH260877   0.845   0.330   1.415  1.5892  0.2390  0.3287
13129TIP3    H160878   0.936   0.329   1.385  1.7626  2.1909  0.7546
13129TIP3    H260879   0.810   0.412   1.381  0.3463  0.0791  1.2216
13130TIP3   OH260880   0.414   1.222  13.915  0.4521 -0.2804  0.1541
13130TIP3    H160881   0.405   1.270  13.997  1.0607  0.8963 -0.4507
13130TIP3    H260882   0.455   1.285  13.855 -3.3468  0.1715 -2.1562
13131TIP3   OH260883   4.640   5.565  16.684 -0.9811  0.6706  0.5332
13131TIP3    H160884   4.708   5.572  16.617 -0.4525 -1.7304  0.7651
13131TIP3    H260885   4.560   5.592  16.640 -0.2874  1.1209 -0.4689
13132TIP3   OH260886   3.959   6.561  14.103  0.1670  0.1899  0.3124
13132TIP3    H160887   3.903   6.534  14.175  1.9551 -2.2721  0.8591
13132TIP3    H260888   3.936   6.503  14.031  0.9822  0.1338  0.0873
13133TIP3   OH260889   2.939   4.648   4.718 -0.3654  0.4454 -0.4548
13133TIP3    H160890   2.924   4.608   4.633 -1.0935 -2.4229  0.9639
13133TIP3    H260891   3.015   4.601   4.753 -0.5710  1.0418  0.8117
13134TIP3   OH260892   2.454   2.730  15.812  0.2168  0.3734 -0.2489
13134TIP3    H160893   2.437   2.824  15.801 -0.0318  0.5235  1.3771
13134TIP3    H260894   2.410   2.707  15.893  0.2022 -1.1855 -0.6924
13135TIP3   OH260895   1.429   5.029   6.015  0.7663  0.0419  0.2056
13135TIP3    H160896   1.342   5.063   5.994  0.3266  0.1455  2.1355
13135TIP3    H260897   1.445   4.963   5.947 -1.0560 -0.3826  0.1475
13136TIP3   OH260898   3.254   0.951   4.242  0.0606  0.3234 -0.1848
13136TIP3    H160899   3.263   0.857   4.226 -0.3615  0.2810 -0.1901
13136TIP3    H260900   3.229   0.957   4.334 -0.7052  0.3825 -0.3898
13137TIP3   OH260901   6.407   3.059  15.277 -0.5294 -0.7372 -0.2706
13137TIP3    H160902   6.406   3.126  15.345 -0.2092 -0.6891 -0.3135
13137TIP3    H260903   6.464   2.990  15.311  0.3608 -0.3125 -0.8689
13138TIP3   OH260904   1.518   2.131   0.544 -0.5818  0.4423  0.0024
13138TIP3    H160905   1.435   2.166   0.575 -1.2953 -1.2133 -0.0202
13138TIP3    H260906   1.497   2.045   0.508  0.8063  0.8241 -1.8248
13139TIP3   OH260907   6.633   3.253   3.633 -0.3936  0.7891  0.5114
13139TIP3    H160908   6.659   3.337   3.595  1.2918  0.5093  1.0087
13139TIP3    H260909   6.618   3.197   3.558  0.9389  0.8286  0.1958
13140TIP3   OH260910   3.412   5.108   5.600 -0.1492 -0.9037  0.1607
13140TIP3    H160911   3.322   5.077   5.608 -0.7181  1.1829  2.1723
13140TIP3    H260912   3.458   5.069   5.675  0.0386 -0.0646  0.4927
13141TIP3   OH260913   0.124   6.694   1.230 -0.7666 -0.2620  0.0686
13141TIP3    H160914   0.177   6.616   1.210  1.8652  1.8208 -1.3544
13141TIP3    H260915   0.051   6.689   1.168  0.7232 -0.3504 -1.7365
13142TIP3   OH260916   4.963   3.215   3.010  0.8874  0.0680 -0.0228
13142TIP3    H160917   4.888   3.224   2.952  0.7098 -1.6924 -0.0731
13142TIP3    H260918   5.030   3.273   2.973 -1.0156  3.0934  1.0387
13143TIP3   OH260919   6.131   4.406   5.859 -0.2067 -0.0764  0.0100
13143TIP3    H160920   6.071   4.476   5.887  0.2266  0.8809 -1.4171
13143TIP3    H260921   6.185   4.389   5.937 -2.0611 -0.6840  1.1896
13144TIP3   OH260922   3.200   1.417  12.135  0.1478  0.4042  0.5009
13144TIP3    H160923   3.122   1.380  12.178 -0.7319  0.7875 -0.7255
13144TIP3    H260924   3.260   1.436  12.207 -0.7366 -0.2597  1.4390
13145TIP3   OH260925   6.296   0.059  15.951  0.1332 -0.3425  0.1366
13145TIP3    H160926   6.299   0.140  15.900 -1.7292 -0.2274  0.1681
13145TIP3    H260927   6.301  -0.010  15.885  1.0921 -0.2212  0.0653
13146TIP3   OH260928   4.704   6.164  16.472 -0.3428 -0.2567  0.0442
13146TIP3    H160929   4.720   6.204  16.557 -3.0821  0.9407  0.0317
13146TIP3    H260930   4.742   6.225  16.409 -0.4579  0.0433  0.2675
13147TIP3   OH260931   0.978   2.250  11.945  0.0097 -0.0136 -0.1605
13147TIP3    H160932   1.055   2.196  11.964  0.4809  0.9035  0.5707
13147TIP3    H260933   0.959   2.295  12.028 -0.9066  0.2759 -0.5193
13148TIP3   OH260934   5.028   4.433  12.996 -0.3782  0.6598  0.1858
13148TIP3    H160935   5.112   4.418  12.953 -1.5202 -1.3290 -1.4035
13148TIP3    H260936   5.001   4.520  12.964 -1.0205 -0.6067 -2.8675
13149TIP3   OH260937   5.617   5.709   3.090  0.4314 -0.0206  0.5055
13149TIP3    H160938   5.545   5.658   3.127  0.3469  0.7277  1.3922
13149TIP3    H260939   5.600   5.799   3.120  0.2868  0.6392 -1.4446
13150TIP3   OH260940   1.396   0.881   5.775  0.2982  0.3414 -0.6760
13150TIP3    H160941   1.444   0.844   5.701  3.6995 -0.2234  1.7037
13150TIP3    H260942   1.462   0.895   5.842 -2.4581  2.1834  1.7882
13151TIP3   OH260943   1.537   4.564  15.741  0.4733  0.1278  0.7898
13151TIP3    H160944   1.501   4.644  15.779  2.4123  1.1948  0.4910
13151TIP3    H260945   1.553   4.507  15.816 -2.5039 -0.6861  0.8495
13152TIP3   OH260946   5.363   3.471   2.980 -0.0440  0.1986  0.2466
13152TIP3    H160947   5.366   3.510   3.067  1.7885 -0.8246  0.6682
13152TIP3    H260948   5.371   3.377   2.996 -1.0711 -0.1033 -0.9554
13153TIP3   OH260949   5.675   5.377  10.980  0.6518  0.4254  0.9856
13153TIP3    H160950   5.580   5.369  10.987  0.6817 -0.1131  0.7542
13153TIP3    H260951   5.708   5.335  11.059  0.9204 -4.1702 -1.4462
13154TIP3   OH260952   0.546   1.864   2.238 -0.3795  0.0001 -0.2176
13154TIP3    H160953   0.468   1.878   2.184  0.4607 -2.3155 -2.1213
13154TIP3    H260954   0.620   1.874   2.179  0.6753 -0.0846  1.0540
13155TIP3   OH260955   3.172   3.284  15.061  0.5313  0.0550 -0.1782
13155TIP3    H160956   3.131   3.280  15.147 -0.6251 -1.5838 -0.7915
13155TIP3    H260957   3.174   3.378  15.039 -2.6024  0.2015 -0.0093
13156TIP3   OH260958   6.325   3.865  11.737  0.1483 -0.1751 -0.3682
13156TIP3    H160959   6.353   3.955  11.757 -1.7267  1.2203 -3.5762
13156TIP3    H260960   6.394   3.831  11.680  1.6619 -1.4255  2.1065
13157TIP3   OH260961   6.261   4.310   0.242  0.0703 -0.3934 -0.0112
13157TIP3    H160962   6.233   4.223   0.214  0.3687 -0.8343  1.0198
13157TIP3    H260963   6.226   4.369   0.175  0.1602 -1.3329 -0.9041
13158TIP3   OH260964   0.406   1.763  15.409  0.2469  0.2560 -0.4620
13158TIP3    H160965   0.428   1.726  15.495  0.4605  2.9219  0.6924
13158TIP3    H260966   0.491   1.774  15.366  0.2180 -0.1729 -0.6307
13159TIP3   OH260967   1.037   1.493   4.046  0.4597 -0.0501 -0.1053
13159TIP3    H160968   1.056   1.530   3.960  0.3488 -0.3625 -0.2610
13159TIP3    H260969   0.943   1.480   4.047  0.3406  0.8047  0.3974
13160TIP3   OH260970   4.576   3.944   3.659  0.0008  0.0963  0.1813
13160TIP3    H160971   4.656   3.985   3.625  0.5961 -1.7022 -0.6290
13160TIP3    H260972   4.540   3.897   3.584 -1.7211  0.6993  0.5994
13161TIP3   OH260973   0.564   2.915  15.328 -0.4006  0.2760 -0.4740
13161TIP3    H160974   0.504   2.841  15.339  0.0298 -0.1246 -0.7834
13161TIP3    H260975   0.507   2.992  15.323 -0.8918 -0.1060 -0.8314
13162TIP3   OH260976   0.572   6.115  14.556  0.0914  0.7425  0.0006
13162TIP3    H160977   0.551   6.074  14.472 -0.2740  2.2586 -0.6674
13162TIP3    H260978   0.585   6.042  14.616  1.4245 -0.3814 -1.6241
13163TIP3   OH260979   0.860   2.210  12.759 -0.3797  0.1404  1.0562
13163TIP3    H160980   0.778   2.221  12.711 -1.1060  3.0706  2.8225
13163TIP3    H260981   0.859   2.119  12.787 -0.0578 -1.5823 -4.1217
13164TIP3   OH260982   1.812   5.797  14.822  0.0287  0.3473 -0.1320
13164TIP3    H160983   1.887   5.813  14.879  0.0349 -0.6397  0.1323
13164TIP3    H260984   1.850   5.773  14.738  0.0170  1.5646 -0.4977
13165TIP3   OH260985   4.826   5.682   4.674  0.1858 -0.0173  0.0331
13165TIP3    H160986   4.746   5.638   4.647 -0.4446 -0.3222  2.2571
13165TIP3    H260987   4.801   5.774   4.684  0.8529  0.4080 -2.0818
13166TIP3   OH260988   4.521   5.484   2.673 -0.0886 -0.2372 -0.3562
13166TIP3    H160989   4.505   5.516   2.584 -3.5515 -2.7126 -0.7531
13166TIP3    H260990   4.589   5.419   2.663  2.4662  2.3463 -0.4945
13167TIP3   OH260991   2.527   6.259   1.554  0.4890  0.7856 -0.7995
13167TIP3    H160992   2.483   6.339   1.585  1.4668  0.9574  0.1494
13167TIP3    H260993   2.457   6.208   1.514 -1.0080  0.1659  2.4480
13168TIP3   OH260994   0.794   3.051  11.251 -0.3798  0.2622 -0.4485
13168TIP3    H160995   0.833   2.968  11.222 -1.3438  0.3009 -1.9451
13168TIP3    H260996   0.799   3.108  11.175 -1.3237  0.9970  0.0209
13169TIP3   OH260997   6.333   0.781   4.174  0.3357 -0.2962  0.4488
13169TIP3    H160998   6.392   0.853   4.196  0.1655 -0.0207  0.0055
13169TIP3    H260999   6.247   0.821   4.168  0.0679 -0.7233  1.2431
13170TIP3   OH261000   5.308   6.132  13.965 -0.2655 -0.0774  0.0044
13170TIP3    H161001   5.320   6.061  14.028  0.5591 -0.2485 -0.3317
13170TIP3    H261002   5.235   6.183  13.999  2.0608  1.5984  2.7795
13171TIP3   OH261003   0.945   4.714   6.292  0.1301 -0.1713 -0.1904
13171TIP3    H161004   0.908   4.801   6.279  0.8390  0.2133  0.3760
13171TIP3    H261005   0.919   4.689   6.381  1.2082  0.0860  0.1939
13172TIP3   OH261006   0.314   3.438   2.448  0.0206 -0.1967 -0.4014
13172TIP3    H161007   0.309   3.384   2.369  0.6618 -1.4277  0.3839
13172TIP3    H261008   0.271   3.385   2.515  0.7789  0.2116  0.4036
13173TIP3   OH261009   5.589   0.708   3.832  0.4946  0.4923 -0.0558
13173TIP3    H161010   5.576   0.688   3.739  0.7535  1.4655 -0.3124
13173TIP3    H261011   5.673   0.669   3.854  0.3832  0.1708 -0.2078
13174TIP3   OH261012   1.284   2.662   1.334 -0.5698 -0.1230 -0.3000
13174TIP3    H161013   1.204   2.666   1.281 -1.4954 -0.1952  1.0469
13174TIP3    H261014   1.302   2.753   1.357 -0.0722 -0.0750 -0.8634
13175TIP3   OH261015   3.266   6.248  15.680 -0.2134  0.1304  0.7625
13175TIP3    H161016   3.272   6.229  15.774  2.1359 -1.0999  0.4032
13175TIP3    H261017   3.262   6.161  15.639 -1.2440  0.6592 -0.2850
13176TIP3   OH261018   1.695   1.461   1.015 -0.4161 -0.0879  0.0630
13176TIP3    H161019   1.689   1.382   0.962 -0.7082  0.7059 -1.1121
13176TIP3    H261020   1.604   1.489   1.027 -0.3064  0.1574  0.3360
13177TIP3   OH261021   3.464   6.289  12.901 -0.5634  0.1992  0.3294
13177TIP3    H161022   3.557   6.308  12.916 -1.0074  0.8728  2.2966
13177TIP3    H261023   3.420   6.372  12.918 -1.5373 -0.0958 -0.6794
13178TIP3   OH261024   0.998   3.559  13.943 -0.0218 -0.2952 -0.4669
13178TIP3    H161025   1.055   3.590  14.013 -0.7427 -2.7848  1.3460
13178TIP3    H261026   1.038   3.590  13.862  3.2541 -0.9767  0.8139
13179TIP3   OH261027   0.890   4.404  16.308  0.3471  0.0933 -0.2661
13179TIP3    H161028   0.905   4.492  16.343  0.4048 -0.4966  1.2174
13179TIP3    H261029   0.795   4.394  16.309  0.2614  0.6430 -1.7263
13180TIP3   OH261030   0.162   4.781  11.926  0.3963 -0.5172 -0.0713
13180TIP3    H161031   0.097   4.758  11.859  0.2542 -1.4689  0.3882
13180TIP3    H261032   0.205   4.860  11.891 -0.7132 -0.1201 -0.5734
13181TIP3   OH261033   2.730   4.477  12.758  0.0109  0.3503  0.2067
13181TIP3    H161034   2.768   4.564  12.776  0.4817  0.4296 -1.0800
13181TIP3    H261035   2.780   4.417  12.814  2.4281  0.3916 -1.8031
13182TIP3   OH261036   2.132   6.174   4.610 -0.2434 -0.6123  0.6459
13182TIP3    H161037   2.100   6.084   4.609 -0.3201 -0.5831 -0.9696
13182TIP3    H261038   2.054   6.227   4.590  0.2553 -0.3606 -0.7051
13183TIP3   OH261039   5.954   3.758   1.306  1.0428  0.4363  0.2364
13183TIP3    H161040   5.977   3.801   1.388 -1.2969 -0.2919  1.3425
13183TIP3    H261041   5.858   3.758   1.305  1.0329 -0.1379 -2.1957
13184TIP3   OH261042   0.708   4.591  16.608 -0.0774 -0.4310 -0.9427
13184TIP3    H161043   0.729   4.641  16.529  0.2457  0.6728 -0.1730
13184TIP3    H261044   0.629   4.632  16.643 -0.5744 -1.3032 -1.0177
13185TIP3   OH261045   3.364   6.718  15.945  0.3201  0.4356 -0.6863
13185TIP3    H161046   3.300   6.749  15.881  1.0723  0.6107 -1.3643
13185TIP3    H261047   3.398   6.637  15.907 -0.7652 -0.5944  0.5027
13186TIP3   OH261048   1.976   6.551   0.871  0.3036 -0.6197 -0.3586
13186TIP3    H161049   2.000   6.581   0.959 -0.4259  1.0788 -0.7282
13186TIP3    H261050   1.885   6.520   0.880  0.1976 -0.3602 -0.5375
13187TIP3   OH261051   0.707   0.776   3.038  0.0249  0.6038 -0.2337
13187TIP3    H161052   0.728   0.702   3.094 -0.1129  0.4822 -0.3427
13187TIP3    H261053   0.715   0.853   3.095  2.0779  0.6902 -0.5718
13188TIP3   OH261054   5.920   5.725   2.378  0.3578  0.0822 -0.1511
13188TIP3    H161055   5.906   5.713   2.284  0.6070  0.3607 -0.2222
13188TIP3    H261056   5.973   5.804   2.385  0.0710  0.2413  0.2409
13189TIP3   OH261057   4.122   5.873  12.928  0.2723 -0.0796 -0.0977
13189TIP3    H161058   4.187   5.933  12.891  0.1202 -0.8431 -1.6287
13189TIP3    H261059   4.151   5.860  13.019  1.3776  0.8004 -0.3068
13190TIP3   OH261060   2.521   1.224   1.739 -0.7195  0.4298  0.7839
13190TIP3    H161061   2.441   1.276   1.745 -0.8004  0.7541 -2.3717
13190TIP3    H261062   2.569   1.262   1.666  1.3172 -1.1116  1.2804
13191TIP3   OH261063   1.865   4.158  14.622 -0.0774 -0.2182 -0.0013
13191TIP3    H161064   1.816   4.172  14.541  2.9348  0.4144 -1.8037
13191TIP3    H261065   1.922   4.234  14.629  0.8070 -1.0272  1.8950
13192TIP3   OH261066   0.678   3.890   3.455  0.6488 -0.5292 -0.1828
13192TIP3    H161067   0.683   3.831   3.380  0.9586  0.2768 -0.8029
13192TIP3    H261068   0.704   3.836   3.529 -0.6782 -1.6253 -0.4813
13193TIP3   OH261069   4.515   6.344   3.404  0.1910  0.3374  0.4425
13193TIP3    H161070   4.607   6.338   3.376 -0.2312 -0.0068 -0.9393
13193TIP3    H261071   4.500   6.437   3.418  0.1244  0.6650 -1.6158
13194TIP3   OH261072   6.210   3.909   5.329  0.1839 -0.2796 -0.0317
13194TIP3    H161073   6.199   3.822   5.291 -0.6445 -0.9128  1.5902
13194TIP3    H261074   6.289   3.944   5.288  0.7472 -1.9697 -0.3997
13195TIP3   OH261075   5.041   3.274  17.174  0.1697  0.4819  0.3873
13195TIP3    H161076   4.962   3.312  17.213  0.5160  0.9221  0.6670
13195TIP3    H261077   5.008   3.209  17.112 -0.3822  0.0098  1.1742
13196TIP3   OH261078   0.891   2.958   3.736  0.2833 -0.1800 -0.0139
13196TIP3    H161079   0.980   2.989   3.720 -0.2166  0.7116 -1.1143
13196TIP3    H261080   0.863   3.005   3.814 -0.2581  1.7849 -1.3299
13197TIP3   OH261081   5.165   6.634   6.121 -0.4095  0.3491 -0.6220
13197TIP3    H161082   5.223   6.681   6.061  0.3501 -2.7483 -2.4152
13197TIP3    H261083   5.154   6.548   6.081 -1.7800 -1.0184  2.5408
13198TIP3   OH261084   1.283   5.132  13.309 -0.1131  0.0112  0.2998
13198TIP3    H161085   1.193   5.115  13.279  0.3832  1.7359 -2.3022
13198TIP3    H261086   1.335   5.063  13.268  0.0704  0.3809 -0.0987
13199TIP3   OH261087   5.893   1.438   2.948 -0.1286 -0.0605 -0.0980
13199TIP3    H161088   5.852   1.525   2.954  0.0597 -0.1607  3.0080
13199TIP3    H261089   5.986   1.454   2.963 -0.1057 -0.8193  0.5870
13200TIP3   OH261090   3.537   4.984   5.815 -0.0518 -0.5799 -0.7440
13200TIP3    H161091   3.561   4.894   5.795 -1.3149 -0.9024 -0.8514
13200TIP3    H261092   3.541   4.989   5.910 -1.8559 -1.3159 -0.5993
13201TIP3   OH261093   1.498   4.847  15.240 -0.5322  0.4656 -0.1026
13201TIP3    H161094   1.420   4.898  15.260  0.0551  0.7705  1.4742
13201TIP3    H261095   1.538   4.892  15.165 -1.1627  1.0713 -0.0713
13202TIP3   OH261096   0.627   1.327  14.190  0.2172  0.3657  0.4855
13202TIP3    H161097   0.537   1.320  14.159  0.6807 -0.7092 -0.6283
13202TIP3    H261098   0.668   1.390  14.131  0.3431  0.4665  0.6796
13203TIP3   OH261099   2.326   5.850   2.029 -0.4430  0.2394 -0.3896
13203TIP3    H161100   2.322   5.755   2.019  1.1033  0.1317 -0.0256
13203TIP3    H261101   2.376   5.880   1.953 -1.4263  0.8336 -0.8194
13204TIP3   OH261102   4.383   3.856   4.956 -0.1395 -0.0058 -0.2750
13204TIP3    H161103   4.370   3.799   4.880  1.0419 -1.0553  0.2850
13204TIP3    H261104   4.333   3.813   5.026  0.1277  0.0594 -0.0441
13205TIP3   OH261105   3.413   5.747   4.211  0.1233 -0.3047  0.0140
13205TIP3    H161106   3.486   5.715   4.158 -1.4242 -5.2603  0.6081
13205TIP3    H261107   3.342   5.684   4.195 -3.4497  3.2761  0.9103
13206TIP3   OH261108   1.587   3.399  15.322 -0.2951 -0.5213  0.1855
13206TIP3    H161109   1.564   3.398  15.415 -1.1365  1.3285  0.0264
13206TIP3    H261110   1.516   3.352  15.279  0.7923 -2.6033  0.5864
13207TIP3   OH261111   0.366   0.538   3.914  0.4281 -0.3921 -0.8908
13207TIP3    H161112   0.289   0.482   3.925  1.2587 -1.0853  2.0875
13207TIP3    H261113   0.425   0.510   3.985  3.3652  0.2141 -3.0260
13208TIP3   OH261114   6.329   2.702   1.009  0.1510  0.1297  0.5721
13208TIP3    H161115   6.393   2.698   0.939 -0.4429 -2.5482  0.1145
13208TIP3    H261116   6.272   2.776   0.986  0.5782 -0.0806 -1.2292
13209TIP3   OH261117   5.768   5.871   4.732 -0.3679 -0.2608 -0.2725
13209TIP3    H161118   5.674   5.872   4.715 -0.0076 -0.7072 -2.3874
13209TIP3    H261119   5.799   5.957   4.702 -0.1240 -0.0034  0.6820
13210TIP3   OH261120   5.052   0.360  13.474  0.5360 -0.1338 -0.2448
13210TIP3    H161121   5.036   0.447  13.508 -0.8543 -1.0905  1.6053
13210TIP3    H261122   5.123   0.325  13.528  2.0432  0.3163 -1.8620
13211TIP3   OH261123   1.558   0.153  15.621 -0.0324 -0.1081 -0.8593
13211TIP3    H161124   1.597   0.167  15.708 -0.3068  0.9886 -0.9107
13211TIP3    H261125   1.616   0.199  15.561 -0.4308  0.0259 -1.1411
13212TIP3   OH261126   0.156   2.034   0.924 -0.3875  0.3128 -0.2954
13212TIP3    H161127   0.074   1.986   0.918 -0.3518  0.4898 -2.4274
13212TIP3    H261128   0.133   2.125   0.903  0.4715  0.2239 -1.6593
13213TIP3   OH261129   6.755   5.048   1.962  0.1687 -0.2639  0.0308
13213TIP3    H161130   6.672   5.083   1.995 -0.1139 -0.8785 -0.0174
13213TIP3    H261131   6.818   5.067   2.032 -0.2793 -0.9235  0.6158
13214TIP3   OH261132   4.261   4.368   2.028  0.1254  0.3825 -0.2254
13214TIP3    H161133   4.301   4.282   2.040 -0.4620  0.1863  0.3408
13214TIP3    H261134   4.321   4.428   2.074 -0.8063 -0.0548  1.6011
13215TIP3   OH261135   3.769   3.100   0.458  0.3137 -0.6365  0.2448
13215TIP3    H161136   3.756   3.192   0.434  2.2469  0.4923  3.2264
13215TIP3    H261137   3.856   3.079   0.423  0.6427 -0.7407  1.1010
13216TIP3   OH261138   4.946   1.765  15.273  0.5813  0.2806 -0.6177
13216TIP3    H161139   5.032   1.801  15.295  0.6893 -0.2531 -0.1684
13216TIP3    H261140   4.884   1.834  15.299  0.7900  0.1523  0.2304
13217TIP3   OH261141   1.308   2.744   3.574  0.3876  0.0774 -0.6062
13217TIP3    H161142   1.383   2.721   3.628 -0.5610  0.2582  0.8128
13217TIP3    H261143   1.300   2.840   3.583  0.3163  0.1255 -1.1702
13218TIP3   OH261144   2.435   2.712   4.030  0.1468 -0.3347  0.9223
13218TIP3    H161145   2.464   2.731   4.119 -0.8064 -0.4287  1.2537
13218TIP3    H261146   2.372   2.641   4.040 -2.3939  1.7969  0.5296
13219TIP3   OH261147   4.444   1.952  14.045 -0.0285 -0.1430  0.4556
13219TIP3    H161148   4.424   1.980  13.956  0.6319  1.9742  0.9565
13219TIP3    H261149   4.387   2.005  14.101 -0.0696 -1.0854  1.3286
13220TIP3   OH261150   5.955   2.439   5.472 -0.0603  0.0759  0.0263
13220TIP3    H161151   5.955   2.346   5.495  0.8007 -0.1551 -0.8776
13220TIP3    H261152   5.909   2.444   5.388  0.0088  0.4483  0.0083
13221TIP3   OH261153   0.674   4.149   6.520 -0.0075 -0.2295 -0.7845
13221TIP3    H161154   0.659   4.055   6.510  2.1635 -0.4470 -2.4894
13221TIP3    H261155   0.768   4.157   6.537 -0.4163  1.5585  0.8963
13222TIP3   OH261156   1.866   5.631  16.368  0.1686 -0.3683 -0.3018
13222TIP3    H161157   1.814   5.555  16.393 -0.2835  0.6452  1.9887
13222TIP3    H261158   1.938   5.632  16.431  1.6165 -0.3667 -1.9387
13223TIP3   OH261159   2.295   6.093   5.472 -0.3248  0.4820 -0.0353
13223TIP3    H161160   2.223   6.057   5.420 -1.9066 -1.3399  3.2737
13223TIP3    H261161   2.253   6.125   5.552  2.4473 -0.1202  1.7372
13224TIP3   OH261162   1.929   0.513   4.467 -0.0955 -0.2943 -0.0947
13224TIP3    H161163   1.943   0.444   4.403  1.0554 -0.3627  0.2183
13224TIP3    H261164   2.017   0.542   4.491 -0.5429  0.6418  0.4686
13225TIP3   OH261165   4.217   5.766   2.963 -0.2959 -0.1695 -0.1244
13225TIP3    H161166   4.140   5.807   3.002 -0.5692  1.9139 -2.6794
13225TIP3    H261167   4.182   5.701   2.902  0.0629 -1.2249  0.7701
13226TIP3   OH261168   4.049   4.332  13.471 -0.0464  0.9354 -0.3540
13226TIP3    H161169   4.103   4.397  13.515 -0.5114  0.8558  0.3373
13226TIP3    H261170   3.984   4.306  13.536  0.3812 -0.5185 -0.4807
13227TIP3   OH261171   1.253   1.033  11.357 -0.1817  0.5149  0.2861
13227TIP3    H161172   1.204   1.070  11.283  0.1111 -0.4630 -0.4188
13227TIP3    H261173   1.341   1.022  11.323  0.5734  2.3481  1.5839
13228TIP3   OH261174   5.946   1.394  12.729 -0.6444 -0.0823 -0.2889
13228TIP3    H161175   5.898   1.315  12.705  0.4995 -0.5147 -1.2029
13228TIP3    H261176   6.013   1.403  12.662  0.0445  0.9649  0.5140
13229TIP3   OH261177   1.172   3.610   4.462 -0.9692 -0.3416 -0.2311
13229TIP3    H161178   1.172   3.554   4.540  0.9235  2.7362  2.0748
13229TIP3    H261179   1.241   3.574   4.406 -1.3596 -1.6942  0.1346
13230TIP3   OH261180   3.475   5.679  14.215  0.1576  0.3921 -0.7399
13230TIP3    H161181   3.458   5.771  14.238  0.6587  0.6359 -1.3282
13230TIP3    H261182   3.560   5.660  14.254 -0.6174 -0.2798  0.6557
13231TIP3   OH261183   6.124   3.296   0.661 -0.0128  0.3592 -0.1847
13231TIP3    H161184   6.218   3.283   0.674 -0.4417 -0.7305  2.1979
13231TIP3    H261185   6.109   3.388   0.683  0.3022  0.1956  0.7197
13232TIP3   OH261186   3.318   4.232   0.095  0.2136  0.7578  0.6700
13232TIP3    H161187   3.346   4.150   0.134  1.0750  0.7900  0.1581
13232TIP3    H261188   3.334   4.220   0.001 -3.6860 -0.0550  0.0470
13233TIP3   OH261189   3.745   2.425   0.703 -1.0221 -0.3855 -0.9608
13233TIP3    H161190   3.683   2.489   0.668  1.2849  1.3626 -1.9894
13233TIP3    H261191   3.772   2.373   0.627  0.4485  0.3459 -0.9679
13234TIP3   OH261192   1.465   1.924   0.401  0.2720  0.5226  0.4386
13234TIP3    H161193   1.372   1.923   0.377  0.4734 -2.1377 -0.3708
13234TIP3    H261194   1.507   1.971   0.329 -0.1676 -0.3213 -0.3879
13235TIP3   OH261195   5.809   0.292   6.313  0.7736  0.0157 -0.5426
13235TIP3    H161196   5.900   0.305   6.339  0.2862 -0.5094  1.5249
13235TIP3    H261197   5.760   0.358   6.362 -0.0546 -0.2639 -0.9739
13236TIP3   OH261198   5.465   1.198  10.934 -0.7253  0.6284  0.0049
13236TIP3    H161199   5.440   1.141  10.861 -2.1440 -0.6082  1.4153
13236TIP3    H261200   5.450   1.287  10.901  2.0816  0.2520 -2.4231
13237TIP3   OH261201   5.426   2.130  12.177 -0.2670 -0.1215 -0.3174
13237TIP3    H161202   5.462   2.077  12.106 -0.6699  2.0536 -2.1905
13237TIP3    H261203   5.491   2.125  12.246  1.9415  0.7543 -2.2619
13238TIP3   OH261204   0.884   1.735   5.932 -0.0175  0.0097  0.4692
13238TIP3    H161205   0.857   1.726   5.841  0.8093 -0.0310  0.2246
13238TIP3    H261206   0.886   1.830   5.947  1.6568  0.0826 -0.1142
13239TIP3   OH261207   0.687   0.947   0.508  0.3216  0.3218 -0.3431
13239TIP3    H161208   0.757   0.999   0.468  0.7383  0.0700  0.0573
13239TIP3    H261209   0.660   0.886   0.439  0.3680  0.5447 -0.5584
13240TIP3   OH261210   6.102   4.209  13.303 -0.2448  0.4624  0.6519
13240TIP3    H161211   6.043   4.202  13.227  0.9792  0.1714 -0.2874
13240TIP3    H261212   6.127   4.301  13.305 -0.3429  0.4868  0.7549
13241TIP3   OH261213   6.160   0.757   0.128 -1.0426 -0.2635  0.1945
13241TIP3    H161214   6.110   0.677   0.110 -1.3553  0.1670 -0.9166
13241TIP3    H261215   6.112   0.799   0.199  0.7574 -2.4757  2.8200
13242TIP3   OH261216   5.390   5.119   1.508  0.8401  0.3034 -0.1259
13242TIP3    H161217   5.438   5.041   1.479 -0.1209 -0.4960  0.4181
13242TIP3    H261218   5.380   5.171   1.428  0.4882 -0.6616 -0.7197
13243TIP3   OH261219   4.181   0.144  13.419 -0.1532 -0.7790  0.4260
13243TIP3    H161220   4.087   0.124  13.420 -0.0270 -1.3944  0.3113
13243TIP3    H261221   4.219   0.078  13.362  0.2084  0.1622 -0.4330
13244TIP3   OH261222   2.562   4.548   0.391  0.0431  0.1810  0.0349
13244TIP3    H161223   2.531   4.620   0.445  2.0209  1.6390 -0.7087
13244TIP3    H261224   2.614   4.590   0.323 -0.5395 -1.8015 -1.6685
13245TIP3   OH261225   6.170   5.829  11.409 -0.0714  0.6270 -0.2252
13245TIP3    H161226   6.248   5.880  11.385 -0.3242  1.2744  0.3303
13245TIP3    H261227   6.146   5.861  11.496  0.4410 -1.2394  0.6168
13246TIP3   OH261228   1.494   6.708  15.510  0.0070  0.1386  0.1864
13246TIP3    H161229   1.413   6.694  15.557  0.6772  0.9884  1.6264
13246TIP3    H261230   1.525   6.794  15.540  0.7569  0.4250 -1.3350
13247TIP3   OH261231   0.147   0.067   6.310  0.2367 -0.1769 -0.1973
13247TIP3    H161232   0.173   0.020   6.389 -0.9412 -0.8837 -0.2218
13247TIP3    H261233   0.137  -0.000   6.244 -1.2793  0.1185 -0.2793
13248TIP3   OH261234   6.104   1.192  11.473  0.1103 -0.4557  0.3114
13248TIP3    H161235   6.192   1.230  11.473 -0.1895  0.2699 -0.8270
13248TIP3    H261236   6.091   1.162  11.383 -1.8669  2.0069 -0.2763
13249TIP3   OH261237   3.886   5.139   0.756 -0.4923  0.9296 -0.3040
13249TIP3    H161238   3.906   5.170   0.844 -0.8986 -0.5723  0.3146
13249TIP3    H261239   3.829   5.064   0.768 -0.0797  0.3437 -1.8218
13250TIP3   OH261240   5.951   4.682  11.527 -0.7314  0.5934 -0.4300
13250TIP3    H161241   6.014   4.731  11.579 -1.1920  1.1056 -0.3540
13250TIP3    H261242   5.890   4.748  11.494 -0.5895  0.2446 -1.4084
13251TIP3   OH261243   5.110   4.053  13.914 -0.0589  0.1917  0.2476
13251TIP3    H161244   5.039   4.100  13.869 -0.1291  0.7532  0.9330
13251TIP3    H261245   5.108   3.965  13.876  0.3549  0.8557 -1.3739
13252TIP3   OH261246   5.253   1.879  14.408 -0.4272 -0.1557  0.1398
13252TIP3    H161247   5.222   1.816  14.342 -1.1396  0.1675  0.1668
13252TIP3    H261248   5.231   1.965  14.371 -1.8701 -0.0095  1.3084
13253TIP3   OH261249   6.551   2.513   5.911 -0.1530  0.1828  0.1118
13253TIP3    H161250   6.502   2.441   5.871 -0.1513  0.3417 -0.1741
13253TIP3    H261251   6.532   2.506   6.005 -0.0030 -0.3068  0.1086
13254TIP3   OH261252   5.905   1.246  13.552 -0.1313  0.1653  0.0006
13254TIP3    H161253   5.893   1.313  13.485  0.0076  0.4034  0.2136
13254TIP3    H261254   5.959   1.179  13.510 -1.0047 -0.2296 -0.5013
13255TIP3   OH261255   2.885   5.107   5.135 -0.1111 -1.0903  0.5151
13255TIP3    H161256   2.926   5.076   5.216 -0.0317 -0.1642  0.8301
13255TIP3    H261257   2.800   5.062   5.134 -0.2841 -0.7988  1.3206
13256TIP3   OH261258   3.391   1.784   1.439 -0.2305  0.3270  0.5293
13256TIP3    H161259   3.303   1.788   1.403  0.8984  0.1069 -2.4110
13256TIP3    H261260   3.423   1.874   1.437 -0.3067  0.3849  1.4551
13257TIP3   OH261261   0.265   0.761  11.615 -0.0283  0.0608  0.0637
13257TIP3    H161262   0.291   0.785  11.704  0.6884 -0.0864 -0.1026
13257TIP3    H261263   0.195   0.822  11.593 -0.1600  0.1447  0.7032
13258TIP3   OH261264   1.856   1.925  12.513 -0.0254  0.0339  0.3234
13258TIP3    H161265   1.893   1.993  12.458 -0.8157 -0.8887 -1.3857
13258TIP3    H261266   1.763   1.948  12.521  0.0795  0.1680  1.3079
13259TIP3   OH261267   2.280   3.020   5.801 -0.0839  0.5786 -0.4008
13259TIP3    H161268   2.238   3.051   5.881 -2.2167 -1.1950 -0.7727
13259TIP3    H261269   2.305   3.099   5.754  0.5940  1.6491  1.6848
13260TIP3   OH261270   2.862   2.202  15.994 -0.0623  0.1176  0.4305
13260TIP3    H161271   2.769   2.184  15.989 -0.2896  0.6831  2.2814
13260TIP3    H261272   2.896   2.181  15.907 -1.3567 -3.2188  0.6698
13261TIP3   OH261273   1.447   2.612  13.265  0.0135 -0.0064  0.4187
13261TIP3    H161274   1.538   2.627  13.293  0.5323  1.0572 -1.7179
13261TIP3    H261275   1.406   2.571  13.340  2.8307 -2.5716  0.6581
13262TIP3   OH261276   0.634   3.347   3.459  0.2426 -0.0322 -0.0000
13262TIP3    H161277   0.717   3.361   3.505  0.6391 -0.2629 -0.6420
13262TIP3    H261278   0.645   3.393   3.376  0.4746 -1.7418 -0.9181
13263TIP3   OH261279   0.058   2.222  13.302 -0.0329 -0.2147 -0.0160
13263TIP3    H161280  -0.003   2.163  13.257  0.5389 -1.1957  0.4836
13263TIP3    H261281   0.059   2.301  13.248 -1.8282 -0.1457  0.0231
13264TIP3   OH261282   1.458   5.022   3.640 -0.1744 -0.4100 -0.3121
13264TIP3    H161283   1.480   5.046   3.730  0.9905  0.3703 -0.7930
13264TIP3    H261284   1.501   4.937   3.627 -1.2616 -1.0557  0.2090
13265TIP3   OH261285   3.292   0.258  16.878  0.1474  0.2759  0.1834
13265TIP3    H161286   3.255   0.246  16.791  0.7785 -0.8113  0.0643
13265TIP3    H261287   3.387   0.255  16.865  0.2843  1.5831  0.7001
13266TIP3   OH261288   3.003   3.896   2.168  0.0862  0.3323 -0.2779
13266TIP3    H161289   3.045   3.953   2.232  1.1089  0.3506 -0.9473
13266TIP3    H261290   3.070   3.883   2.100 -0.5157 -0.7674 -0.6728
13267TIP3   OH261291   2.804   1.341  11.850 -0.8129 -0.1786 -0.4174
13267TIP3    H161292   2.801   1.381  11.937 -2.4969  1.3803 -1.1646
13267TIP3    H261293   2.878   1.281  11.854  1.8408  3.0307  0.7296
13268TIP3   OH261294   3.893   0.487  12.991  0.2069 -0.3232 -0.6323
13268TIP3    H161295   3.952   0.526  12.926  1.7148  1.1465  1.5749
13268TIP3    H261296   3.806   0.498  12.953  1.1289 -0.6320 -2.9763
13269TIP3   OH261297   3.852   5.805   2.537 -0.2943 -0.6160 -0.0243
13269TIP3    H161298   3.817   5.883   2.581 -1.2821 -0.9809 -0.1693
13269TIP3    H261299   3.947   5.814   2.547 -0.3974  0.5724  0.0264
13270TIP3   OH261300   1.473   2.422   1.030 -0.1921 -0.2532  0.2873
13270TIP3    H161301   1.467   2.413   1.125 -0.7092  2.4262  0.5462
13270TIP3    H261302   1.567   2.419   1.012 -0.0934 -0.8089  0.8706
13271TIP3   OH261303   1.131   3.703  11.389 -0.1083 -0.1522 -0.2474
13271TIP3    H161304   1.072   3.744  11.326 -0.3017 -1.3100 -0.8453
13271TIP3    H261305   1.096   3.728  11.475 -2.1955 -1.7521 -0.5684
13272TIP3   OH261306   0.483   5.576  13.919  0.2224  0.1169 -0.0037
13272TIP3    H161307   0.392   5.604  13.909  0.2775  0.3336  0.0970
13272TIP3    H261308   0.506   5.538  13.834 -0.6014 -1.7977  0.6015
13273TIP3   OH261309   1.114   1.648  14.287 -0.0858 -0.0644 -0.4289
13273TIP3    H161310   1.033   1.636  14.237  0.8516  1.0083 -2.3061
13273TIP3    H261311   1.160   1.565  14.279 -1.3578 -0.9582  1.3506
13274TIP3   OH261312   4.604   5.925   1.493 -0.4165 -0.5217 -0.4163
13274TIP3    H161313   4.522   5.967   1.519 -0.0421  1.9783 -2.9493
13274TIP3    H261314   4.580   5.833   1.478 -1.8361 -0.7261  2.7130
13275TIP3   OH261315   2.663   3.106   2.512  0.0704  0.4250  0.7087
13275TIP3    H161316   2.589   3.149   2.556  0.6576  0.5374  1.6004
13275TIP3    H261317   2.670   3.021   2.554  1.5791  1.1044  1.9077
13276TIP3   OH261318   4.649   2.096  11.104  0.0849 -0.2909 -0.0881
13276TIP3    H161319   4.733   2.069  11.067 -0.6368 -0.6638 -1.5441
13276TIP3    H261320   4.605   2.013  11.124  0.5650 -0.0831  1.8757
13277TIP3   OH261321   2.826   2.857   1.497  0.3455 -0.0326  0.2462
13277TIP3    H161322   2.735   2.835   1.482  0.3221  0.0256  0.3036
13277TIP3    H261323   2.842   2.834   1.588  1.2052 -2.8686 -0.5701
13278TIP3   OH261324   6.312   6.145  14.261 -0.2671 -0.1931 -0.3786
13278TIP3    H161325   6.280   6.230  14.231  0.9824  0.6874  0.7511
13278TIP3    H261326   6.378   6.120  14.197  0.4270  0.3966  0.0982
13279TIP3   OH261327   5.074   3.551   5.662 -0.1064  0.5452 -0.1227
13279TIP3    H161328   5.040   3.488   5.598 -2.2290  1.2343  0.2943
13279TIP3    H261329   5.098   3.497   5.738 -0.1616  0.0322 -0.4678
13280TIP3   OH261330   0.445   2.149   2.391  0.6865  0.0702 -0.0923
13280TIP3    H161331   0.520   2.154   2.451  1.3999  1.5139 -1.0548
13280TIP3    H261332   0.389   2.221   2.417 -0.1826 -0.7679  0.3667
13281TIP3   OH261333   6.752   4.756  12.679  0.5444  0.1351  0.1882
13281TIP3    H161334   6.771   4.691  12.612  1.6507 -0.3842  0.9751
13281TIP3    H261335   6.674   4.725  12.724  0.4825 -0.1244 -0.1083
13282TIP3   OH261336   3.146   6.707  11.994 -0.5344 -0.5128  0.1175
13282TIP3    H161337   3.094   6.658  11.931  1.6208 -2.0143 -0.5443
13282TIP3    H261338   3.105   6.794  11.997 -2.5031 -1.3742 -1.0214
13283TIP3   OH261339   3.607   5.159  12.274 -0.9219 -0.6007 -0.0129
13283TIP3    H161340   3.528   5.105  12.285  0.3117 -2.1452  1.6567
13283TIP3    H261341   3.599   5.228  12.339 -1.2162 -0.3464 -0.3171
13284TIP3   OH261342   0.939   5.770  13.804 -0.2004  0.2025 -0.3747
13284TIP3    H161343   0.899   5.854  13.782 -1.6843 -0.1909  0.7896
13284TIP3    H261344   1.022   5.793  13.846 -0.8327  1.0968  0.3949
13285TIP3   OH261345   4.246   3.369  10.705 -0.1009  0.5361 -0.0747
13285TIP3    H161346   4.315   3.308  10.680  1.2165  1.8849  0.2200
13285TIP3    H261347   4.265   3.448  10.654 -1.0867  1.1174  0.4630
13286TIP3   OH261348   3.269   1.541   5.250 -0.6078  0.3539 -0.1268
13286TIP3    H161349   3.265   1.448   5.230 -0.2451  0.3214 -0.0649
13286TIP3    H261350   3.331   1.576   5.185 -0.1041  0.4024  0.3703
13287TIP3   OH261351   3.649   4.118  13.171 -0.3864 -0.6915  0.3451
13287TIP3    H161352   3.612   4.077  13.249 -0.2066 -1.3237  0.1030
13287TIP3    H261353   3.733   4.152  13.199  0.2850 -2.1123  0.1059
13288TIP3   OH261354   0.021   3.089  11.872  0.1723  0.4477  0.7576
13288TIP3    H161355  -0.021   3.104  11.957 -0.3843 -2.9414  1.1594
13288TIP3    H261356   0.115   3.095  11.891  0.0875 -1.1361  1.8570
13289TIP3   OH261357   6.745   5.142   2.309 -0.1662 -0.3419  0.1491
13289TIP3    H161358   6.658   5.146   2.269 -0.5276 -0.4839  0.9099
13289TIP3    H261359   6.741   5.067   2.368 -0.0775  0.6558  1.4525
13290TIP3   OH261360   2.321   4.954  15.011  0.0212 -0.0824  0.0021
13290TIP3    H161361   2.345   5.046  14.997 -0.0646  0.0994  1.0178
13290TIP3    H261362   2.330   4.914  14.925  2.0653  0.4174 -0.0398
13291TIP3   OH261363   5.149   3.782   3.391  0.0172  0.3233  0.3683
13291TIP3    H161364   5.188   3.839   3.457 -0.0755  2.0777 -1.0619
13291TIP3    H261365   5.078   3.833   3.354  0.8492 -0.1559 -1.9502
13292TIP3   OH261366   0.532   4.923  12.905  0.1127  0.0008  0.7611
13292TIP3    H161367   0.585   4.981  12.961  1.3284  0.6748 -1.0507
13292TIP3    H261368   0.517   4.846  12.959 -0.0009  1.2418  2.5714
13293TIP3   OH261369   1.246   6.335   3.109  0.5020  0.4612 -0.3267
13293TIP3    H161370   1.152   6.339   3.096  0.2933 -0.7597  0.6766
13293TIP3    H261371   1.279   6.285   3.034  0.2257  0.0149 -0.1514
13294TIP3   OH261372   2.339   1.279  12.883 -0.3844  0.5267  0.2147
13294TIP3    H161373   2.300   1.359  12.848 -0.4193  0.2682 -0.3399
13294TIP3    H261374   2.414   1.262  12.826 -0.4687  0.0764  0.2365
13295TIP3   OH261375   4.795   5.511   6.132  0.2827 -0.3168  0.2894
13295TIP3    H161376   4.816   5.604   6.119  0.6506 -0.3720  0.5066
13295TIP3    H261377   4.749   5.486   6.052  1.5291 -0.3516 -0.4168
13296TIP3   OH261378   1.377   4.727   1.689  0.3984  0.0239  0.6609
13296TIP3    H161379   1.325   4.788   1.740 -1.0383  0.7962 -1.6619
13296TIP3    H261380   1.379   4.764   1.601 -0.8524 -3.4426 -0.9081
13297TIP3   OH261381   5.529   4.287  14.093 -0.4239  0.5856  0.3753
13297TIP3    H161382   5.446   4.308  14.051  0.3823 -0.1147 -1.6302
13297TIP3    H261383   5.595   4.300  14.025  0.9334 -0.5980  1.4111
13298TIP3   OH261384   1.620   3.625   5.614  0.0047 -0.2227 -0.0158
13298TIP3    H161385   1.648   3.704   5.568  2.1140 -0.5013  0.7399
13298TIP3    H261386   1.628   3.646   5.706  1.8158 -1.7087  0.2024
13299TIP3   OH261387   1.908   6.204  15.095  0.2081  0.5568 -0.2692
13299TIP3    H161388   1.988   6.158  15.119 -1.1404 -0.6731  2.1302
13299TIP3    H261389   1.860   6.142  15.039  1.1931  1.5447 -2.2425
13300TIP3   OH261390   0.868   0.719   1.423 -0.3319 -0.6115 -0.0885
13300TIP3    H161391   0.796   0.657   1.429  1.1588 -2.4721 -1.1047
13300TIP3    H261392   0.908   0.719   1.510 -1.0436 -0.1930  0.2409
13301TIP3   OH261393   2.330   2.155   1.952  0.3344 -0.6961 -0.5016
13301TIP3    H161394   2.323   2.072   1.905 -1.0348 -0.7643 -0.2037
13301TIP3    H261395   2.308   2.134   2.043  1.8820 -0.3613 -0.0448
13302TIP3   OH261396   3.948   1.102   1.586 -0.0413  0.0343 -0.4764
13302TIP3    H161397   4.032   1.146   1.598 -1.5942  2.2102  3.2398
13302TIP3    H261398   3.921   1.125   1.497  1.5521  2.3970 -0.3847
13303TIP3   OH261399   3.301   5.684  15.906 -0.1108 -0.0836  0.0167
13303TIP3    H161400   3.391   5.674  15.876  0.4164  0.5536  1.3439
13303TIP3    H261401   3.253   5.612  15.864  1.0841 -0.6391 -0.4000
13304TIP3   OH261402   4.036   4.489   4.730  0.5922  0.0019 -0.0241
13304TIP3    H161403   4.070   4.405   4.760 -2.5292 -1.7453 -1.1734
13304TIP3    H261404   3.972   4.466   4.663  1.5381  3.4335 -2.2198
13305TIP3   OH261405   3.091   3.619   4.676 -0.5255  0.0967 -0.1508
13305TIP3    H161406   3.079   3.571   4.758 -2.1290 -0.5380 -0.7340
13305TIP3    H261407   3.124   3.705   4.703  1.3442 -0.9533  0.9745
13306TIP3   OH261408   3.980   2.240   4.396  0.4110 -0.1175 -0.1377
13306TIP3    H161409   3.913   2.301   4.425 -0.3481 -1.0274  0.0504
13306TIP3    H261410   4.018   2.281   4.318 -0.6750  0.1911 -0.5072
13307TIP3   OH261411   2.656   3.028   3.101 -0.1813 -0.1039  0.4732
13307TIP3    H161412   2.695   2.941   3.107  1.0607  0.4802  0.9290
13307TIP3    H261413   2.653   3.045   3.007  0.3628 -0.2856  0.4195
13308TIP3   OH261414   3.706   6.734  13.929 -0.2066  0.4098 -0.0422
13308TIP3    H161415   3.751   6.663  13.975 -1.2187  0.4817  1.1129
13308TIP3    H261416   3.618   6.700  13.914 -0.3162  0.9459 -0.6188
13309TIP3   OH261417   3.146   4.303  15.859 -0.0471  0.1840 -0.1727
13309TIP3    H161418   3.091   4.374  15.891 -1.7971 -0.7950 -0.9285
13309TIP3    H261419   3.084   4.241  15.820  1.4557 -1.7193  0.4259
13310TIP3   OH261420   5.866   0.233   4.483  0.1565  0.4081 -0.1775
13310TIP3    H161421   5.782   0.219   4.528 -0.2708  0.3594 -0.9929
13310TIP3    H261422   5.849   0.302   4.420  0.2987 -0.7494 -1.5026
13311TIP3   OH261423   5.959   3.359   3.756 -0.3169 -0.3604  0.2891
13311TIP3    H161424   5.954   3.344   3.851 -2.7093 -0.5009  0.1782
13311TIP3    H261425   5.919   3.445   3.744  0.8647  0.0844 -0.5098
13312TIP3   OH261426   1.098   6.298  11.872  0.0554  0.0147  0.2030
13312TIP3    H161427   1.037   6.364  11.840 -0.0573 -0.6559 -0.9999
13312TIP3    H261428   1.047   6.247  11.935  0.1228  1.0190  1.0818
13313TIP3   OH261429   2.119   1.537   0.322  0.4411  0.9123 -0.4455
13313TIP3    H161430   2.143   1.562   0.412  2.1431  1.0689 -0.9139
13313TIP3    H261431   2.203   1.512   0.282 -0.2793  1.0334 -2.0455
13314TIP3   OH261432   3.311   1.374  16.808  0.4155 -0.3724  0.7354
13314TIP3    H161433   3.252   1.448  16.811  2.0045  0.9483  0.3698
13314TIP3    H261434   3.273   1.315  16.743 -0.6357  0.3139  0.7236
13315TIP3   OH261435   5.742   1.285   3.499  0.4455  0.3683  0.3277
13315TIP3    H161436   5.707   1.313   3.414  0.6689  1.6985  0.6643
13315TIP3    H261437   5.673   1.231   3.537  0.2333 -0.0042 -0.5793
13316TIP3   OH261438   0.479   2.403   2.259 -0.5333  0.2966 -0.2408
13316TIP3    H161439   0.409   2.418   2.322 -0.6021  1.2272 -0.5448
13316TIP3    H261440   0.549   2.462   2.286  0.0550 -0.4702 -0.0729
13317TIP3   OH261441   3.880   2.631  15.182  0.7376  0.1390 -0.2490
13317TIP3    H161442   3.872   2.712  15.130 -0.4604  1.0039  1.2622
13317TIP3    H261443   3.790   2.605  15.199  1.1327 -1.1458 -0.1232
13318TIP3   OH261444   6.345   3.977  13.700 -0.3039  0.0036  0.3378
13318TIP3    H161445   6.353   4.047  13.765  0.6731  1.1446 -0.9930
13318TIP3    H261446   6.280   4.009  13.637  0.5253 -0.0543 -0.5634
13319TIP3   OH261447   2.512   5.676   3.032  0.3434 -0.2167  0.5162
13319TIP3    H161448   2.451   5.749   3.041  0.7624  0.3389 -1.0137
13319TIP3    H261449   2.596   5.711   3.059  0.6673  0.0699 -0.8189
13320TIP3   OH261450   6.026   5.898  13.149  0.4070 -0.5669 -0.4742
13320TIP3    H161451   6.001   5.835  13.081  1.9376  0.6273 -2.1990
13320TIP3    H261452   6.117   5.876  13.170  0.4551  0.0900  0.0369
13321TIP3   OH261453   1.190   2.165   3.588  0.6372 -0.0812 -0.3214
13321TIP3    H161454   1.105   2.122   3.599  1.0453 -1.1007 -1.0510
13321TIP3    H261455   1.169   2.246   3.542 -0.0561  0.1471  0.3900
13322TIP3   OH261456   5.573   6.007  14.653 -0.4929  0.3466 -0.7638
13322TIP3    H161457   5.618   5.943  14.598 -1.0287 -0.3420 -0.4156
13322TIP3    H261458   5.514   5.954  14.708 -1.2693  1.1794 -0.7838
13323TIP3   OH261459   2.203   5.784  11.822 -0.2353 -0.3088 -0.4748
13323TIP3    H161460   2.240   5.803  11.736 -0.8056  1.0374 -0.4478
13323TIP3    H261461   2.148   5.860  11.841 -0.7324 -0.9570  0.7354
13324TIP3   OH261462   4.755   6.155  15.859  0.0101  0.1263  0.8087
13324TIP3    H161463   4.784   6.144  15.769 -2.1802  0.0074  0.0783
13324TIP3    H261464   4.732   6.248  15.866 -0.5937 -0.0304  0.9852
13325TIP3   OH261465   2.314   1.652   2.368  0.0585  0.1221 -0.4924
13325TIP3    H161466   2.400   1.617   2.348 -0.5701 -1.3392 -0.6938
13325TIP3    H261467   2.261   1.630   2.291 -1.0832 -1.0829  0.6150
13326TIP3   OH261468   3.936   1.921   6.015  0.3132  0.2074 -0.8609
13326TIP3    H161469   3.886   2.002   6.024 -1.5274 -0.9254 -0.7359
13326TIP3    H261470   3.967   1.902   6.103  0.2039  0.4120 -0.7776
13327TIP3   OH261471   0.032   4.400  12.662 -0.6565  0.7090 -0.3728
13327TIP3    H161472   0.014   4.316  12.706 -0.0158 -1.0799 -3.3423
13327TIP3    H261473   0.016   4.466  12.729 -2.8907 -1.6896  1.5858
13328TIP3   OH261474   3.027   3.968  14.394 -0.1348 -0.8044 -0.3112
13328TIP3    H161475   3.063   3.987  14.481  0.3775  2.1640 -1.1202
13328TIP3    H261476   3.014   3.873  14.394  0.5393 -0.9600  2.7379
13329TIP3   OH261477   5.834   0.800  11.961  0.6024 -0.0436 -0.2744
13329TIP3    H161478   5.827   0.893  11.941 -1.4839 -0.4604 -1.6613
13329TIP3    H261479   5.748   0.764  11.938  1.4340 -2.3444  0.0648
13330TIP3   OH261480   1.656   4.859  11.621 -0.4875  0.4633  0.7471
13330TIP3    H161481   1.627   4.838  11.532  0.0651 -0.9808  0.8898
13330TIP3    H261482   1.752   4.850  11.618 -0.5238 -0.3757  1.6712
13331TIP3   OH261483   4.068   2.790   4.057 -0.0265  0.6903  0.1986
13331TIP3    H161484   3.979   2.754   4.053  1.3621 -2.8669  0.2460
13331TIP3    H261485   4.067   2.847   4.134 -1.6219 -1.0880  1.5348
13332TIP3   OH261486   1.845   1.172  12.130  0.3929  0.5640 -0.5497
13332TIP3    H161487   1.910   1.203  12.193 -0.2912  0.0199  0.4332
13332TIP3    H261488   1.769   1.148  12.183 -0.1722  0.0362 -1.5748
13333TIP3   OH261489   1.133   2.024  16.598  0.6195 -0.0095  0.1354
13333TIP3    H161490   1.071   2.045  16.528  1.1997 -0.4586 -0.5213
13333TIP3    H261491   1.128   2.099  16.657  0.1679  0.4073 -0.4184
13334TIP3   OH261492   3.180   3.013  14.191 -0.0823 -0.1230 -0.3504
13334TIP3    H161493   3.168   2.929  14.235  0.1589 -0.1906 -0.4113
13334TIP3    H261494   3.243   2.995  14.121  1.3986  0.4972  0.7881
13335TIP3   OH261495   2.783   2.793   6.203  0.5403  0.5608 -0.0626
13335TIP3    H161496   2.836   2.721   6.238  0.9439  0.7306 -0.3198
13335TIP3    H261497   2.718   2.811   6.271  0.3430 -0.1497 -0.0607
13336TIP3   OH261498   1.358   1.496   1.579  0.4258  0.0920  0.1595
13336TIP3    H161499   1.315   1.535   1.503  0.2719  2.7573  1.5269
13336TIP3    H261500   1.319   1.409   1.587 -0.5864  0.3118 -1.9490
13337TIP3   OH261501   4.799   6.220   0.277 -0.0884  0.3177 -0.0855
13337TIP3    H161502   4.803   6.124   0.279  0.5383  0.3386 -0.3515
13337TIP3    H261503   4.856   6.247   0.349  0.1553  0.5018 -0.3483
13338TIP3   OH261504   5.578   1.099   2.897  0.1494 -0.0357 -0.0374
13338TIP3    H161505   5.588   1.134   2.986  1.2716 -1.4913  0.4161
13338TIP3    H261506   5.641   1.028   2.891 -1.6972 -1.6512 -1.1382
13339TIP3   OH261507   3.362   1.019   2.528 -0.2520 -0.0633 -0.3646
13339TIP3    H161508   3.311   1.045   2.605  1.1623  0.3849  0.4441
13339TIP3    H261509   3.307   1.043   2.454 -2.0869 -1.4455  0.4966
13340TIP3   OH261510   3.226   1.010  11.940  0.1316 -0.0172 -0.1495
13340TIP3    H161511   3.224   0.918  11.913 -2.0564 -0.2978  0.8496
13340TIP3    H261512   3.284   1.012  12.015  1.7089 -0.2345 -1.3420
13341TIP3   OH261513   3.338   4.722  12.613 -0.4639 -0.3598  0.4923
13341TIP3    H161514   3.258   4.774  12.606  0.7661  1.4001 -1.1543
13341TIP3    H261515   3.310   4.640  12.654 -2.5529  1.3604  2.6606
13342TIP3   OH261516   6.169   6.295   3.251  0.6448  0.0324  0.5540
13342TIP3    H161517   6.244   6.270   3.305 -0.1242 -4.1014 -0.1381
13342TIP3    H261518   6.094   6.253   3.293 -0.6840  0.7288 -1.0537
13343TIP3   OH261519   1.119   5.311  13.154  0.3586  0.6540  0.0822
13343TIP3    H161520   1.148   5.365  13.227  0.7393 -0.3108  0.6569
13343TIP3    H261521   1.054   5.365  13.108  0.1331  1.2706  1.1151
13344TIP3   OH261522   1.470   4.450   5.528  0.5259  0.3011  0.5738
13344TIP3    H161523   1.419   4.457   5.608 -1.0600 -2.6796 -0.1092
13344TIP3    H261524   1.557   4.421   5.557 -0.1181 -1.0253  1.2221
13345TIP3   OH261525   3.464   1.608   2.988 -0.3395 -0.0360 -0.1950
13345TIP3    H161526   3.454   1.639   2.898 -0.3388  0.7476  0.0668
13345TIP3    H261527   3.390   1.549   3.002 -0.6170  0.2249 -0.5509
13346TIP3   OH261528   2.929   5.827  16.187 -0.2664  0.4252  0.1784
13346TIP3    H161529   2.991   5.887  16.146 -0.5549  1.3857  1.1529
13346TIP3    H261530   2.984   5.763  16.233  0.0213  0.5174 -0.0365
13347TIP3   OH261531   1.464   5.999  14.700  0.1422 -0.1956 -0.7772
13347TIP3    H161532   1.457   5.991  14.795  1.8989 -1.3145 -0.7201
13347TIP3    H261533   1.390   5.948  14.666  1.1223 -2.1403 -0.0480
13348TIP3   OH261534   2.263   6.656   2.678 -0.1275 -0.0560 -0.5170
13348TIP3    H161535   2.178   6.668   2.722 -0.1550 -2.3734  0.1697
13348TIP3    H261536   2.319   6.619   2.746  0.3420 -2.0422 -1.9480
13349TIP3   OH261537   0.606   4.596   5.377  0.4329 -0.8083 -0.2359
13349TIP3    H161538   0.607   4.506   5.411  0.0354 -0.5033  0.5944
13349TIP3    H261539   0.513   4.615   5.363  0.3588  0.2321  1.6278
13350TIP3   OH261540   0.817   5.870  11.185  0.4213  0.2035  0.4980
13350TIP3    H161541   0.825   5.960  11.152 -1.1923  1.0784  2.3919
13350TIP3    H261542   0.742   5.835  11.137 -0.0096  0.4447  0.9920
13351TIP3   OH261543   1.724   4.386  16.278 -0.2421 -0.0634 -0.2309
13351TIP3    H161544   1.744   4.390  16.371  0.0415 -0.6769 -0.2652
13351TIP3    H261545   1.708   4.294  16.260  2.7994 -0.4142 -1.4175
13352TIP3   OH261546   5.982   2.255   6.176 -0.3012  0.1330  0.2196
13352TIP3    H161547   6.041   2.229   6.247 -0.9962 -2.1237  0.0284
13352TIP3    H261548   5.914   2.308   6.218  1.2951  1.9391  0.6001
13353TIP3   OH261549   5.708   0.348   5.335 -0.7135  0.3190  0.2824
13353TIP3    H161550   5.638   0.394   5.382  0.4514  0.7770  1.5870
13353TIP3    H261551   5.730   0.274   5.391 -1.4027 -0.8763 -1.0027
13354TIP3   OH261552   5.514   5.224  16.693 -0.3429 -0.6337  0.0352
13354TIP3    H161553   5.580   5.158  16.672  0.8771  0.9884 -1.3334
13354TIP3    H261554   5.549   5.272  16.767  0.7513  1.1849 -1.6089
13355TIP3   OH261555   4.804   4.919   6.004  0.0959 -0.1182  0.3215
13355TIP3    H161556   4.848   4.990   5.957  0.0135  0.4827  1.1512
13355TIP3    H261557   4.721   4.956   6.033 -1.0040 -1.2678 -1.2773
13356TIP3   OH261558   4.314   0.459   1.382  0.0895 -0.3907  0.1692
13356TIP3    H161559   4.233   0.410   1.397  0.2294 -0.7358 -0.1764
13356TIP3    H261560   4.284   0.547   1.357 -0.2637 -1.1378 -2.2357
13357TIP3   OH261561   4.317   1.132   3.307 -0.1111 -0.0252 -0.1500
13357TIP3    H161562   4.223   1.149   3.299 -0.2488 -1.0459 -0.7185
13357TIP3    H261563   4.357   1.182   3.236 -0.1358  1.0806  0.5986
13358TIP3   OH261564   2.739   2.505   6.043 -0.0777 -0.5221  0.2446
13358TIP3    H161565   2.825   2.546   6.056  0.2003 -0.8098 -0.6537
13358TIP3    H261566   2.747   2.419   6.084 -0.1101 -0.3564  0.6082
13359TIP3   OH261567   4.780   0.511   1.725 -0.3740 -0.0415  0.1650
13359TIP3    H161568   4.721   0.441   1.753 -0.6893  0.0989 -0.1417
13359TIP3    H261569   4.861   0.494   1.773 -0.2150 -1.0263 -0.4200
13360TIP3   OH261570   1.008   2.849   1.456 -0.3602  0.0679  0.3774
13360TIP3    H161571   1.103   2.846   1.453 -0.3436  0.2787  0.7763
13360TIP3    H261572   0.986   2.938   1.429 -0.4713 -0.1737 -0.3571
13361TIP3   OH261573   4.393   3.198  12.515  0.1393 -0.2513  0.3978
13361TIP3    H161574   4.469   3.252  12.539 -0.2518 -0.3212  1.7865
13361TIP3    H261575   4.330   3.212  12.585 -1.3740  0.2516 -1.0442
13362TIP3   OH261576   6.643   2.206  13.889 -0.0073 -0.4323 -0.0611
13362TIP3    H161577   6.665   2.246  13.805  0.4187 -0.0088  0.2507
13362TIP3    H261578   6.610   2.119  13.866  1.2995 -0.8037 -0.5991
13363TIP3   OH261579   0.300   6.477   6.583  0.4498 -0.0037  0.3102
13363TIP3    H161580   0.320   6.439   6.497  2.2221  1.4812  0.0524
13363TIP3    H261581   0.375   6.533   6.603 -1.0992  1.6350  1.6908
13364TIP3   OH261582   0.634   0.085   0.396 -0.3566 -0.0646 -0.5184
13364TIP3    H161583   0.641   0.023   0.324  1.0368  1.4005 -1.6662
13364TIP3    H261584   0.542   0.082   0.421 -0.4837 -1.9565 -1.1010
13365TIP3   OH261585   5.647   5.076  17.110  0.0356 -0.7294  0.2279
13365TIP3    H161586   5.565   5.107  17.070 -0.0460 -0.3244  0.6971
13365TIP3    H261587   5.618   5.024  17.185  0.1942 -1.1848 -0.0250
13366TIP3   OH261588   2.340   1.567  14.871  0.1672  0.1528 -0.7376
13366TIP3    H161589   2.253   1.561  14.832  0.7415  0.4745 -2.0916
13366TIP3    H261590   2.324   1.599  14.960 -0.9967  1.6772 -1.4579
13367TIP3   OH261591   3.156   3.197   5.226  0.3183  0.3966 -0.1587
13367TIP3    H161592   3.174   3.267   5.289  1.8886 -0.3666  0.2663
13367TIP3    H261593   3.216   3.215   5.153 -0.7273  0.6490 -0.9817
13368TIP3   OH261594   2.418   4.126   4.714  0.1983 -0.1268  0.0523
13368TIP3    H161595   2.354   4.130   4.785 -1.3006 -0.7338 -1.2347
13368TIP3    H261596   2.503   4.133   4.758 -0.6799 -0.9742  1.9448
13369TIP3   OH261597   0.918   1.901  14.392  0.5035 -0.4516 -0.2308
13369TIP3    H161598   0.946   1.820  14.433 -0.0836 -0.0645  0.9346
13369TIP3    H261599   0.998   1.954  14.387  0.4144 -0.1830  1.1582
13370TIP3   OH261600   5.017   2.558  17.249 -0.4928  0.1563 -0.0357
13370TIP3    H161601   4.952   2.508  17.298  0.8532 -0.7919  0.7994
13370TIP3    H261602   5.054   2.496  17.188  0.3462  0.4424  0.1828
13371TIP3   OH261603   5.631   3.721   4.717 -0.3322  0.0886 -0.1370
13371TIP3    H161604   5.676   3.669   4.651 -0.6568  1.0038 -1.0951
13371TIP3    H261605   5.538   3.703   4.703 -0.4215  0.5737 -0.1810
13372TIP3   OH261606   5.080   2.537   4.567  0.0963 -0.1239  0.4523
13372TIP3    H161607   5.015   2.467   4.576 -1.0234  0.8851  0.3754
13372TIP3    H261608   5.143   2.504   4.504 -1.0267 -0.6289 -0.4194
13373TIP3   OH261609   5.380   3.389   4.748 -0.2516  0.1135 -0.1345
13373TIP3    H161610   5.381   3.461   4.811 -2.7969 -0.5511  0.7267
13373TIP3    H261611   5.331   3.320   4.792  1.1874 -1.7388 -1.3960
13374TIP3   OH261612   4.744   5.462  14.963 -0.0646 -0.0899 -0.3211
13374TIP3    H161613   4.649   5.476  14.955  0.0104  0.0668 -1.0437
13374TIP3    H261614   4.761   5.464  15.057 -0.5640  1.3036 -0.2571
13375TIP3   OH261615   1.539   4.212  12.752 -0.0102  0.2740 -0.0340
13375TIP3    H161616   1.625   4.185  12.785  0.1730  3.0867  1.9527
13375TIP3    H261617   1.558   4.277  12.685 -0.5842  1.1425  0.6383
13376TIP3   OH261618   5.058   1.644   3.529 -0.2417  0.0320 -0.0124
13376TIP3    H161619   5.133   1.675   3.579 -1.1180  0.9336  0.7823
13376TIP3    H261620   5.089   1.637   3.439 -0.4756  5.1747 -0.6290
13377TIP3   OH261621   5.425   6.573  11.847 -0.0707 -0.4509 -0.3976
13377TIP3    H161622   5.430   6.500  11.785  2.0869 -0.3519 -0.4062
13377TIP3    H261623   5.470   6.645  11.803 -0.4257  0.2765  0.4119
13378TIP3   OH261624   4.937   0.578  16.108 -0.3678 -0.1351  0.4212
13378TIP3    H161625   4.909   0.642  16.042 -1.4681  0.1274  1.1257
13378TIP3    H261626   5.032   0.572  16.097 -0.7104 -1.1868 -2.1460
13379TIP3   OH261627   1.846   5.340  10.552  0.3297 -0.5024  0.0196
13379TIP3    H161628   1.796   5.375  10.478 -0.4461  1.9031  1.6006
13379TIP3    H261629   1.781   5.329  10.621  1.4591 -0.3179  1.1232
13380TIP3   OH261630   6.261   5.952   5.638 -0.1007  0.2340  0.2375
13380TIP3    H161631   6.274   5.857   5.644 -0.7279  0.2578  1.9209
13380TIP3    H261632   6.177   5.968   5.680 -0.3296  1.4662 -0.6664
13381TIP3   OH261633   1.404   1.357  12.866 -0.4814 -0.1892 -0.1015
13381TIP3    H161634   1.452   1.274  12.874 -1.1299 -0.5296  0.3109
13381TIP3    H261635   1.313   1.334  12.887 -0.3625  0.9788  1.7631
13382TIP3   OH261636   1.066   4.689  11.582  0.1658  0.7617  0.7382
13382TIP3    H161637   1.157   4.660  11.588 -0.4381 -1.3420  0.1636
13382TIP3    H261638   1.041   4.708  11.672  0.9511  0.7207  0.9719
13383TIP3   OH261639   0.238   2.544   0.553 -0.1150 -0.2234 -0.0199
13383TIP3    H161640   0.229   2.450   0.537  1.9962 -0.4317 -0.1272
13383TIP3    H261641   0.320   2.567   0.510  0.7146  1.1556  2.2555
13384TIP3   OH261642   4.588   2.555   0.933  0.0291 -0.3485 -0.4580
13384TIP3    H161643   4.649   2.498   0.886  0.3027  0.6071 -1.2681
13384TIP3    H261644   4.643   2.603   0.995 -0.0402 -0.1644 -0.5397
13385TIP3   OH261645   5.487   2.704   5.782  0.6499  0.0447  0.4250
13385TIP3    H161646   5.555   2.687   5.717  1.8441  1.0204  1.4106
13385TIP3    H261647   5.491   2.628   5.841  0.2087 -0.3750 -0.0793
13386TIP3   OH261648   6.735   4.138   4.943  0.1989  0.3077 -0.2887
13386TIP3    H161649   6.681   4.083   5.001  0.1454 -1.0925 -1.6380
13386TIP3    H261650   6.814   4.086   4.927  1.5071  1.8900  0.7933
13387TIP3   OH261651   2.804   0.479   0.078 -1.0148 -0.7349  0.2071
13387TIP3    H161652   2.803   0.511   0.168  3.1944 -1.0084  0.4764
13387TIP3    H261653   2.770   0.389   0.084 -0.1801 -0.9712  1.6438
13388TIP3   OH261654   0.548   0.926   0.225 -0.6481 -0.0316  0.9182
13388TIP3    H161655   0.539   0.833   0.203 -0.8137  0.4865 -1.3697
13388TIP3    H261656   0.462   0.951   0.257 -0.1835 -1.0082  2.9837
13389TIP3   OH261657   5.670   2.633   0.812 -0.5820  0.0534 -0.5161
13389TIP3    H161658   5.732   2.671   0.875 -1.7354 -2.0362  1.9829
13389TIP3    H261659   5.686   2.682   0.731  4.8256 -0.8685 -0.2232
13390TIP3   OH261660   3.968   1.085   2.903 -0.8166  0.1631 -0.0514
13390TIP3    H161661   4.051   1.069   2.949 -0.6447  1.5074  0.1268
13390TIP3    H261662   3.902   1.089   2.972 -1.0827 -1.1116 -0.2091
13391TIP3   OH261663   4.649   4.520   0.445  0.1073  0.1321 -0.0187
13391TIP3    H161664   4.585   4.589   0.463  1.0973  1.3027 -0.9092
13391TIP3    H261665   4.629   4.492   0.355  0.4258  0.0628 -0.0685
13392TIP3   OH261666   4.248   2.496  10.854  0.1544  0.2217  0.0675
13392TIP3    H161667   4.157   2.515  10.877  0.2700  0.3613  0.4190
13392TIP3    H261668   4.298   2.569  10.893  0.3766  0.3428 -0.4378
13393TIP3   OH261669   4.653   4.086  12.000  0.6356  0.1966 -0.3621
13393TIP3    H161670   4.620   4.138  12.073  3.3340  0.2273  0.9091
13393TIP3    H261671   4.742   4.118  11.986  0.7500 -0.9685 -2.5830
13394TIP3   OH261672   3.191   5.117   4.587 -0.3113 -0.6174  0.1236
13394TIP3    H161673   3.269   5.062   4.578  0.8463  0.7432  1.5491
13394TIP3    H261674   3.172   5.116   4.681 -2.9518 -2.1635 -0.3708
13395TIP3   OH261675   1.354   5.404  14.053  0.3272  0.3483 -0.1618
13395TIP3    H161676   1.386   5.376  13.967 -1.5244 -1.0129 -0.4409
13395TIP3    H261677   1.369   5.328  14.110 -0.2775  0.5347  0.2495
13396TIP3   OH261678   2.051   3.234   4.839 -0.5979  0.1834  0.0467
13396TIP3    H161679   1.986   3.284   4.889  0.1791  0.9992  0.2488
13396TIP3    H261680   2.000   3.183   4.776 -1.3901  1.2629 -0.1858
13397TIP3   OH261681   3.984   1.192   0.739  0.6488 -0.2773  0.2040
13397TIP3    H161682   3.928   1.115   0.748 -2.4884  2.0882  1.5859
13397TIP3    H261683   4.057   1.162   0.684 -1.6726 -3.5775 -1.2154
13398TIP3   OH261684   0.278   5.906   0.512 -0.2691  0.3397  0.6363
13398TIP3    H161685   0.183   5.901   0.524 -0.2813  0.1046  0.4451
13398TIP3    H261686   0.297   5.999   0.514 -0.6223  0.4363 -0.2443
13399TIP3   OH261687   5.580   0.160   4.449 -0.2724 -0.2182 -0.3060
13399TIP3    H161688   5.577   0.218   4.373  1.5379 -1.2325 -1.1826
13399TIP3    H261689   5.499   0.109   4.443 -0.2568 -0.1216 -1.4155
13400TIP3   OH261690   3.019   2.830   1.948 -0.1682 -0.2222  0.0409
13400TIP3    H161691   3.106   2.791   1.959  0.3643  0.1814 -2.3962
13400TIP3    H261692   3.030   2.894   1.877 -2.9593 -1.8094 -1.9286
13401TIP3   OH261693   6.129   4.456  16.360  0.3773 -0.1535  0.6392
13401TIP3    H161694   6.085   4.541  16.355 -1.0357 -0.9378 -0.9015
13401TIP3    H261695   6.095   4.417  16.441 -0.4856 -0.0392  0.3431
13402TIP3   OH261696   6.756   6.638  15.055  0.0381 -0.4015  0.4273
13402TIP3    H161697   6.678   6.685  15.085  0.0544  0.6962 -1.1562
13402TIP3    H261698   6.725   6.580  14.986  0.6715  0.3089 -0.4657
13403TIP3   OH261699   4.854   0.983  14.871  0.7091 -0.1725  0.3713
13403TIP3    H161700   4.863   1.009  14.780 -1.0535 -0.0198  0.2263
13403TIP3    H261701   4.759   0.975  14.885  1.0103 -1.6469  1.7782
13404TIP3   OH261702   4.497   4.317  16.809 -0.0059  0.0032  0.0632
13404TIP3    H161703   4.458   4.263  16.740  1.6567 -1.1389 -0.0091
13404TIP3    H261704   4.512   4.257  16.882  0.3199  0.7224  0.5951
13405TIP3   OH261705   4.860   1.463   3.648  0.1418 -0.1049  0.3011
13405TIP3    H161706   4.785   1.518   3.624 -0.6702 -1.7378 -0.9566
13405TIP3    H261707   4.936   1.514   3.621 -0.5537  0.8723  0.1443
13406TIP3   OH261708   0.831   2.040   4.036  0.1959  0.4273 -0.0690
13406TIP3    H161709   0.866   2.103   3.973 -1.0127 -0.0069 -1.1774
13406TIP3    H261710   0.832   1.957   3.990  1.1604 -0.2590  1.1662
13407TIP3   OH261711   4.739   0.656   3.003  0.4489  0.4939 -0.4067
13407TIP3    H161712   4.775   0.613   2.926 -0.6508  0.1488 -0.7298
13407TIP3    H261713   4.796   0.629   3.075  0.6640 -0.2787 -0.8689
13408TIP3   OH261714   0.095   3.697   4.543 -0.6597 -0.1174  0.2052
13408TIP3    H161715   0.115   3.620   4.490 -1.5591  0.2811 -0.7607
13408TIP3    H261716   0.005   3.683   4.572 -1.2854  1.1058 -1.0164
13409TIP3   OH261717   6.223   5.192   3.748  0.0001 -0.3964 -0.2195
13409TIP3    H161718   6.221   5.269   3.691  0.8991  0.4796  0.8929
13409TIP3    H261719   6.132   5.166   3.757 -0.3403  0.7253 -0.3581
13410TIP3   OH261720   6.048   5.098   4.952  0.2747 -0.2208 -0.5951
13410TIP3    H161721   6.094   5.135   5.027  0.0060 -0.6334 -0.2221
13410TIP3    H261722   5.966   5.148   4.948 -0.1192 -0.8226 -0.0481
13411TIP3   OH261723   1.025   0.072   4.479  0.6764  0.4349  0.4463
13411TIP3    H161724   1.036   0.165   4.501  2.1310  0.4097 -0.1315
13411TIP3    H261725   0.943   0.047   4.521  0.1396  2.0551  0.3877
13412TIP3   OH261726   4.622   2.456   3.378 -0.1483  0.2635 -0.4490
13412TIP3    H161727   4.659   2.486   3.294  1.5097 -1.0873 -0.2412
13412TIP3    H261728   4.678   2.497   3.444  0.8490 -1.5625 -0.1206
13413TIP3   OH261729   1.978   5.434  16.769 -0.1740 -0.1799  0.0865
13413TIP3    H161730   2.061   5.412  16.812 -0.0972 -0.1287 -0.0379
13413TIP3    H261731   1.957   5.522  16.800 -0.7568 -0.6353  1.0021
13414TIP3   OH261732   4.993   6.041  15.015 -0.1389 -0.3535  0.4748
13414TIP3    H161733   5.055   6.047  14.943 -2.0717 -0.2492 -1.2021
13414TIP3    H261734   4.994   5.949  15.040 -0.9530 -0.7639 -1.0071
13415TIP3   OH261735   5.049   4.516   0.500 -0.0444  0.1303  0.0918
13415TIP3    H161736   5.128   4.463   0.512 -0.9604 -1.2946 -0.0574
13415TIP3    H261737   5.025   4.544   0.588 -1.4822 -2.5714  0.6081
13416TIP3   OH261738   3.973   5.505   4.754 -0.5611  0.3333 -0.1940
13416TIP3    H161739   3.939   5.577   4.807  0.2235  0.4615  0.1482
13416TIP3    H261740   3.932   5.516   4.668 -0.5848  1.0843 -0.0876
13417TIP3   OH261741   3.483   1.921  13.254 -0.5005 -1.0416 -0.2064
13417TIP3    H161742   3.427   1.983  13.302  0.4176 -0.2989 -0.0932
13417TIP3    H261743   3.421   1.868  13.204 -1.2532  0.4343 -0.8688
13418TIP3   OH261744   1.481   1.061  16.152  0.0434  0.0112  0.5975
13418TIP3    H161745   1.526   1.110  16.084  0.1744 -1.9725 -0.8013
13418TIP3    H261746   1.544   0.992  16.177 -0.3758  0.1321  2.0284
13419TIP3   OH261747   2.731   4.650  11.114 -0.6992  0.0810  0.1995
13419TIP3    H161748   2.662   4.686  11.171  0.5572  0.3408  1.5920
13419TIP3    H261749   2.744   4.716  11.047 -1.6424  0.1370  0.0663
13420TIP3   OH261750   5.359   5.539   5.938 -0.3116 -0.0872  0.2637
13420TIP3    H161751   5.329   5.537   5.847 -1.1673 -0.3461  0.5439
13420TIP3    H261752   5.341   5.451   5.970  1.1635 -0.3706  0.3157
13421TIP3   OH261753   4.975   5.477   4.723 -0.0696 -0.1053 -0.4795
13421TIP3    H161754   4.951   5.469   4.815  1.2280 -1.5512 -0.2419
13421TIP3    H261755   4.916   5.544   4.688 -0.4065  0.6260  1.4441
13422TIP3   OH261756   5.802   0.812  16.259  0.2873 -0.1578 -0.1886
13422TIP3    H161757   5.807   0.809  16.163  0.3788  0.8268 -0.2243
13422TIP3    H261758   5.807   0.905  16.280 -1.0643 -0.2758  0.7091
13423TIP3   OH261759   1.703   6.553   4.712  0.7027  0.0029 -0.3237
13423TIP3    H161760   1.694   6.532   4.619 -1.5033 -1.7279  0.2484
13423TIP3    H261761   1.617   6.535   4.750  1.3526  1.4031  1.9250
13424TIP3   OH261762   3.142   4.221   0.806  0.0084 -0.2696 -0.0684
13424TIP3    H161763   3.120   4.181   0.890 -0.1190  0.1356  0.0873
13424TIP3    H261764   3.209   4.287   0.827  0.1807 -0.3600 -0.3215
13425TIP3   OH261765   1.226   2.445  10.995  0.2040  0.2269 -0.2517
13425TIP3    H161766   1.236   2.401  10.910 -1.0212 -2.9578  1.1558
13425TIP3    H261767   1.313   2.444  11.033  0.0758 -1.6874  0.0408
13426TIP3   OH261768   4.211   1.210   1.577 -0.4511 -0.3172 -0.1300
13426TIP3    H161769   4.295   1.166   1.570 -0.9035 -1.3635  0.7454
13426TIP3    H261770   4.232   1.303   1.583  0.5748 -0.4840 -1.0022
13427TIP3   OH261771   4.394   5.680  16.990  0.0487  0.6418  0.1081
13427TIP3    H161772   4.340   5.723  16.923 -0.7623 -0.5730 -0.0276
13427TIP3    H261773   4.443   5.613  16.942  1.4944  1.5445  0.2807
13428TIP3   OH261774   5.614   5.941  13.503 -0.2830  0.2062 -0.6614
13428TIP3    H161775   5.643   5.956  13.593  1.8708  0.0531 -1.3195
13428TIP3    H261776   5.625   5.847  13.489  1.0718  0.5018 -1.6544
13429TIP3   OH261777   4.764   4.822   2.607  0.2148 -0.3335 -0.0805
13429TIP3    H161778   4.790   4.840   2.517 -1.0195  0.8655 -0.2310
13429TIP3    H261779   4.806   4.891   2.659 -0.2973 -0.1052  0.0436
13430TIP3   OH261780   0.057   0.479  13.073 -0.4215 -0.4383  0.0306
13430TIP3    H161781   0.103   0.435  13.001  0.8284 -0.2260  0.6883
13430TIP3    H261782   0.107   0.455  13.151 -0.2320  1.4593  0.5016
13431TIP3   OH261783   0.483   6.119  14.083  0.3213  0.1106  0.1304
13431TIP3    H161784   0.538   6.074  14.019  0.1389  2.3988 -1.7161
13431TIP3    H261785   0.524   6.205  14.093 -1.4952  0.9460  0.6310
13432TIP3   OH261786   1.654   0.744  12.990  0.4888 -0.2103  0.3945
13432TIP3    H161787   1.651   0.686  13.067 -2.0818 -0.6811 -0.0053
13432TIP3    H261788   1.612   0.825  13.020 -2.4822 -1.1395 -1.0562
13433TIP3   OH261789   4.616   1.953   5.581 -0.0712  0.3677  0.0945
13433TIP3    H161790   4.556   2.024   5.559  0.0165  0.3218 -0.3033
13433TIP3    H261791   4.669   1.988   5.652 -0.3616  0.5204  0.2347
13434TIP3   OH261792   2.674   2.099   3.082 -0.2502 -0.0528  0.1295
13434TIP3    H161793   2.748   2.089   3.022  0.0883  0.3097  0.4834
13434TIP3    H261794   2.694   2.040   3.155 -0.1539  0.2732  0.3704
13435TIP3   OH261795   5.202   5.795  12.634 -0.2311  0.0523  0.5757
13435TIP3    H161796   5.127   5.853  12.617  0.0887 -0.0958 -1.4698
13435TIP3    H261797   5.272   5.830  12.579  0.5928 -1.0533  0.9037
13436TIP3   OH261798   4.522   5.855  17.171  0.0351  0.4177 -0.1123
13436TIP3    H161799   4.515   5.779  17.228  1.2408 -0.0890 -0.6063
13436TIP3    H261800   4.455   5.842  17.103  0.6930 -0.5627 -0.5869
13437TIP3   OH261801   0.429   5.706   0.449 -0.3847 -0.2189 -0.0111
13437TIP3    H161802   0.386   5.790   0.466  0.5431  0.1846  0.3862
13437TIP3    H261803   0.424   5.659   0.532 -1.0154 -0.6167 -0.2679
13438TIP3   OH261804   4.324   0.203  16.912  0.0126  0.0828  0.2412
13438TIP3    H161805   4.327   0.281  16.968  1.9319  0.2070 -0.0208
13438TIP3    H261806   4.317   0.130  16.974  0.7042  0.3091  0.5989
13439TIP3   OH261807   4.962   1.991  10.787 -0.0786  0.4722  0.1066
13439TIP3    H161808   5.052   1.962  10.778 -0.1780  1.5465 -6.2013
13439TIP3    H261809   4.966   2.086  10.780 -1.6747  0.5952  0.5275
13440TIP3   OH261810   1.377   4.683   4.654  0.4086 -0.2382 -0.4735
13440TIP3    H161811   1.469   4.658   4.668  1.3195  2.0374 -2.2079
13440TIP3    H261812   1.343   4.618   4.593  1.2830 -0.2540 -0.9459
13441TIP3   OH261813   0.093   3.633  11.705  0.1251 -0.4314 -0.7478
13441TIP3    H161814   0.131   3.684  11.633  0.4279  0.0304 -0.2685
13441TIP3    H261815   0.109   3.542  11.681 -0.6033 -0.3167 -1.7223
13442TIP3   OH261816   2.399   3.407   4.459  0.6723  0.0470 -0.2302
13442TIP3    H161817   2.463   3.401   4.388  1.9655 -2.0522  1.0509
13442TIP3    H261818   2.429   3.481   4.512  1.7337 -0.5585  0.0326
13443TIP3   OH261819   0.874   2.233  13.462 -0.0544 -0.3969  0.7487
13443TIP3    H161820   0.964   2.259  13.442 -0.5977  1.4034  0.5628
13443TIP3    H261821   0.851   2.170  13.394  0.1385  1.2197 -0.8539
13444TIP3   OH261822   0.509   0.443  15.203 -0.2557 -0.1091 -0.1270
13444TIP3    H161823   0.463   0.526  15.188  0.3350  0.2057 -0.2254
13444TIP3    H261824   0.446   0.389  15.250 -0.7871  0.2531 -0.4220
13445TIP3   OH261825   1.847   5.081  12.363  0.1672 -0.1495 -0.3393
13445TIP3    H161826   1.851   5.072  12.459 -0.1911  1.7609 -0.1207
13445TIP3    H261827   1.782   5.150  12.349 -1.8729 -2.3286 -2.1021
13446TIP3   OH261828   2.605   5.580  13.919 -0.0743 -0.2391 -0.4126
13446TIP3    H161829   2.611   5.675  13.934 -1.2503 -0.1124 -0.6798
13446TIP3    H261830   2.578   5.572  13.828 -1.5433 -0.7788  0.0536
13447TIP3   OH261831   6.075   0.883   4.108 -1.0697 -0.4106  0.1093
13447TIP3    H161832   6.133   0.938   4.056 -0.7020 -0.3396  0.5941
13447TIP3    H261833   6.038   0.821   4.045  0.0846 -0.9217 -0.0696
13448TIP3   OH261834   3.936   0.300   1.508  0.0703  0.1373  0.3127
13448TIP3    H161835   3.936   0.353   1.429  1.6125  1.5324  1.2341
13448TIP3    H261836   4.012   0.243   1.499  0.5173  0.6156  0.9826
13449TIP3   OH261837   6.290   0.779  15.276 -0.0555  0.6393  0.3092
13449TIP3    H161838   6.288   0.871  15.300  1.3474  0.6181  0.5508
13449TIP3    H261839   6.332   0.736  15.351  1.1105  0.0920 -0.6362
13450TIP3   OH261840   1.623   2.734  14.956 -0.2103  0.4541 -0.4528
13450TIP3    H161841   1.593   2.667  14.894  2.5020 -2.1440  0.8881
13450TIP3    H261842   1.560   2.729  15.028 -0.8288  0.3367 -0.9955
13451TIP3   OH261843   3.372   3.884  15.977  0.0027  0.1130  0.0081
13451TIP3    H161844   3.429   3.868  16.053 -0.1304  0.2125  0.1292
13451TIP3    H261845   3.284   3.885  16.014 -0.3172 -2.6738 -0.5478
13452TIP3   OH261846   5.387   1.305   0.817 -0.2160 -0.0672 -0.1769
13452TIP3    H161847   5.480   1.307   0.841 -0.1498  0.1213 -0.4453
13452TIP3    H261848   5.344   1.262   0.891  0.0609  0.0170  0.0351
13453TIP3   OH261849   2.247   4.727  16.990  0.3144  0.2678 -0.0229
13453TIP3    H161850   2.213   4.775  16.914 -0.2249 -0.3422 -0.1725
13453TIP3    H261851   2.335   4.699  16.964  1.1050  2.2037  0.5118
13454TIP3   OH261852   4.930   6.247   5.508 -0.2261 -0.5408 -0.2987
13454TIP3    H161853   4.959   6.288   5.589  1.5895 -1.2497 -0.5698
13454TIP3    H261854   4.961   6.157   5.514 -2.1520 -1.2545 -0.7381
13455TIP3   OH261855   2.141   2.142   1.328  0.0864 -0.0002  0.4033
13455TIP3    H161856   2.156   2.233   1.354  0.1716 -0.1577  0.8945
13455TIP3    H261857   2.194   2.130   1.250 -3.4123  1.7764 -2.4328
13456TIP3   OH261858   3.294   6.623   4.690  0.4194  0.3404 -0.2369
13456TIP3    H161859   3.200   6.612   4.708  0.4340  0.0466 -0.3375
13456TIP3    H261860   3.314   6.556   4.625  0.1424  2.1242 -2.1927
13457TIP3   OH261861   1.408   5.080  10.908  0.2224 -0.1823 -0.6287
13457TIP3    H161862   1.460   5.045  10.836 -0.3992 -0.7011 -0.8238
13457TIP3    H261863   1.318   5.081  10.876  0.1384  1.0018 -0.4007
13458TIP3   OH261864   4.354   5.741   5.609 -0.2402 -0.2879  0.5200
13458TIP3    H161865   4.296   5.759   5.683 -0.6476 -1.3224  0.4548
13458TIP3    H261866   4.435   5.710   5.649  0.1600  0.8248  0.5959
13459TIP3   OH261867   6.452   0.003   4.735  0.1366 -0.4027 -0.3486
13459TIP3    H161868   6.460  -0.087   4.766 -0.8154 -0.1649  0.6111
13459TIP3    H261869   6.383   0.042   4.789  1.6123  1.3669  0.3325
13460TIP3   OH261870   2.728   6.587  17.156 -0.1464  0.2680  0.0858
13460TIP3    H161871   2.809   6.592  17.105  0.7758 -1.3687  1.3268
13460TIP3    H261872   2.658   6.592  17.091  0.9713  0.1845 -1.1388
13461TIP3   OH261873   3.699   0.464   6.332 -0.1523 -0.6209  0.4999
13461TIP3    H161874   3.745   0.512   6.401  0.4178  0.9069 -0.9104
13461TIP3    H261875   3.726   0.372   6.345 -0.2013 -0.3904  2.4009
13462TIP3   OH261876   5.290   4.442   0.623  0.4274 -0.2662  0.2292
13462TIP3    H161877   5.289   4.527   0.667  0.0763  0.0718 -0.4298
13462TIP3    H261878   5.336   4.458   0.541  1.6564 -1.0396  0.7417
13463TIP3   OH261879   2.790   4.405   1.421 -0.0215  0.1073  0.2607
13463TIP3    H161880   2.880   4.395   1.390 -0.7814 -1.1865 -1.6174
13463TIP3    H261881   2.766   4.318   1.453 -0.7922  0.3299  0.2950
13464TIP3   OH261882   1.826   5.958   4.249  0.1357  0.5515  0.0534
13464TIP3    H161883   1.832   5.961   4.154  0.5974 -1.7873 -0.0051
13464TIP3    H261884   1.906   5.914   4.277 -1.2702 -1.2615  1.3319
13465TIP3   OH261885   2.591   0.855  15.294  0.4143 -0.2592  0.1459
13465TIP3    H161886   2.632   0.783  15.246 -1.4393 -0.9833 -0.3790
13465TIP3    H261887   2.562   0.916  15.227 -2.3918 -1.3856  0.2543
13466TIP3   OH261888   3.617   6.317   3.430  0.1782 -0.1726  0.2071
13466TIP3    H161889   3.640   6.410   3.428  0.3468 -0.2484 -2.0823
13466TIP3    H261890   3.612   6.296   3.524 -0.1338  2.1883  0.7491
13467TIP3   OH261891   5.378   1.121   5.145  0.4926 -0.0952  0.0488
13467TIP3    H161892   5.333   1.067   5.209 -0.1509  1.7173  1.1765
13467TIP3    H261893   5.317   1.129   5.072  1.1212 -1.9458 -0.7001
13468TIP3   OH261894   3.264   3.523  12.001  0.5432 -0.2347  0.0186
13468TIP3    H161895   3.194   3.587  12.017  0.4007 -0.9724  2.6061
13468TIP3    H261896   3.313   3.560  11.928 -0.0970  2.3679  0.8212
13469TIP3   OH261897   2.606   2.000   2.112 -0.3711 -0.3691  0.1584
13469TIP3    H161898   2.590   2.047   2.030  1.6539 -2.5168 -1.5125
13469TIP3    H261899   2.624   2.070   2.175 -3.5969  1.4205 -0.7550
13470TIP3   OH261900   4.997   1.668  16.832  0.0821 -0.0350  0.1165
13470TIP3    H161901   5.040   1.751  16.808  1.0104 -0.3752  0.5827
13470TIP3    H261902   5.041   1.602  16.779 -2.3925  0.0679 -2.1893
13471TIP3   OH261903   4.505   0.084  16.423 -0.0234  0.1281  0.1456
13471TIP3    H161904   4.496  -0.004  16.459  0.2538 -0.5537 -1.4097
13471TIP3    H261905   4.594   0.110  16.445  0.2111 -0.3675 -0.2137
13472TIP3   OH261906   4.705   3.168   6.359 -0.0485 -0.2800  0.0238
13472TIP3    H161907   4.652   3.099   6.320 -0.0855  0.1833 -0.7457
13472TIP3    H261908   4.754   3.124   6.429 -1.7409 -0.6330  1.0117
13473TIP3   OH261909   0.793   6.664  11.406  0.1540 -0.0703 -0.0580
13473TIP3    H161910   0.761   6.724  11.473  1.6348  0.5559  0.1222
13473TIP3    H261911   0.888   6.664  11.417  0.2683 -1.5422 -0.8281
13474TIP3   OH261912   6.147   6.423   0.710  0.3345 -0.5412 -0.2263
13474TIP3    H161913   6.091   6.416   0.787  2.0579 -2.4114  0.9112
13474TIP3    H261914   6.191   6.507   0.719  0.1005 -0.4964  0.5283
13475TIP3   OH261915   0.562   5.772  11.064 -0.5564 -0.4284  0.1705
13475TIP3    H161916   0.565   5.727  10.980  0.4338  2.1465 -1.2335
13475TIP3    H261917   0.509   5.850  11.047  1.1012  1.0194  1.4365
13476TIP3   OH261918   6.732   4.522   0.113 -0.4696 -0.1349  0.4245
13476TIP3    H161919   6.756   4.460   0.044 -1.5343  0.9942 -0.9724
13476TIP3    H261920   6.807   4.521   0.173  1.5049  0.6464 -1.9830
13477TIP3   OH261921   1.295   4.095  14.355 -0.3163 -0.5746  0.2921
13477TIP3    H161922   1.373   4.140  14.387 -1.0628  0.0001  1.3573
13477TIP3    H261923   1.316   4.002  14.361  0.7940 -0.3925 -0.7591
13478TIP3   OH261924   2.809   5.458   2.304 -0.2446 -0.5285 -0.0276
13478TIP3    H161925   2.814   5.426   2.214 -0.3211 -3.0497  0.8181
13478TIP3    H261926   2.900   5.474   2.329 -0.3258  1.6935 -1.0337
13479TIP3   OH261927   3.619   0.112  15.708  0.0948 -0.0954  0.1854
13479TIP3    H161928   3.652   0.161  15.633 -0.8917 -0.2615 -0.3625
13479TIP3    H261929   3.564   0.174  15.755  0.7528  0.0227  0.7998
13480TIP3   OH261930   6.101   5.867   0.242  0.0558  0.3614  0.0394
13480TIP3    H161931   6.060   5.791   0.201 -1.9538  1.7802 -0.6510
13480TIP3    H261932   6.158   5.903   0.174  0.8241 -0.3570  0.2877
13481TIP3   OH261933   3.522   5.571   4.775  0.1849 -0.2429  0.1906
13481TIP3    H161934   3.520   5.621   4.693 -0.2858  0.0017  0.3477
13481TIP3    H261935   3.614   5.574   4.802  0.2320  0.2189 -0.0031
13482TIP3   OH261936   3.896   1.682  14.726 -0.3094 -0.0944  0.4133
13482TIP3    H161937   3.870   1.732  14.803  0.9430  2.4253 -0.7513
13482TIP3    H261938   3.991   1.677  14.731 -0.3634 -1.6895  0.0771
13483TIP3   OH261939   1.498   6.040  12.802 -0.3182  0.9423  0.0885
13483TIP3    H161940   1.469   6.131  12.805  1.7990  1.6026  0.7509
13483TIP3    H261941   1.526   6.027  12.712 -1.1794  0.7597 -0.1586
13484TIP3   OH261942   3.669   3.020  12.392  0.2352 -0.4659 -0.4867
13484TIP3    H161943   3.727   3.039  12.319 -0.5020 -1.3600 -1.3255
13484TIP3    H261944   3.586   3.063  12.369  0.4433  0.5030  0.5263
13485TIP3   OH261945   1.272   3.144   2.961  0.7657 -0.0729 -0.6699
13485TIP3    H161946   1.263   3.158   2.866  2.5387  0.3007 -0.8030
13485TIP3    H261947   1.303   3.054   2.969  0.2572 -0.2231 -0.4352
13486TIP3   OH261948   3.716   0.876  12.641  0.3665  0.0226 -0.6182
13486TIP3    H161949   3.631   0.905  12.608 -0.3047 -0.5714  0.5546
13486TIP3    H261950   3.716   0.903  12.733 -0.1454 -3.3304  0.4337
13487TIP3   OH261951   1.145   6.290  13.439  0.0413  0.6851  0.2023
13487TIP3    H161952   1.115   6.354  13.504  0.9430  1.0886  0.2270
13487TIP3    H261953   1.121   6.206  13.477  1.8551  0.8254  1.7844
13488TIP3   OH261954   4.104   5.575  10.799  0.1847 -0.2917 -0.6122
13488TIP3    H161955   4.024   5.595  10.751 -0.1928  0.3942  0.3043
13488TIP3    H261956   4.138   5.660  10.826 -0.5710 -0.7627  1.8915
13489TIP3   OH261957   1.267   3.852   3.452 -0.2666  0.8661  0.1608
13489TIP3    H161958   1.313   3.859   3.536  0.2202 -1.5528  0.1409
13489TIP3    H261959   1.178   3.827   3.475 -0.0311 -0.1932 -0.0272
13490TIP3   OH261960   0.709   0.537   1.255 -0.0103  0.0209  0.3686
13490TIP3    H161961   0.755   0.619   1.238  0.1389  0.1350  1.3165
13490TIP3    H261962   0.734   0.480   1.182  1.1244  0.3031  0.5213
13491TIP3   OH261963   4.071   6.517   1.452  0.2786 -0.2602 -1.2786
13491TIP3    H161964   4.001   6.516   1.387 -1.1325  0.5675  0.2015
13491TIP3    H261965   4.150   6.541   1.403 -1.0065  1.5799 -2.4499
13492TIP3   OH261966   0.048   2.580   5.865  0.3234 -0.6510  0.1525
13492TIP3    H161967   0.093   2.524   5.801  1.4429  0.1331  0.2224
13492TIP3    H261968   0.092   2.560   5.948  0.8056  0.4005  0.1545
13493TIP3   OH261969   3.462   5.238   4.036 -0.3745  0.4960  0.3557
13493TIP3    H161970   3.418   5.170   4.087 -2.3940  2.0115  0.7134
13493TIP3    H261971   3.412   5.245   3.955  0.4067  0.8902 -0.1052
13494TIP3   OH261972   1.779   5.438   3.700 -0.1608 -0.2139 -0.0005
13494TIP3    H161973   1.728   5.365   3.664  0.7066 -1.0863  0.4886
13494TIP3    H261974   1.772   5.428   3.795 -0.1918  0.4625  0.0728
13495TIP3   OH261975   5.153   3.961   4.457 -0.1936  0.3973 -0.2742
13495TIP3    H161976   5.171   4.055   4.448  0.5653  0.0291 -3.2018
13495TIP3    H261977   5.058   3.954   4.452 -0.5170  1.2387  3.1602
13496TIP3   OH261978   5.190   5.427   5.401  0.1554 -0.2754 -0.3664
13496TIP3    H161979   5.268   5.467   5.362 -0.8893 -0.7944 -3.0602
13496TIP3    H261980   5.214   5.413   5.493  3.5962 -1.3047 -1.3451
13497TIP3   OH261981   3.510   1.278   3.532 -0.3253 -0.3271 -0.2504
13497TIP3    H161982   3.434   1.242   3.579 -0.9592  1.8194  0.4478
13497TIP3    H261983   3.473   1.315   3.452  0.2483 -0.8322 -0.7501
13498TIP3   OH261984   3.285   5.322  14.470  0.3308  0.1138 -0.3622
13498TIP3    H161985   3.272   5.403  14.420  1.2667  0.3488 -0.2282
13498TIP3    H261986   3.372   5.291  14.444  1.0645  0.5301  1.5301
13499TIP3   OH261987   0.528   5.086   5.264  0.1035 -0.4089 -0.2543
13499TIP3    H161988   0.562   5.005   5.301  0.9276 -0.1985 -0.5317
13499TIP3    H261989   0.549   5.153   5.329  0.4622 -0.2355 -0.5474
13500TIP3   OH261990   5.771   6.102   5.284  0.0571  0.0543 -0.0898
13500TIP3    H161991   5.688   6.084   5.328 -0.4360  0.0537 -0.9992
13500TIP3    H261992   5.752   6.087   5.191  0.6790  1.4754 -0.4578
13501TIP3   OH261993   5.430   1.514  16.326 -0.0264  0.2555  0.1022
13501TIP3    H161994   5.456   1.572  16.255  2.4386 -0.5694  0.2990
13501TIP3    H261995   5.472   1.550  16.404 -1.2776  0.1477  0.8452
13502TIP3   OH261996   6.377   6.248  11.935  0.1052  0.2013 -0.1210
13502TIP3    H161997   6.323   6.326  11.921  0.3602  0.4723  0.3985
13502TIP3    H261998   6.386   6.210  11.847 -1.0393  0.0694 -0.1842
13503TIP3   OH261999   4.381   0.672   3.452 -0.2749  0.3108 -0.0597
13503TIP3    H162000   4.464   0.703   3.416 -0.7755  2.1198  0.2555
13503TIP3    H262001   4.355   0.601   3.394  1.0532  0.3270 -0.7017
13504TIP3   OH262002   4.424   1.410  11.773  0.1591 -0.0148  0.2597
13504TIP3    H162003   4.508   1.412  11.819  1.0176 -1.7062 -1.1998
13504TIP3    H262004   4.434   1.474  11.703  0.3811 -0.5167 -0.1667
13505TIP3   OH262005   4.078   5.496  11.148  0.2628 -0.5389  0.2239
13505TIP3    H162006   4.126   5.489  11.066 -0.6689 -0.6301 -0.3231
13505TIP3    H262007   4.122   5.567  11.196 -0.5998  1.1046 -1.3341
13506TIP3   OH262008   4.131   4.866   4.765 -0.2085  0.3469 -0.1371
13506TIP3    H162009   4.204   4.812   4.796 -1.9691 -3.2331 -1.8626
13506TIP3    H262010   4.063   4.854   4.832 -1.3918 -1.4790 -1.6005
13507TIP3   OH262011   2.612   5.001   2.574  0.2447  0.0084 -0.1954
13507TIP3    H162012   2.566   5.046   2.503 -1.3130 -1.1692  0.0327
13507TIP3    H262013   2.695   5.047   2.582 -1.6917  3.5460  0.7107
13508TIP3   OH262014   2.998   1.372  14.882  0.6764 -0.0539  0.4113
13508TIP3    H162015   2.955   1.439  14.935  1.4382  0.8696 -0.1374
13508TIP3    H262016   2.945   1.366  14.803  0.0750 -0.7646  0.8669
13509TIP3   OH262017   5.654   4.757  15.265 -0.0535 -0.2953 -0.6191
13509TIP3    H162018   5.689   4.779  15.179  1.5012  0.0253  0.0879
13509TIP3    H262019   5.583   4.820  15.278  0.7652  0.7172 -0.9784
13510TIP3   OH262020   1.215   1.797   1.767  0.3214  0.1355  0.1629
13510TIP3    H162021   1.240   1.707   1.787 -3.3507 -0.7881  1.0033
13510TIP3    H262022   1.195   1.797   1.673  1.3198  0.3524 -0.0558
13511TIP3   OH262023   5.393   0.355   3.041 -0.3698  0.4176  0.5642
13511TIP3    H162024   5.402   0.267   3.078  1.4318 -0.3494 -1.5634
13511TIP3    H262025   5.332   0.399   3.099 -0.8119 -2.0376  2.0515
13512TIP3   OH262026   4.664   4.015   2.974  0.2805 -0.0660  0.1187
13512TIP3    H162027   4.649   4.106   2.947  2.7267  0.3951  0.2383
13512TIP3    H262028   4.745   4.018   3.025 -0.4431 -2.0837  1.4422
13513TIP3   OH262029   5.290   5.046   2.486 -0.0858 -0.1642  0.1972
13513TIP3    H162030   5.385   5.052   2.486 -0.1342  0.5643 -0.2389
13513TIP3    H262031   5.272   4.952   2.479  0.5981 -0.2570 -0.3141
13514TIP3   OH262032   6.628   1.935  13.791 -0.5514 -0.3315  0.3641
13514TIP3    H162033   6.586   1.915  13.874 -1.0469 -0.0548  0.1810
13514TIP3    H262034   6.556   1.939  13.728 -0.1571 -0.7430 -0.1181
13515TIP3   OH262035   6.377   0.630  14.811  0.2576 -0.2441 -0.4977
13515TIP3    H162036   6.332   0.710  14.839 -0.7569 -0.9923  0.0241
13515TIP3    H262037   6.374   0.572  14.887  2.9826  0.0422 -0.1095
13516TIP3   OH262038   4.509   0.170   1.486  0.6183 -0.4809  0.1367
13516TIP3    H162039   4.458   0.116   1.426  0.6416 -0.4181  0.0614
13516TIP3    H262040   4.560   0.108   1.537 -0.4286 -0.6307  1.0318
13517TIP3   OH262041   5.014   2.233   0.913  0.3618  0.6910  0.1098
13517TIP3    H162042   4.942   2.276   0.959  1.2059  0.8583  1.2933
13517TIP3    H262043   5.087   2.296   0.918  0.2668  1.0139 -2.0702
13518TIP3   OH262044   4.611   4.948   3.795  0.7784  0.0883 -0.2742
13518TIP3    H162045   4.539   4.884   3.795  0.2420  0.6924 -0.4940
13518TIP3    H262046   4.662   4.926   3.873  0.5429 -0.5492 -0.2953
13519TIP3   OH262047   2.131   1.858   4.400 -0.2653  0.0241 -0.3961
13519TIP3    H162048   2.066   1.878   4.468 -0.4544 -0.7799 -0.3411
13519TIP3    H262049   2.175   1.779   4.432 -0.2045 -0.2267 -1.1079
13520TIP3   OH262050   6.234   1.198   4.796 -0.4349  0.4037 -0.0583
13520TIP3    H162051   6.228   1.185   4.890  1.1047  1.6616  0.2378
13520TIP3    H262052   6.215   1.112   4.758  0.1135 -0.3932  1.4333
13521TIP3   OH262053   1.505   3.812  14.628  0.2223 -0.2532 -0.2104
13521TIP3    H162054   1.483   3.731  14.675  0.0592 -0.4703 -0.6652
13521TIP3    H262055   1.599   3.821  14.640 -0.0971  0.7440  1.8463
13522TIP3   OH262056   3.460   2.504  11.337 -0.4430 -0.2298  0.5885
13522TIP3    H162057   3.416   2.465  11.262  0.3782  2.5597 -1.4146
13522TIP3    H262058   3.551   2.515  11.309  0.0444  0.1552  2.2608
13523TIP3   OH262059   5.446   2.507   2.237  0.2745  0.0851  0.3530
13523TIP3    H162060   5.363   2.491   2.191 -0.0280  2.7007 -0.0702
13523TIP3    H262061   5.437   2.595   2.273  2.9764  0.5012  0.0799
13524TIP3   OH262062   2.300   2.764  15.018  0.3820 -0.0332  0.3140
13524TIP3    H162063   2.324   2.726  15.103  0.8161  0.4941  0.4347
13524TIP3    H262064   2.345   2.848  15.017  1.3038 -0.5432 -0.9362
13525TIP3   OH262065   5.241   2.914  14.514 -0.4395  0.0997 -0.4417
13525TIP3    H162066   5.297   2.984  14.482  1.3063 -0.9713  0.2178
13525TIP3    H262067   5.228   2.857  14.438 -0.8577  0.4821 -0.6599
13526TIP3   OH262068   6.223   1.055  12.349 -0.0165 -0.0806  0.3227
13526TIP3    H162069   6.267   1.039  12.265 -0.1207  2.6160 -0.3099
13526TIP3    H262070   6.283   1.113  12.396 -0.1320 -1.2813  1.9648
13527TIP3   OH262071   3.445   4.680   4.669 -0.1066 -0.1450  0.8031
13527TIP3    H162072   3.476   4.697   4.580  1.2964 -1.5923  0.9884
13527TIP3    H262073   3.524   4.678   4.722 -0.7457 -1.2841  1.7482
13528TIP3   OH262074   3.588   3.028  15.759 -0.0510  0.3118 -0.4694
13528TIP3    H162075   3.563   2.936  15.747 -0.4353  0.6444 -2.5593
13528TIP3    H262076   3.682   3.026  15.777  0.0497 -0.4817 -1.0429
13529TIP3   OH262077   4.402   4.429  12.623  0.3369 -0.5450  0.3606
13529TIP3    H162078   4.350   4.501  12.658  1.2220  0.5512 -0.5618
13529TIP3    H262079   4.421   4.375  12.700 -3.9043 -2.1709  0.4268
13530TIP3   OH262080   0.022   3.430  15.025  0.5643 -0.1851  0.1471
13530TIP3    H162081   0.048   3.420  15.117 -0.1179  0.1603  0.3799
13530TIP3    H262082  -0.002   3.342  14.997  0.7744 -0.2922  0.3022
13531TIP3   OH262083   4.516   3.953   1.672 -0.1747  0.4069  0.3619
13531TIP3    H162084   4.577   3.919   1.737  1.1072 -0.2844 -1.1731
13531TIP3    H262085   4.509   3.884   1.606  0.9615  2.2684 -1.7953
13532TIP3   OH262086   1.528   0.187   4.779 -0.1568 -0.0486 -0.2264
13532TIP3    H162087   1.617   0.208   4.751 -0.6022 -0.9315 -2.4013
13532TIP3    H262088   1.495   0.268   4.818  1.8454  0.0571  1.3249
13533TIP3   OH262089   0.042   0.968  15.656  0.4139 -0.3860  0.2889
13533TIP3    H162090   0.090   0.885  15.646  0.0271 -0.5875  0.0765
13533TIP3    H262091   0.056   0.992  15.747  0.1927 -0.9013  0.4640
13534TIP3   OH262092   6.790   5.362  15.242 -0.3070  0.0744 -0.1772
13534TIP3    H162093   6.777   5.448  15.201 -0.9837  0.4064  0.7223
13534TIP3    H262094   6.703   5.322  15.240 -0.0636 -0.4573 -0.2733
13535TIP3   OH262095   6.316   0.536  13.358 -0.1617  0.2285 -0.1130
13535TIP3    H162096   6.309   0.473  13.429  0.0627  0.5597  0.2052
13535TIP3    H262097   6.341   0.483  13.282  3.2659  0.3366  0.8549
13536TIP3   OH262098   4.885   5.847   0.674 -0.0442 -0.3638  0.2916
13536TIP3    H162099   4.938   5.814   0.602  0.9450  1.1868  0.2814
13536TIP3    H262100   4.921   5.806   0.752 -1.1494 -2.0867 -0.0646
13537TIP3   OH262101   3.955   0.269   0.509 -0.6611  0.5153 -0.3582
13537TIP3    H162102   4.045   0.274   0.476 -0.1308 -1.4946  0.7487
13537TIP3    H262103   3.964   0.283   0.604 -1.2478 -1.9117  0.0776
13538TIP3   OH262104   1.640   1.842   1.694  0.0115 -0.0300  0.0669
13538TIP3    H162105   1.632   1.820   1.786 -0.9758 -0.5557 -0.1287
13538TIP3    H262106   1.587   1.921   1.684 -0.8348 -0.6230 -0.2573
13539TIP3   OH262107   0.166   6.630   2.533 -0.2515  0.4611 -0.8823
13539TIP3    H162108   0.142   6.556   2.477  1.0155 -0.7291  0.0948
13539TIP3    H262109   0.129   6.706   2.490 -1.3849 -0.7206 -2.0484
13540TIP3   OH262110   1.701   5.807   0.196 -0.1269 -0.3814 -0.4312
13540TIP3    H162111   1.680   5.714   0.189  1.2422 -0.6961 -0.4804
13540TIP3    H262112   1.766   5.822   0.127  1.1383  0.1574  0.8353
13541TIP3   OH262113   4.723   0.744  15.485 -0.7903 -0.6641 -0.5091
13541TIP3    H162114   4.710   0.696  15.403 -1.4126 -0.2914 -0.6335
13541TIP3    H262115   4.635   0.755  15.521 -0.6481  0.2521 -0.4165
13542TIP3   OH262116   1.185   0.237  12.016 -0.2513  0.1156 -0.0454
13542TIP3    H162117   1.211   0.285  11.937 -3.2488  2.3334  0.2721
13542TIP3    H262118   1.241   0.273  12.085 -0.0299  0.6146 -0.4764
13543TIP3   OH262119   5.764   1.840   1.430 -0.6909 -0.3176  0.2827
13543TIP3    H162120   5.837   1.871   1.378 -1.4409 -0.5990 -0.9651
13543TIP3    H262121   5.799   1.765   1.479 -0.4367 -1.1762 -1.1872
13544TIP3   OH262122   6.638   1.773   1.755  0.1160 -0.1804  0.3014
13544TIP3    H162123   6.711   1.834   1.754 -1.3254  1.6786 -3.4698
13544TIP3    H262124   6.664   1.703   1.695 -0.5076 -0.3347  0.2021
13545TIP3   OH262125   5.974   4.956   3.527  0.4794  0.6915 -0.5187
13545TIP3    H162126   6.068   4.949   3.512  0.7738 -0.8024  1.7159
13545TIP3    H262127   5.962   4.925   3.617 -1.9419  2.4454 -0.1883
13546TIP3   OH262128   4.389   2.110  15.255 -0.1849  0.6240  0.5589
13546TIP3    H162129   4.456   2.148  15.199  0.7683  0.2921  1.4671
13546TIP3    H262130   4.397   2.015  15.242  0.4541  0.5060  1.6995
13547TIP3   OH262131   0.196   2.380  12.342 -0.7856  0.3250 -0.5740
13547TIP3    H162132   0.153   2.312  12.394  0.7428 -0.6737 -0.5703
13547TIP3    H262133   0.183   2.460  12.392 -2.4130 -0.0031 -0.4619
13548TIP3   OH262134   1.503   4.081   1.004  0.2674  0.2446  0.0000
13548TIP3    H162135   1.583   4.028   1.010 -0.8154 -1.2976  1.2286
13548TIP3    H262136   1.506   4.118   0.916  1.1974 -1.6687 -0.8104
13549TIP3   OH262137   1.277   2.936   1.413 -0.5780  0.4073 -0.2376
13549TIP3    H162138   1.361   2.931   1.458 -0.1565 -0.6684 -1.1236
13549TIP3    H262139   1.282   3.016   1.361 -0.6462  1.0706  0.7411
13550TIP3   OH262140   2.998   2.115   3.218  0.2249 -0.9452 -0.8212
13550TIP3    H162141   3.054   2.134   3.293  0.2570 -0.1308 -1.0479
13550TIP3    H262142   2.925   2.177   3.225  0.7731 -0.1366 -2.0302
13551TIP3   OH262143   2.127   2.477  14.918 -0.5000 -0.4698  0.1879
13551TIP3    H162144   2.152   2.411  14.854  0.6611  0.1906 -0.0683
13551TIP3    H262145   2.065   2.534  14.871 -2.1267 -1.8243  0.6641
13552TIP3   OH262146   1.673   4.674   1.386 -0.2156  0.4388 -0.2171
13552TIP3    H162147   1.745   4.674   1.323  0.7004  1.6080  0.7978
13552TIP3    H262148   1.716   4.688   1.471 -1.6291  1.0351  0.4113
13553TIP3   OH262149   2.726   0.381  15.951  0.4825 -0.0029 -0.7706
13553TIP3    H162150   2.656   0.319  15.971 -0.3144  0.6666 -1.4319
13553TIP3    H262151   2.702   0.461  15.997  0.9734  0.1324 -0.7456
13554TIP3   OH262152   3.369   6.306  11.869 -0.1275  0.2841  0.0377
13554TIP3    H162153   3.342   6.396  11.882 -3.0822 -0.4691 -0.4142
13554TIP3    H262154   3.362   6.266  11.955 -2.2499 -0.3344 -0.3918
13555TIP3   OH262155   4.011   6.395   5.507 -0.0465  0.4514 -0.1180
13555TIP3    H162156   3.990   6.486   5.531  1.3852  0.4758  1.1521
13555TIP3    H262157   4.097   6.401   5.466  1.2526 -0.6003  2.3200
13556TIP3   OH262158   3.560   1.600   0.818 -0.1139  0.3046  0.3353
13556TIP3    H162159   3.621   1.640   0.756  0.5251 -0.5647  0.3947
13556TIP3    H262160   3.615   1.565   0.887 -0.7949  0.8213  1.1450
13557TIP3   OH262161   5.689   2.091  16.808  0.2944 -0.3655  0.4506
13557TIP3    H162162   5.631   2.144  16.753 -0.0481 -0.1960  0.9801
13557TIP3    H262163   5.744   2.043  16.745  0.2488  0.2121 -0.0367
13558TIP3   OH262164   2.354   2.272   0.168 -0.1288  0.7650 -0.0534
13558TIP3    H162165   2.325   2.363   0.171 -1.0786  0.4786 -0.3597
13558TIP3    H262166   2.333   2.243   0.079  0.6306  0.4008 -0.1126
13559TIP3   OH262167   4.143   2.405  13.633  0.0883  0.3354 -0.5851
13559TIP3    H162168   4.212   2.468  13.613  1.1464 -0.6608 -0.0697
13559TIP3    H262169   4.133   2.409  13.728 -1.1736  1.0867 -0.7242
13560TIP3   OH262170   5.392   1.270  14.171 -0.2018  0.2938  0.1246
13560TIP3    H162171   5.474   1.236  14.205  0.0464  1.3685  0.6196
13560TIP3    H262172   5.407   1.280  14.077  0.8514  2.1343  0.4496
13561TIP3   OH262173   3.488   3.674   4.567  0.0156 -0.4525  0.2859
13561TIP3    H162174   3.412   3.652   4.621 -0.6695 -0.6452 -0.7308
13561TIP3    H262175   3.487   3.608   4.497 -0.6202  1.3163 -1.4145
13562TIP3   OH262176   4.036   3.822   2.566 -0.0062 -0.6241 -0.1792
13562TIP3    H162177   3.994   3.855   2.645 -0.9078  0.6394 -1.1583
13562TIP3    H262178   4.096   3.892   2.539  0.6753 -1.2565 -0.3399
13563TIP3   OH262179   5.592   1.840   4.724 -0.2461 -0.0539  0.7528
13563TIP3    H162180   5.553   1.800   4.801 -0.8566  0.7628  0.8693
13563TIP3    H262181   5.584   1.934   4.739  0.3873  0.1148  0.0767
13564TIP3   OH262182   5.215   6.597   3.888  0.0656 -0.4296 -0.3944
13564TIP3    H162183   5.182   6.540   3.818  1.2693 -1.5493 -0.0674
13564TIP3    H262184   5.137   6.643   3.920 -0.9907 -2.2107 -0.3745
13565TIP3   OH262185   6.734   0.653   2.144  0.2375 -0.1646  0.4418
13565TIP3    H162186   6.755   0.722   2.081 -1.3055 -0.1431 -0.0871
13565TIP3    H262187   6.642   0.667   2.165 -0.1582 -2.1490  0.1893
13566TIP3   OH262188   5.824   5.784  12.509  0.1848 -0.1965  0.6659
13566TIP3    H162189   5.829   5.870  12.551 -0.0490 -0.4054  1.1220
13566TIP3    H262190   5.853   5.800  12.419  3.0813 -0.2281  1.5634
13567TIP3   OH262191   2.192   1.194   3.197 -0.3837  0.1879  0.1275
13567TIP3    H162192   2.186   1.239   3.113 -0.1665 -0.2084 -0.0986
13567TIP3    H262193   2.102   1.171   3.219 -0.1966 -2.0234 -1.2474
13568TIP3   OH262194   0.787   5.136  12.839  0.6768  0.5450 -0.3623
13568TIP3    H162195   0.760   5.134  12.931 -0.8474 -0.8214 -0.7943
13568TIP3    H262196   0.751   5.218  12.805  0.8054  0.8140  0.1496
13569TIP3   OH262197   4.295   1.232   2.683  0.4774 -0.1345  0.0135
13569TIP3    H162198   4.283   1.218   2.777  0.0086  0.0104 -0.0248
13569TIP3    H262199   4.209   1.259   2.651  0.6330 -0.1848 -0.4587
13570TIP3   OH262200   2.503   0.448  12.283 -0.1171 -0.1508 -0.5425
13570TIP3    H162201   2.580   0.478  12.332  0.0158 -0.1843 -0.7259
13570TIP3    H262202   2.433   0.507  12.310 -0.5606 -1.4816  1.2459
13571TIP3   OH262203   1.096   4.444  14.226  0.1317  0.1214 -0.7236
13571TIP3    H162204   1.172   4.448  14.285 -0.0133 -1.2730 -0.4291
13571TIP3    H262205   1.093   4.353  14.196 -0.2191  0.6399 -2.3484
13572TIP3   OH262206   1.454   0.401   2.027 -0.5000  0.1537 -0.3999
13572TIP3    H162207   1.462   0.482   2.077  2.1531 -0.9556  1.0929
13572TIP3    H262208   1.432   0.334   2.093 -3.7591 -0.2168 -1.7589
13573TIP3   OH262209   4.720   3.795   3.872 -0.1374 -0.4990 -0.0546
13573TIP3    H162210   4.716   3.806   3.777 -0.9593 -2.0609 -0.2026
13573TIP3    H262211   4.762   3.876   3.903  1.0192 -0.3932 -1.8185
13574TIP3   OH262212   5.904   2.149   5.089 -0.3778 -0.2968  0.4476
13574TIP3    H162213   5.925   2.234   5.127 -1.2415 -0.0738  0.4420
13574TIP3    H262214   5.852   2.170   5.011 -1.8039 -0.8709  1.2358
13575TIP3   OH262215   5.602   3.524  12.579 -0.2443  0.4630 -0.2410
13575TIP3    H162216   5.570   3.561  12.496 -0.4881  1.4878  0.2920
13575TIP3    H262217   5.620   3.432  12.559 -0.4276  0.6632 -1.3950
13576TIP3   OH262218   6.435   1.788   2.721 -0.5965  0.2620 -0.1998
13576TIP3    H162219   6.481   1.757   2.799 -1.2203  0.3914  0.2218
13576TIP3    H262220   6.403   1.708   2.678 -0.8911  0.2324  0.0738
13577TIP3   OH262221   4.516   1.892  16.698 -0.3315 -0.0092  0.5209
13577TIP3    H162222   4.461   1.814  16.700 -2.9052  1.7417 -0.3526
13577TIP3    H262223   4.515   1.924  16.788 -0.4971 -0.1313  0.5625
13578TIP3   OH262224   0.195   0.087  15.827 -0.1210 -0.4361 -0.1026
13578TIP3    H162225   0.167   0.052  15.912  0.7949 -0.7300  0.0758
13578TIP3    H262226   0.271   0.035  15.803 -0.3150 -0.2817 -1.0620
13579TIP3   OH262227   0.356   1.653   4.031 -0.2137  0.2069  0.6425
13579TIP3    H162228   0.337   1.745   4.046  2.2036  0.6407  1.2062
13579TIP3    H262229   0.355   1.643   3.936  2.5213  1.5134  0.4382
13580TIP3   OH262230   5.468   4.729   0.706 -0.0471  0.8078 -0.1647
13580TIP3    H162231   5.511   4.644   0.713 -0.9538  0.4983  2.1015
13580TIP3    H262232   5.421   4.725   0.623 -1.6164 -1.6758  0.7931
13581TIP3   OH262233   5.033   3.365  14.464 -0.0611  0.7656 -0.4447
13581TIP3    H162234   4.951   3.339  14.506  0.6371 -0.8478 -0.0021
13581TIP3    H262235   5.017   3.353  14.371  0.5864 -2.5408 -0.2048
13582TIP3   OH262236   6.271   2.762  12.046 -0.5271  0.3881  0.0559
13582TIP3    H162237   6.234   2.697  12.107  1.0351 -0.6736 -0.0961
13582TIP3    H262238   6.197   2.787  11.990 -2.0430  1.5376  2.4937
13583TIP3   OH262239   2.132   5.163   2.523 -0.1604 -0.1989 -0.0504
13583TIP3    H162240   2.077   5.238   2.498 -0.5047 -0.3693  0.1863
13583TIP3    H262241   2.179   5.140   2.443  0.4410  0.6887  0.0440
13584TIP3   OH262242   4.054   3.275   3.021  0.1882  0.3298 -0.3001
13584TIP3    H162243   4.111   3.323   3.081  1.6202 -1.9658  0.2360
13584TIP3    H262244   3.966   3.303   3.045  0.8804  1.3300  1.1792
13585TIP3   OH262245   1.750   6.077  11.988 -0.4169  0.1896  0.2126
13585TIP3    H162246   1.824   6.136  11.972  0.6948 -1.1212  0.5050
13585TIP3    H262247   1.730   6.089  12.081  1.6851 -1.9947  1.0018
13586TIP3   OH262248   2.753   3.614   0.613  0.1788 -0.4440 -0.0853
13586TIP3    H162249   2.812   3.547   0.647 -1.9814 -2.3863 -0.0569
13586TIP3    H262250   2.675   3.608   0.667 -1.0313  0.4038 -1.6775
13587TIP3   OH262251   0.657   0.334  14.080  0.3389 -0.1335  0.1588
13587TIP3    H162252   0.652   0.430  14.080  2.7774  0.0248  0.2913
13587TIP3    H262253   0.703   0.313  13.999  0.9374 -1.1162  0.7464
13588TIP3   OH262254   2.036   2.189  12.464 -0.0775 -0.1605 -0.5105
13588TIP3    H162255   2.015   2.259  12.403 -0.5150 -0.8723 -1.1778
13588TIP3    H262256   2.087   2.126  12.412  0.4632 -0.2556  0.1244
13589TIP3   OH262257   2.278   0.377  15.150 -0.2360  0.3335  0.0203
13589TIP3    H162258   2.363   0.355  15.111 -1.0889  1.0417 -2.3049
13589TIP3    H262259   2.242   0.443  15.092 -2.7178 -0.5114  0.5609
13590TIP3   OH262260   2.190   3.649   2.723 -0.2897  0.3700  0.3950
13590TIP3    H162261   2.160   3.594   2.796  0.9211 -1.2394 -0.2879
13590TIP3    H262262   2.111   3.692   2.691 -1.1225 -0.3247  1.4703
13591TIP3   OH262263   4.566   5.117  16.393 -0.3343  0.0983 -0.1500
13591TIP3    H162264   4.549   5.039  16.445  0.3036  0.0705  0.0228
13591TIP3    H262265   4.542   5.190  16.450 -0.9148  0.0272 -0.3050
13592TIP3   OH262266   4.201   5.781   1.787  0.1650  0.2761 -0.5973
13592TIP3    H162267   4.115   5.772   1.828 -0.0378 -1.8744 -1.4599
13592TIP3    H262268   4.188   5.751   1.697  1.8045 -0.0488 -0.7371
13593TIP3   OH262269   6.388   1.147   3.418 -0.1832 -0.1692  0.1600
13593TIP3    H162270   6.435   1.164   3.336  2.1708 -2.1391  1.0306
13593TIP3    H262271   6.381   1.051   3.421 -0.0671 -0.1149  2.3610
13594TIP3   OH262272   3.532   1.352   4.587 -0.0285 -0.2955  0.1651
13594TIP3    H162273   3.597   1.409   4.627 -0.3117  0.5251 -0.5390
13594TIP3    H262274   3.519   1.281   4.651 -1.0943  1.4222  1.9102
13595TIP3   OH262275   4.970   1.463  10.731  0.5203  0.0274 -0.0299
13595TIP3    H162276   5.049   1.482  10.681  0.3011 -0.4585 -0.5826
13595TIP3    H262277   4.918   1.543  10.726  0.9653  0.3343  0.3067
13596TIP3   OH262278   2.432   4.904  16.673  0.2836 -0.0053  0.3281
13596TIP3    H162279   2.344   4.874  16.698 -0.4061 -0.4905 -2.4619
13596TIP3    H262280   2.489   4.869  16.741 -1.7084  0.4661  2.2888
13597TIP3   OH262281   5.307   2.083   2.889 -0.5709 -0.1021 -0.2102
13597TIP3    H162282   5.361   2.127   2.955  0.3662 -0.8518 -0.4708
13597TIP3    H262283   5.254   2.154   2.852 -1.3680  0.2688  1.5763
13598TIP3   OH262284   6.569   5.541   1.367  0.3837  0.5307 -0.4753
13598TIP3    H162285   6.601   5.494   1.445  0.4736  1.3378 -0.0185
13598TIP3    H262286   6.489   5.494   1.342 -0.0035  0.6567  0.4970
13599TIP3   OH262287   2.002   5.430  15.810  0.2489 -0.6556 -0.0577
13599TIP3    H162288   1.907   5.437  15.796  0.2297 -1.4952 -0.3936
13599TIP3    H262289   2.039   5.503  15.761 -0.1275 -1.1334 -1.0611
13600TIP3   OH262290   3.054   1.578  10.928 -0.2643 -0.2588  0.6727
13600TIP3    H162291   2.982   1.518  10.947 -0.2739 -0.1456  0.9917
13600TIP3    H262292   3.133   1.528  10.944 -0.2674 -0.6391 -0.4685
13601TIP3   OH262293   3.246   0.107  13.542  0.4874  0.5132  0.2606
13601TIP3    H162294   3.238   0.024  13.495  0.0218 -0.2061  1.5901
13601TIP3    H262295   3.223   0.086  13.633 -2.2118  2.6197  0.1396
13602TIP3   OH262296   4.189   1.775  15.305 -0.0154  0.4388 -0.2340
13602TIP3    H162297   4.245   1.701  15.282  0.8036  1.0896 -0.3616
13602TIP3    H262298   4.211   1.843  15.241 -1.0694  0.6497 -0.3866
13603TIP3   OH262299   6.489   5.137  15.616  0.2008  0.1293  0.0821
13603TIP3    H162300   6.417   5.167  15.561  1.8599  1.5085 -1.3849
13603TIP3    H262301   6.456   5.146  15.705 -1.5834  0.3757 -0.5848
13604TIP3   OH262302   4.870   2.543  11.911  0.2119  0.7696 -0.1411
13604TIP3    H162303   4.864   2.573  11.821  3.2399 -2.1708 -1.4117
13604TIP3    H262304   4.886   2.449  11.905  2.4073  0.8067  3.3724
13605TIP3   OH262305   2.275   6.579   3.096 -0.1919 -0.3730  0.2397
13605TIP3    H162306   2.343   6.597   3.032 -1.0422  2.3434  0.0685
13605TIP3    H262307   2.282   6.650   3.160 -2.9198  0.0281  0.1558
13606TIP3   OH262308   2.722   1.448  12.574  0.0330  0.4747  0.3666
13606TIP3    H162309   2.785   1.517  12.552 -0.3221  0.3836 -0.9663
13606TIP3    H262310   2.777   1.374  12.600  0.5203  0.2581 -1.1997
13607TIP3   OH262311   5.521   3.956  16.294  0.0374 -0.1908 -0.4364
13607TIP3    H162312   5.429   3.963  16.270  0.1354  0.1470 -0.7207
13607TIP3    H262313   5.568   3.992  16.219  0.3171  1.9413  0.7281
13608TIP3   OH262314   5.363   0.368  14.124 -0.9943  0.8605  0.0611
13608TIP3    H162315   5.437   0.427  14.140 -2.7769  2.7641  1.4700
13608TIP3    H262316   5.286   0.417  14.153 -2.6614 -1.6804  0.0902
13609TIP3   OH262317   3.480   0.823   1.846 -0.5343 -0.9175 -0.6268
13609TIP3    H162318   3.490   0.738   1.889 -0.2916  0.4364  2.1126
13609TIP3    H262319   3.385   0.837   1.842 -0.6036 -1.6322 -1.7922
13610TIP3   OH262320   5.117   3.583  11.206 -0.1044 -0.5930  0.0769
13610TIP3    H162321   5.191   3.601  11.147 -0.0630 -0.7459  0.0829
13610TIP3    H262322   5.072   3.509  11.165 -0.0039 -0.7791  0.3033
13611TIP3   OH262323   1.994   5.483  13.539  0.2179  0.2155  0.0152
13611TIP3    H162324   1.911   5.475  13.491  0.4120 -0.3456 -0.2305
13611TIP3    H262325   2.037   5.399  13.526  0.4512  0.2079  0.8523
13612TIP3   OH262326   2.529   3.284   3.355 -0.0631  0.1553 -0.6754
13612TIP3    H162327   2.464   3.346   3.387 -1.5276 -2.1844  1.0936
13612TIP3    H262328   2.506   3.271   3.263 -1.9734 -0.3987 -0.1570
13613TIP3   OH262329   3.531   2.809   0.080 -0.6022  0.5709  0.5341
13613TIP3    H162330   3.545   2.893   0.125 -0.8016  1.6906 -1.4331
13613TIP3    H262331   3.616   2.789   0.041 -0.8274  0.4149  0.1183
13614TIP3   OH262332   5.601   4.517  10.696  0.4517  0.1122  0.4899
13614TIP3    H162333   5.642   4.433  10.679 -0.5794 -0.0983 -1.0687
13614TIP3    H262334   5.670   4.570  10.737  2.5644  0.0210 -2.7415
13615TIP3   OH262335   6.138   3.098  15.731  0.1619  0.1727  0.4338
13615TIP3    H162336   6.122   3.007  15.709  0.2459 -0.2853  2.1667
13615TIP3    H262337   6.057   3.143  15.708  0.4877 -0.1336 -1.3989
13616TIP3   OH262338   4.255   0.744   3.107  0.4593  0.4246 -0.4263
13616TIP3    H162339   4.347   0.767   3.115  0.2470  1.0826  0.1809
13616TIP3    H262340   4.252   0.650   3.123  0.8253  0.6666  1.1028
13617TIP3   OH262341   0.435   5.153  13.258 -0.4269  0.5009 -0.1423
13617TIP3    H162342   0.365   5.109  13.210  0.1747  0.1830 -0.7467
13617TIP3    H262343   0.412   5.142  13.350 -1.8425  1.5297 -0.3593
13618TIP3   OH262344   6.164   2.613   2.273 -0.1027 -0.9533 -0.0465
13618TIP3    H162345   6.159   2.585   2.182  1.6141 -1.4236 -0.0105
13618TIP3    H262346   6.211   2.697   2.270 -0.1768 -0.8943  0.3810
13619TIP3   OH262347   3.355   3.884  12.961 -0.0220  0.0916  0.0246
13619TIP3    H162348   3.366   3.979  12.960  1.9459 -0.1185  0.1753
13619TIP3    H262349   3.260   3.871  12.950 -0.2120  2.0412 -0.9468
13620TIP3   OH262350   5.008   3.748  11.391  0.5721  0.2919 -0.0163
13620TIP3    H162351   4.949   3.701  11.449  0.7901  0.7808  0.6123
13620TIP3    H262352   5.039   3.682  11.329 -1.2425  0.2066 -0.8575
13621TIP3   OH262353   6.008   3.421  11.011  0.5262 -0.7077  0.0501
13621TIP3    H162354   5.994   3.497  10.954 -0.8113 -0.5962  0.5078
13621TIP3    H262355   6.005   3.346  10.953 -0.9534 -0.6013 -0.0316
13622TIP3   OH262356   3.664   0.271   3.611 -0.1504 -0.5768  0.2214
13622TIP3    H162357   3.605   0.279   3.536  1.0909 -0.1858 -0.7358
13622TIP3    H262358   3.642   0.346   3.666  0.0422  0.0563 -0.5534
13623TIP3   OH262359   0.396   0.166  12.605 -0.2965  0.4264  0.2618
13623TIP3    H162360   0.440   0.100  12.551  0.6193 -0.2197  1.7749
13623TIP3    H262361   0.306   0.166  12.573  0.2091 -0.0272 -1.1959
13624TIP3   OH262362   1.622   4.369   3.747 -0.1653 -0.0265  0.6497
13624TIP3    H162363   1.684   4.350   3.677 -2.7959  0.8649 -2.0189
13624TIP3    H262364   1.601   4.284   3.784 -1.7945 -0.9989 -2.3695
13625TIP3   OH262365   6.706   4.025  15.442  0.2533  0.4264 -0.0897
13625TIP3    H162366   6.722   4.036  15.348  0.9088  0.6413  0.0407
13625TIP3    H262367   6.782   4.067  15.484 -1.0489  2.1879  0.5758
13626TIP3   OH262368   6.389   4.265  17.028  0.4595  0.3117  0.4292
13626TIP3    H162369   6.442   4.264  16.948  0.7125  0.7414  0.5910
13626TIP3    H262370   6.304   4.298  17.000 -0.0058 -1.2097 -0.0055
13627TIP3   OH262371   1.339   0.578   5.856 -0.6441  0.3913  0.0600
13627TIP3    H162372   1.403   0.604   5.790 -0.1515  1.8065  1.0694
13627TIP3    H262373   1.326   0.657   5.909 -4.1188  0.4971 -0.8228
13628TIP3   OH262374   2.875   3.648  11.396  0.2296  0.4443 -0.8701
13628TIP3    H162375   2.912   3.687  11.317 -0.8250  0.4975 -1.3507
13628TIP3    H262376   2.920   3.691  11.468  1.8291 -0.2272 -1.4540
13629TIP3   OH262377   5.691   2.762   2.380 -0.0237 -0.3447 -0.1975
13629TIP3    H162378   5.596   2.766   2.376 -0.0123  0.5001  0.1693
13629TIP3    H262379   5.719   2.752   2.289 -0.5282 -2.7514 -0.1248
13630TIP3   OH262380   0.589   6.412  14.114 -0.5724  0.6304 -0.6444
13630TIP3    H162381   0.548   6.439  14.196  3.2045 -2.5696  2.5170
13630TIP3    H262382   0.676   6.452  14.116  0.3215 -1.1527 -2.0602
13631TIP3   OH262383   1.103   3.528   1.305  0.4827  0.6624  0.0796
13631TIP3    H162384   1.178   3.499   1.253  1.6946  2.2269  0.8948
13631TIP3    H262385   1.078   3.451   1.355  2.0337  0.2992  0.3310
13632TIP3   OH262386   3.067   3.971  12.950 -0.4036  0.3674  0.4082
13632TIP3    H162387   3.131   3.998  13.016  0.5209 -0.3193 -0.2140
13632TIP3    H262388   3.039   4.053  12.910  0.8173  0.5908 -0.0022
13633TIP3   OH262389   4.986   6.726   2.196  0.0854  0.3338 -0.0902
13633TIP3    H162390   5.052   6.707   2.130 -0.6399  0.1574 -0.7774
13633TIP3    H262391   4.963   6.640   2.232  1.1148  0.5205  1.0085
13634TIP3   OH262392   5.065   5.813  10.768  0.4246  0.1359  0.2713
13634TIP3    H162393   5.014   5.860  10.702  1.4817  0.0398 -0.6244
13634TIP3    H262394   5.105   5.741  10.721  2.4187  0.9432  0.6701
13635TIP3   OH262395   3.987   3.265  16.137 -0.2239 -0.6273  0.2838
13635TIP3    H162396   3.891   3.264  16.143 -0.1903  0.6690  1.4152
13635TIP3    H262397   4.014   3.332  16.200  1.2859  0.8861 -1.9148
13636TIP3   OH262398   0.606   4.305  10.966 -0.1690 -0.4356 -0.2444
13636TIP3    H162399   0.686   4.252  10.971 -0.5687 -0.9543  0.8065
13636TIP3    H262400   0.535   4.241  10.975 -0.6866  0.1052 -0.4897
13637TIP3   OH262401   5.511   2.264   4.584  0.8094 -0.5216  0.1689
13637TIP3    H162402   5.445   2.258   4.516  0.8576 -0.3730  0.1086
13637TIP3    H262403   5.542   2.355   4.580  0.2104 -0.2794  0.9598
13638TIP3   OH262404   4.315   0.085  12.487  0.3987  0.3543  0.4431
13638TIP3    H162405   4.347  -0.005  12.487  1.5421  0.7531 -0.6439
13638TIP3    H262406   4.242   0.084  12.549  0.5131 -1.2747  0.5770
13639TIP3   OH262407   1.902   1.297  12.834  0.4016  0.2778 -0.0207
13639TIP3    H162408   1.816   1.322  12.868 -1.2531 -4.1918 -0.7038
13639TIP3    H262409   1.922   1.365  12.769 -1.0940  3.1153  2.3465
13640TIP3   OH262410   5.228   4.074   5.930  0.0940 -0.4052 -0.0202
13640TIP3    H162411   5.169   4.030   5.869  2.9908 -2.7443 -1.3179
13640TIP3    H262412   5.250   4.006   5.994  0.9721  0.5671  0.7291
13641TIP3   OH262413   0.615   3.266  12.387 -0.3731 -0.3709  0.5244
13641TIP3    H162414   0.660   3.322  12.450 -0.1005 -1.0132  0.8974
13641TIP3    H262415   0.529   3.306  12.377 -1.0018 -1.1635  2.5283
13642TIP3   OH262416   4.936   3.016  14.712 -0.5212  0.4564  0.5911
13642TIP3    H162417   4.855   3.017  14.762 -1.8889  0.0051 -1.5364
13642TIP3    H262418   4.975   2.930  14.731 -1.4274 -0.0296  0.2686
13643TIP3   OH262419   2.730   1.388   2.075 -0.0962  0.9829 -0.5639
13643TIP3    H162420   2.642   1.351   2.081  0.0932  0.2564 -2.1056
13643TIP3    H262421   2.767   1.377   2.162 -0.3109 -1.7514 -0.8005
13644TIP3   OH262422   1.840   4.379   1.005 -0.7370  0.2895 -0.6079
13644TIP3    H162423   1.841   4.472   0.984 -0.0197  0.4459  0.0520
13644TIP3    H262424   1.912   4.342   0.953  0.7857  0.6110  1.1857
13645TIP3   OH262425   0.227   2.428  16.919  0.2125  0.4305 -0.2414
13645TIP3    H162426   0.255   2.424  17.011 -0.5797 -0.8845 -0.0515
13645TIP3    H262427   0.308   2.413  16.869  0.5607  0.6688  0.2477
13646TIP3   OH262428   4.416   5.416   1.192 -0.5011 -0.1127  0.8825
13646TIP3    H162429   4.490   5.369   1.152 -0.6824  0.2533  0.1038
13646TIP3    H262430   4.391   5.362   1.267  0.2721 -0.4682  0.8888
13647TIP3   OH262431   1.093   0.555   3.207  0.0280 -0.2927 -0.0941
13647TIP3    H162432   1.105   0.619   3.137 -1.3923 -0.4321 -0.4866
13647TIP3    H262433   1.176   0.507   3.211  0.6504  0.7258 -0.6431
13648TIP3   OH262434   3.317   4.040   3.693 -0.8460  0.4459  0.8356
13648TIP3    H162435   3.411   4.026   3.680 -1.0590  0.4394 -0.7973
13648TIP3    H262436   3.279   3.952   3.693 -1.1197  0.5495 -0.7891
13649TIP3   OH262437   5.424   6.176  11.215 -0.3849 -0.2085  0.1392
13649TIP3    H162438   5.360   6.173  11.287 -0.0438  2.5251  0.6075
13649TIP3    H262439   5.374   6.210  11.141 -0.2597 -1.2018 -0.4102
13650TIP3   OH262440   4.414   1.103   1.941 -0.4467  0.1529  0.7555
13650TIP3    H162441   4.334   1.154   1.929  0.5832  1.3319 -1.1994
13650TIP3    H262442   4.391   1.038   2.008 -3.4095 -0.3274 -0.6800
13651TIP3   OH262443   4.989   3.103   0.219  0.7324  0.2703 -0.1306
13651TIP3    H162444   4.928   3.143   0.281  0.9081  0.2176  0.0774
13651TIP3    H262445   5.061   3.071   0.274  1.5144  1.3807 -0.4974
13652TIP3   OH262446   0.453   0.187  13.390  0.0713 -0.4177  0.4473
13652TIP3    H162447   0.528   0.129  13.378  0.1684 -0.3119  0.5532
13652TIP3    H262448   0.481   0.271  13.354  0.0091 -0.3726  0.5045
13653TIP3   OH262449   3.949   6.115  12.071  0.4617  0.4893  0.1839
13653TIP3    H162450   3.877   6.166  12.108  0.6541  0.8597  0.0542
13653TIP3    H262451   3.926   6.024  12.088 -2.1996  0.3068 -3.6787
13654TIP3   OH262452   3.363   5.911   2.728  0.0444  0.2609 -0.1999
13654TIP3    H162453   3.411   5.883   2.650 -2.6219  0.8610 -2.1294
13654TIP3    H262454   3.324   5.830   2.763  1.4630 -0.0499  0.7037
13655TIP3   OH262455   3.634   6.486   1.996  0.6080 -0.5657  0.1287
13655TIP3    H162456   3.690   6.534   2.057  1.4611 -1.8315  0.3595
13655TIP3    H262457   3.556   6.465   2.046 -0.5697  2.1592 -0.5190
13656TIP3   OH262458   6.168   3.782   0.851 -0.1335 -0.8835 -0.1743
13656TIP3    H162459   6.141   3.832   0.927 -1.1302 -1.1442 -0.3435
13656TIP3    H262460   6.232   3.837   0.806 -1.0265  0.1242 -0.2171
13657TIP3   OH262461   1.699   3.800   5.988  0.5013  0.1236  0.0261
13657TIP3    H162462   1.665   3.821   6.075 -0.0608  0.7351 -0.3319
13657TIP3    H262463   1.682   3.707   5.977  0.2350  0.1252  0.4232
13658TIP3   OH262464   2.907   2.280  12.466  0.5483 -0.8062 -0.3696
13658TIP3    H162465   2.916   2.302  12.559  1.8736 -0.4850 -0.5719
13658TIP3    H262466   2.949   2.195  12.457  2.1339  0.0323 -1.0391
13659TIP3   OH262467   0.146   4.840  17.016  0.1143  0.4393 -0.0481
13659TIP3    H162468   0.132   4.865  17.107 -0.0322 -0.6422  0.2223
13659TIP3    H262469   0.123   4.748  17.012  1.3205  0.1650 -0.9096
13660TIP3   OH262470   2.351   5.619  10.648 -0.3804 -0.5942 -0.7862
13660TIP3    H162471   2.334   5.701  10.695  1.5823 -0.4842 -0.2316
13660TIP3    H262472   2.268   5.571  10.653 -1.1245  0.7476  0.1133
13661TIP3   OH262473   1.556   5.891  14.110  0.1453 -0.0623 -0.0376
13661TIP3    H162474   1.562   5.797  14.092 -1.2373 -0.2553  0.4248
13661TIP3    H262475   1.573   5.933  14.026  2.5798 -0.6461  0.1100
13662TIP3   OH262476   3.433   0.575   1.936 -0.6394 -0.8383 -0.0634
13662TIP3    H162477   3.498   0.508   1.960 -0.6695 -0.7358  0.3131
13662TIP3    H262478   3.351   0.543   1.973 -0.7028 -0.7121 -0.0947
13663TIP3   OH262479   1.317   4.112  16.514 -0.3252 -0.1151  0.3585
13663TIP3    H162480   1.222   4.120  16.511 -0.2140  0.8737 -0.5450
13663TIP3    H262481   1.350   4.201  16.523  0.5025 -0.4987  1.2852
13664TIP3   OH262482   2.822   1.278   3.661 -0.2365 -0.1490 -0.1751
13664TIP3    H162483   2.737   1.243   3.636 -0.4626  0.9331 -0.9772
13664TIP3    H262484   2.804   1.370   3.682  0.2655 -0.5669  2.2678
13665TIP3   OH262485   6.592   3.430  13.979 -0.4537  0.2282  0.1143
13665TIP3    H162486   6.603   3.484  14.058  0.4492  0.8824 -0.4596
13665TIP3    H262487   6.497   3.431  13.964 -0.5320  0.9878  0.5774
13666TIP3   OH262488   6.730   1.995  13.143 -0.4616  0.1609  0.7780
13666TIP3    H162489   6.683   2.043  13.211 -1.4051  1.3177 -0.6764
13666TIP3    H262490   6.674   2.001  13.066  1.4318  0.3784 -0.6009
13667TIP3   OH262491   0.308   4.505   0.390  0.0306  0.1902  0.4122
13667TIP3    H162492   0.235   4.465   0.342 -0.4691  0.6451  0.7840
13667TIP3    H262493   0.382   4.500   0.330 -0.1804 -0.7230  0.2165
13668TIP3   OH262494   6.653   2.531  16.731  0.7573 -0.1933 -0.2405
13668TIP3    H162495   6.618   2.448  16.765  2.5516 -1.3442 -1.1236
13668TIP3    H262496   6.580   2.593  16.739 -1.2542 -2.3276 -1.3109
13669TIP3   OH262497   5.528   5.221  10.563  0.0462 -0.0425  0.5000
13669TIP3    H162498   5.586   5.267  10.623 -1.1258 -0.4337  1.9638
13669TIP3    H262499   5.478   5.291  10.521 -0.3070  0.1559  1.2336
13670TIP3   OH262500   0.146   5.079  11.779 -0.0713  0.2311 -0.1954
13670TIP3    H162501   0.146   5.111  11.869 -0.3968  0.8567 -0.4207
13670TIP3    H262502   0.239   5.080  11.754  0.0796 -0.4608  0.3104
13671TIP3   OH262503   0.287   1.342  13.548  0.3521 -0.2332 -0.0622
13671TIP3    H162504   0.333   1.261  13.527  4.5942  2.0959 -0.2764
13671TIP3    H262505   0.302   1.354  13.642  2.4995  1.8798 -0.6433
13672TIP3   OH262506   2.362   2.500  13.099  0.4131  0.3272  0.5509
13672TIP3    H162507   2.458   2.504  13.098  0.4616 -0.6670  0.1151
13672TIP3    H262508   2.336   2.514  13.009  0.2765 -1.7012  0.2533
13673TIP3   OH262509   6.634   4.456  10.474  0.1859 -0.2902  0.2890
13673TIP3    H162510   6.721   4.414  10.469 -0.9127 -2.6503  0.2295
13673TIP3    H262511   6.647   4.542  10.436  2.3926 -0.8447 -0.2973
13674TIP3   OH262512   6.585   5.871  13.820  0.0894 -0.5451 -0.1909
13674TIP3    H162513   6.664   5.818  13.829 -0.1013 -0.6070  1.2175
13674TIP3    H262514   6.521   5.831  13.878 -0.1599  1.0264  0.6555
13675TIP3   OH262515   3.910   2.489  12.515  0.3165  0.0075  0.2430
13675TIP3    H162516   3.858   2.443  12.581 -1.5265 -2.1031 -2.5433
13675TIP3    H262517   3.997   2.450  12.522 -0.0501 -0.6995  0.9772
13676TIP3   OH262518   2.282   2.705  14.733  0.0233  0.2211  0.4688
13676TIP3    H162519   2.277   2.716  14.828 -0.7721  3.6207  0.0997
13676TIP3    H262520   2.198   2.738  14.701  0.2333 -1.0248 -1.4361
13677TIP3   OH262521   3.491   2.894   3.505 -0.2631  0.2108 -0.4001
13677TIP3    H162522   3.517   2.893   3.413  0.2734  0.2748 -0.2521
13677TIP3    H262523   3.540   2.822   3.545 -0.2536  0.3823 -0.0999
13678TIP3   OH262524   1.277   5.500   2.843 -0.4987 -0.1604  0.1792
13678TIP3    H162525   1.319   5.454   2.771 -0.9219  0.2353 -0.3211
13678TIP3    H262526   1.343   5.562   2.874 -0.3193 -0.3268  0.1299
13679TIP3   OH262527   6.493   0.815   2.905 -0.1246  0.6968  0.2013
13679TIP3    H162528   6.584   0.825   2.875 -0.1827 -0.2379 -0.2950
13679TIP3    H262529   6.441   0.815   2.825 -0.3658 -0.8716  0.3471
13680TIP3   OH262530   1.997   0.197  12.898 -0.5916  0.4702  0.0740
13680TIP3    H162531   2.076   0.152  12.926 -0.7982  0.0082 -0.0756
13680TIP3    H262532   2.026   0.257  12.830 -0.3143  0.5535  0.2667
13681TIP3   OH262533   0.709   4.707   3.675  0.4772  0.1197  0.0024
13681TIP3    H162534   0.794   4.668   3.654  0.5785  0.0882  0.4582
13681TIP3    H262535   0.715   4.796   3.641  0.8850  0.2782  0.4805
13682TIP3   OH262536   1.342   0.531  12.009 -0.2203  0.2696 -1.2099
13682TIP3    H162537   1.340   0.474  12.085 -0.2494  1.7346 -0.1078
13682TIP3    H262538   1.273   0.595  12.023  0.4938  1.2321 -1.9222
13683TIP3   OH262539   0.928   3.318  11.363  0.1065 -0.5340 -0.2437
13683TIP3    H162540   1.008   3.371  11.370  0.7080 -1.3241 -1.0684
13683TIP3    H262541   0.890   3.343  11.279  0.0717 -0.9750 -0.3600
13684TIP3   OH262542   2.996   2.088  15.188  0.3412 -0.5389 -0.7988
13684TIP3    H162543   3.060   2.155  15.164  0.2113 -0.0110  0.3126
13684TIP3    H262544   2.916   2.114  15.143 -0.4877  1.6141  1.7708
13685TIP3   OH262545   6.551   5.857  14.782  0.0059 -0.5452 -0.1896
13685TIP3    H162546   6.518   5.772  14.811  1.2333 -1.0758 -0.3068
13685TIP3    H262547   6.574   5.843  14.690 -2.6032  0.7529 -1.0538
13686TIP3   OH262548   0.850   1.986   5.980  0.0551  0.7370  0.0249
13686TIP3    H162549   0.878   2.062   6.030  1.0899  0.2383  0.2358
13686TIP3    H262550   0.777   1.949   6.030  0.5108  0.7489  0.7106
13687TIP3   OH262551   6.342   6.239  13.286  0.0192 -0.1611 -0.6651
13687TIP3    H162552   6.252   6.207  13.295 -0.3456  0.5917 -1.6228
13687TIP3    H262553   6.367   6.265  13.375 -0.5253 -0.8509 -0.3072
13688TIP3   OH262554   3.009   2.661   4.752 -0.6491 -0.7479  0.0064
13688TIP3    H162555   2.986   2.749   4.781  0.5346 -1.1898  2.3791
13688TIP3    H262556   2.970   2.603   4.817  1.4001 -1.7889  0.3595
13689TIP3   OH262557   1.677   5.625  12.438  1.1932 -0.6474  0.1164
13689TIP3    H162558   1.623   5.605  12.515 -0.9133  1.7163 -0.6911
13689TIP3    H262559   1.762   5.649  12.475  0.3820 -0.1039  1.7093
13690TIP3   OH262560   4.913   3.315   5.620  0.0125  0.0740 -0.1035
13690TIP3    H162561   4.965   3.282   5.694 -2.3119 -1.1999  1.0295
13690TIP3    H262562   4.930   3.254   5.549  0.0010 -0.3769  0.2829
13691TIP3   OH262563   2.850   0.541  11.649 -0.2597 -0.1395 -0.7652
13691TIP3    H162564   2.771   0.540  11.594 -0.6934  1.6302 -0.1918
13691TIP3    H262565   2.858   0.631  11.679  0.6783 -0.8019  1.0741
13692TIP3   OH262566   5.610   0.589   3.584  0.4081 -0.5662 -0.0694
13692TIP3    H162567   5.570   0.519   3.532 -2.0564  0.5964  0.1695
13692TIP3    H262568   5.704   0.570   3.582  0.7671  0.4439 -6.6005
13693TIP3   OH262569   4.949   2.980   3.152 -0.2817 -0.3235  0.3695
13693TIP3    H162570   4.944   3.065   3.109 -1.4384 -0.8353 -0.5463
13693TIP3    H262571   4.979   2.999   3.240  0.1413  0.9645 -0.0470
13694TIP3   OH262572   4.856   4.508   3.129  0.5585  0.2489  0.2150
13694TIP3    H162573   4.932   4.496   3.186  0.6329 -0.2777  0.0146
13694TIP3    H262574   4.825   4.596   3.147 -3.2720 -1.9388  5.7535
13695TIP3   OH262575   0.246   6.433   2.977  0.4684 -0.0638 -0.5735
13695TIP3    H162576   0.241   6.492   3.053 -0.2102  2.2883 -2.3785
13695TIP3    H262577   0.193   6.476   2.910  2.6922 -1.0643 -3.0563
13696TIP3   OH262578   5.481   1.214   3.531 -0.4144  0.0709 -0.1203
13696TIP3    H162579   5.433   1.267   3.594 -0.9437  2.5272 -2.4931
13696TIP3    H262580   5.415   1.182   3.470  0.5623  0.9752 -1.6816
13697TIP3   OH262581   6.735   2.905   4.919 -0.0594 -0.0090 -0.3656
13697TIP3    H162582   6.693   2.890   4.835  0.5187  0.2666 -0.7100
13697TIP3    H262583   6.819   2.860   4.912  0.1310  0.2909 -0.0625
13698TIP3   OH262584   0.569   5.211   3.545 -0.0211  0.0657 -0.2238
13698TIP3    H162585   0.575   5.295   3.498 -0.7246  0.1682 -0.1347
13698TIP3    H262586   0.504   5.226   3.613 -1.4989 -1.0737 -1.3404
13699TIP3   OH262587   6.502   1.155   1.723  0.1538 -0.1885  0.2667
13699TIP3    H162588   6.464   1.072   1.694 -0.2363  0.1113 -0.0977
13699TIP3    H262589   6.596   1.145   1.707  0.1560 -0.6923  0.5644
13700TIP3   OH262590   1.696   2.111  15.034  1.1429 -0.1626 -0.2259
13700TIP3    H162591   1.769   2.151  15.081  1.0825 -0.1659 -0.1293
13700TIP3    H262592   1.735   2.077  14.953  1.1329  0.4194 -0.4856
13701TIP3   OH262593   6.730   6.424   6.445 -0.3231 -0.3371 -0.1819
13701TIP3    H162594   6.706   6.517   6.448  2.1300  0.3560 -0.5756
13701TIP3    H262595   6.724   6.395   6.535  0.8231  0.7479  0.2634
13702TIP3   OH262596   4.820   3.381   4.220 -0.6249  0.3245 -0.0445
13702TIP3    H162597   4.838   3.462   4.172 -0.2577  0.4433  0.2931
13702TIP3    H262598   4.876   3.316   4.178 -0.6310  0.3341 -0.0662
13703TIP3   OH262599   0.354   0.076   5.444 -0.2460 -0.1888  0.1690
13703TIP3    H162600   0.365   0.032   5.529  1.1269 -1.3941 -0.6020
13703TIP3    H262601   0.403   0.157   5.454  1.3115 -1.0808  0.0167
13704TIP3   OH262602   2.410   0.545   0.084 -0.6051 -0.0750 -0.3217
13704TIP3    H162603   2.493   0.502   0.102 -0.4471 -1.1267 -3.1910
13704TIP3    H262604   2.432   0.615   0.022 -1.6129  0.7352  0.2097
13705TIP3   OH262605   2.807   1.300  14.301 -0.0097  0.8463 -0.5717
13705TIP3    H162606   2.896   1.310  14.335 -0.7011  0.6888  1.3408
13705TIP3    H262607   2.759   1.375  14.338 -0.9052  0.4150 -0.8435
13706TIP3   OH262608   3.961   0.746  15.316 -0.0448 -0.7430  0.0561
13706TIP3    H162609   4.055   0.764  15.329 -0.3229  0.1217  0.9665
13706TIP3    H262610   3.931   0.715  15.401 -0.5821 -1.0916 -0.2578
13707TIP3   OH262611   2.185   5.633  12.077  0.3995 -0.3393 -0.0188
13707TIP3    H162612   2.094   5.614  12.101  0.0588  2.3666  0.9984
13707TIP3    H262613   2.181   5.650  11.983 -0.6272  2.2577  0.4553
13708TIP3   OH262614   0.241   3.345  16.940  0.0795  0.0414 -0.1404
13708TIP3    H162615   0.167   3.333  16.880  0.0823 -1.8680  0.2021
13708TIP3    H262616   0.208   3.317  17.025  0.7081  0.7649  0.3485
13709TIP3   OH262617   0.162   3.886   2.223  0.3108  0.0762 -0.1628
13709TIP3    H162618   0.104   3.915   2.293  1.0026  0.4692  0.2557
13709TIP3    H262619   0.193   3.967   2.183  1.0827 -0.1186  0.0407
13710TIP3   OH262620   6.308   4.825   1.551  0.7161  0.1735  0.1723
13710TIP3    H162621   6.335   4.915   1.532  0.0172  0.7811  1.9726
13710TIP3    H262622   6.307   4.820   1.647 -1.1585 -1.1847  0.0993
13711TIP3   OH262623   4.579   5.460  14.094 -0.2644 -0.0676  0.1849
13711TIP3    H162624   4.590   5.368  14.120  0.4693 -0.3140 -0.9640
13711TIP3    H262625   4.665   5.485  14.058 -1.1476  0.3479 -1.7035
13712TIP3   OH262626   4.462   5.094   0.072 -0.0617 -0.1298 -0.0681
13712TIP3    H162627   4.374   5.063   0.055 -0.5265  0.2655  1.4960
13712TIP3    H262628   4.490   5.046   0.151  0.8697  0.2084 -0.1800
13713TIP3   OH262629   2.825   2.340   5.482 -0.7329 -0.6109 -0.8138
13713TIP3    H162630   2.734   2.365   5.500 -0.3971  1.2324 -1.5986
13713TIP3    H262631   2.819   2.250   5.450 -2.3413 -0.3181 -1.4114
13714TIP3   OH262632   3.571   1.267  11.349 -0.6337 -0.2987 -0.3401
13714TIP3    H162633   3.483   1.233  11.334 -0.3268 -1.2980  0.1027
13714TIP3    H262634   3.563   1.321  11.427 -0.4309 -2.0541  0.9078
13715TIP3   OH262635   3.295   3.156  13.007  0.0100  0.2405 -0.4365
13715TIP3    H162636   3.375   3.106  12.989 -1.0445 -1.4460 -0.5415
13715TIP3    H262637   3.323   3.248  13.003  1.8812 -0.3139 -0.7259
13716TIP3   OH262638   0.097   6.272  13.796  0.2736 -0.0270  0.1751
13716TIP3    H162639   0.056   6.186  13.791 -0.9359  0.5855 -1.0541
13716TIP3    H262640   0.065   6.309  13.879 -1.0051  0.1000 -0.3545
13717TIP3   OH262641   5.287   0.944  14.268  0.7218  0.1736  0.2894
13717TIP3    H162642   5.258   0.861  14.231 -0.4496  1.2514 -1.2809
13717TIP3    H262643   5.365   0.967  14.218  0.2912  0.6508 -0.1693
13718TIP3   OH262644   6.248   3.246  13.118 -0.4181  0.1527  0.8346
13718TIP3    H162645   6.313   3.303  13.160  0.4518 -0.0133 -0.2817
13718TIP3    H262646   6.275   3.157  13.141  1.3711 -0.0512 -1.9096
13719TIP3   OH262647   0.159   1.719  14.673 -0.2220  0.2607  0.0660
13719TIP3    H162648   0.194   1.757  14.592 -3.1273 -0.4826 -1.6035
13719TIP3    H262649   0.197   1.631  14.676 -0.9322 -0.0856 -1.0445
13720TIP3   OH262650   3.045   5.417  11.808 -0.8469  0.0602  0.2431
13720TIP3    H162651   3.137   5.432  11.790 -0.9159  0.6413  0.3712
13720TIP3    H262652   3.042   5.330  11.849 -0.1721  0.7153  1.7001
13721TIP3   OH262653   3.772   2.356  12.719  0.1704  0.3833  0.3808
13721TIP3    H162654   3.684   2.328  12.745  0.1042 -1.4232 -1.6440
13721TIP3    H262655   3.811   2.391  12.800 -0.9653 -2.5742  2.2954
13722TIP3   OH262656   3.421   1.543  13.334  0.5104  0.3399 -0.2348
13722TIP3    H162657   3.453   1.633  13.337  0.0433  0.5049 -0.1433
13722TIP3    H262658   3.325   1.552  13.328  0.5212 -0.1291 -1.3398
13723TIP3   OH262659   6.403   6.663  12.485  0.3276 -0.0178  0.3154
13723TIP3    H162660   6.319   6.641  12.526  0.3178  1.0214  0.8681
13723TIP3    H262661   6.381   6.731  12.422  0.8569  0.7464  0.9510
13724TIP3   OH262662   2.182   5.067  13.672  0.4169  0.4410 -0.1253
13724TIP3    H162663   2.148   5.152  13.698 -0.4761  0.5216 -1.4789
13724TIP3    H262664   2.104   5.015  13.651  0.9587 -0.6703  0.5722
13725TIP3   OH262665   0.550   4.147  13.574  0.1511  0.2820  0.0171
13725TIP3    H162666   0.500   4.080  13.527 -0.0082  0.2543  0.2255
13725TIP3    H262667   0.634   4.150  13.528  0.3919 -0.5073  0.3913
13726TIP3   OH262668   3.001   0.426  15.940 -0.1793  0.3484  0.5732
13726TIP3    H162669   2.920   0.377  15.957  1.1095 -1.8710  0.6021
13726TIP3    H262670   3.061   0.396  16.009  2.0250 -1.3228 -1.9995
13727TIP3   OH262671   3.546   6.176   0.048  0.2731 -0.0712 -0.6072
13727TIP3    H162672   3.578   6.132   0.127 -1.7827  0.6294  0.6363
13727TIP3    H262673   3.603   6.252   0.038  1.4175 -0.9160 -0.5934
13728TIP3   OH262674   3.405   3.062  15.334 -0.2858 -0.1984  0.2908
13728TIP3    H162675   3.333   3.109  15.290 -0.2585 -0.8419 -0.4488
13728TIP3    H262676   3.484   3.097  15.294 -0.2054  0.1508  0.7537
13729TIP3   OH262677   3.236   5.537   4.288  0.1362 -0.9107  0.7160
13729TIP3    H162678   3.158   5.505   4.243 -0.9169  1.4715  0.7788
13729TIP3    H262679   3.206   5.558   4.377  0.3364  1.8444  0.1919
13730TIP3   OH262680   1.583   4.389  13.053 -0.2456 -0.5542  0.0598
13730TIP3    H162681   1.505   4.343  13.022 -0.0195 -0.8820 -0.0179
13730TIP3    H262682   1.590   4.364  13.145 -1.2803  0.9158  0.5558
13731TIP3   OH262683   2.481   0.393   1.300 -0.0206 -0.0512  0.3838
13731TIP3    H162684   2.452   0.386   1.209 -0.9989  0.0534  0.6847
13731TIP3    H262685   2.412   0.350   1.351  0.8815 -0.7742  1.0149
13732TIP3   OH262686   5.554   6.767   0.476  0.2370  0.0674  0.3848
13732TIP3    H162687   5.561   6.764   0.380 -1.1030 -2.8724  0.3196
13732TIP3    H262688   5.461   6.780   0.493  0.4623  0.4983  1.2771
13733TIP3   OH262689   0.235   1.433   4.160  0.0477 -0.4902  0.1430
13733TIP3    H162690   0.303   1.473   4.106  0.8969 -1.9893  0.0803
13733TIP3    H262691   0.239   1.480   4.243  0.3612  0.2018 -0.2574
13734TIP3   OH262692   4.950   6.079   2.595  0.0997 -0.2311  0.5558
13734TIP3    H162693   5.017   6.090   2.662  0.5046  0.7981 -0.0033
13734TIP3    H262694   4.903   6.162   2.594 -1.0294 -0.8514  0.7647
13735TIP3   OH262695   1.169   0.729   1.783  0.4615  0.1788  0.0421
13735TIP3    H162696   1.220   0.670   1.727  0.5913  0.1055  0.2355
13735TIP3    H262697   1.079   0.699   1.773  0.3915  0.6389 -0.7047
13736TIP3   OH262698   0.789   6.251  13.968 -0.0643 -0.0354 -0.0266
13736TIP3    H162699   0.783   6.285  13.879 -1.6723  1.5649  0.6490
13736TIP3    H262700   0.774   6.328  14.024  0.2968 -1.1254  1.6153
13737TIP3   OH262701   0.464   0.098  15.125  0.1401  0.0302  0.5929
13737TIP3    H162702   0.423   0.181  15.099  0.1232 -0.1313  0.0889
13737TIP3    H262703   0.556   0.110  15.101  0.2498  0.1189  1.0545
13738TIP3   OH262704   4.800   1.060   2.231  0.0906  0.2761 -0.3710
13738TIP3    H162705   4.759   1.089   2.150 -0.0738 -1.2212 -0.8397
13738TIP3    H262706   4.728   1.024   2.283  0.2689  0.8015  0.2491
13739TIP3   OH262707   1.917   6.471   3.108 -0.0581  0.3494 -0.2776
13739TIP3    H162708   1.960   6.399   3.062  0.4297  0.2093  0.3910
13739TIP3    H262709   1.844   6.430   3.154  0.1456  0.2984  0.0029
13740TIP3   OH262710   5.517   2.246  12.626 -0.2548 -0.4384 -0.8192
13740TIP3    H162711   5.589   2.290  12.672 -0.4297 -0.8832 -0.1028
13740TIP3    H262712   5.558   2.170  12.585 -0.5534 -1.5053  0.7926
13741TIP3   OH262713   5.868   5.030   5.169  0.0576 -0.0234 -0.1059
13741TIP3    H162714   5.868   4.940   5.138 -1.0249 -0.1211  0.1545
13741TIP3    H262715   5.881   5.083   5.091  0.4895 -0.4037 -0.2881
13742TIP3   OH262716   1.990   4.033   6.320 -0.0728 -0.2213  0.2841
13742TIP3    H162717   2.055   3.981   6.368  1.6425  0.6577 -1.0384
13742TIP3    H262718   1.907   4.013   6.364  1.1669 -0.8410  2.4464
13743TIP3   OH262719   0.885   6.750  16.390 -0.0189  0.0531  0.1427
13743TIP3    H162720   0.805   6.789  16.355  0.7520  0.9220 -0.6775
13743TIP3    H262721   0.907   6.804  16.465  0.9313  1.0906 -0.8673
13744TIP3   OH262722   3.538   0.219  12.648  0.3684  0.7613 -0.0619
13744TIP3    H162723   3.490   0.139  12.628  0.1432  1.5478 -3.0040
13744TIP3    H262724   3.473   0.276  12.690 -1.3699  1.7433 -3.8199
13745TIP3   OH262725   0.276   6.048   3.803  0.1736  0.5615  0.0990
13745TIP3    H162726   0.345   6.106   3.770  0.3802  1.4007  1.9704
13745TIP3    H262727   0.247   6.088   3.885 -0.0303 -1.6867  1.1861
13746TIP3   OH262728   2.361   1.955   4.233  0.1594  0.1372  0.6944
13746TIP3    H162729   2.293   1.924   4.292  0.0200 -2.2771 -0.6730
13746TIP3    H262730   2.441   1.913   4.264 -0.0627 -1.8465 -1.2923
13747TIP3   OH262731   0.802   4.309   1.633 -0.1195  0.7006  0.2009
13747TIP3    H162732   0.769   4.225   1.601  0.1047  0.7387 -0.1218
13747TIP3    H262733   0.885   4.288   1.675  0.3718  0.8947 -0.6649
13748TIP3   OH262734   1.343   2.031   0.918  0.2955 -0.5134  0.3315
13748TIP3    H162735   1.288   2.109   0.922  0.3573 -0.4155 -0.6747
13748TIP3    H262736   1.303   1.977   0.849  0.8489 -0.9145  0.3201
13749TIP3   OH262737   2.435   3.880  13.262  0.5584 -0.0240  0.3329
13749TIP3    H162738   2.415   3.811  13.198  0.6040  1.0660 -0.8839
13749TIP3    H262739   2.457   3.833  13.342  1.2274 -1.4503 -0.6679
13750TIP3   OH262740   4.081   3.500  12.044 -1.1145  0.1271 -0.4913
13750TIP3    H162741   4.060   3.515  11.952 -1.4859  0.2139 -0.3906
13750TIP3    H262742   4.169   3.537  12.054 -0.8024 -0.4698 -0.9648
13751TIP3   OH262743   6.777   6.238  14.065 -0.1358  0.2369 -0.3164
13751TIP3    H162744   6.869   6.215  14.075  0.0013  0.4282 -1.1022
13751TIP3    H262745   6.755   6.283  14.146  0.3728 -0.0887  0.0102
13752TIP3   OH262746   1.266   1.029  16.331 -0.2481  0.1435 -0.5136
13752TIP3    H162747   1.341   1.047  16.275  1.7863 -0.2326  2.0201
13752TIP3    H262748   1.232   0.945  16.299  1.0009 -0.1648 -1.0581
13753TIP3   OH262749   1.741   6.120  12.256  0.5776  0.3470 -0.5116
13753TIP3    H162750   1.729   6.215  12.253 -0.4473  0.2618  0.4549
13753TIP3    H262751   1.758   6.101  12.348  0.7381 -0.4113 -0.6960
13754TIP3   OH262752   0.744   0.164   2.562  0.1889 -0.2260  0.0485
13754TIP3    H162753   0.796   0.241   2.581 -1.1164  0.4075  1.1434
13754TIP3    H262754   0.688   0.153   2.639 -0.1427 -1.8414 -0.3966
13755TIP3   OH262755   1.136   4.618   3.394  0.2787  1.3389  0.0624
13755TIP3    H162756   1.096   4.534   3.373  1.9488  1.0922 -2.3194
13755TIP3    H262757   1.086   4.682   3.344  0.9774  1.3774 -0.5937
13756TIP3   OH262758   1.340   5.275   5.836 -0.6079 -0.3055 -0.3371
13756TIP3    H162759   1.284   5.198   5.843  0.4625 -0.8972  2.2160
13756TIP3    H262760   1.356   5.302   5.927  0.7219  1.6798 -1.1218
13757TIP3   OH262761   4.742   6.327   3.210 -0.1013  0.2405 -0.2987
13757TIP3    H162762   4.696   6.379   3.145  0.2351  0.4152 -0.3994
13757TIP3    H262763   4.768   6.247   3.164 -0.3367  0.1243 -0.2309
13758TIP3   OH262764   6.217   0.386   3.834  0.3354 -0.3277  0.3309
13758TIP3    H162765   6.196   0.339   3.753  0.9684 -0.8256  0.4473
13758TIP3    H262766   6.287   0.334   3.874 -0.0078 -0.1161  1.2219
13759TIP3   OH262767   0.778   3.580  14.996 -0.0246  0.0745 -0.6109
13759TIP3    H162768   0.774   3.485  14.982 -0.0047 -0.1232  0.6932
13759TIP3    H262769   0.712   3.598  15.062  0.6749  0.8291 -0.1023
13760TIP3   OH262770   1.059   6.372   5.412  0.2293 -0.1128 -0.0891
13760TIP3    H162771   0.984   6.361   5.471  0.8174  1.3835  0.9572
13760TIP3    H262772   1.020   6.368   5.324 -1.4199  2.7699  0.4529
13761TIP3   OH262773   5.205   1.732   0.864 -0.0040  0.8389  0.1067
13761TIP3    H162774   5.155   1.762   0.940 -2.0123  2.7264 -1.8904
13761TIP3    H262775   5.291   1.772   0.875 -0.8072  2.4858  0.5616
13762TIP3   OH262776   6.207   6.794   2.515  0.8037  0.7013 -0.5337
13762TIP3    H162777   6.152   6.821   2.442  0.4955  0.0385 -0.5447
13762TIP3    H262778   6.259   6.872   2.536 -1.2232  1.8329  0.4779
13763TIP3   OH262779   0.842   4.472  13.976 -0.1290  0.5566 -0.1105
13763TIP3    H162780   0.885   4.453  13.892  1.2453 -0.5122  0.8112
13763TIP3    H262781   0.880   4.556  14.004  0.7074  0.0649  0.2587
13764TIP3   OH262782   2.007   4.117   6.627  0.1148 -0.3329  0.6054
13764TIP3    H162783   1.951   4.046   6.658  0.1890 -1.2457 -1.3140
13764TIP3    H262784   2.096   4.081   6.631  0.4405  0.5739  2.1305
13765TIP3   OH262785   6.289   5.839   5.199 -0.2541 -0.2901 -0.0737
13765TIP3    H162786   6.361   5.782   5.173  0.4177 -0.1248  1.3866
13765TIP3    H262787   6.260   5.880   5.117  0.6712 -1.0901 -0.8091
13766TIP3   OH262788   0.127   0.672  11.067 -0.0588 -0.0999 -0.2315
13766TIP3    H162789   0.132   0.667  10.972 -0.9553  2.1983 -0.4316
13766TIP3    H262790   0.188   0.742  11.090  0.1764 -0.6631  0.8992
13767TIP3   OH262791   0.259   2.137   3.430  0.2475  0.0175  0.0264
13767TIP3    H162792   0.299   2.224   3.434 -0.8037  0.4966  0.3051
13767TIP3    H262793   0.326   2.081   3.392  1.1016  0.8573  0.2872
13768TIP3   OH262794   5.673   3.261  12.581 -0.5407  0.1196 -0.5199
13768TIP3    H162795   5.741   3.280  12.646 -3.5587  0.7036  2.6339
13768TIP3    H262796   5.701   3.180  12.540  3.0726  1.4120 -0.7983
13769TIP3   OH262797   0.993   1.294  15.863  0.0802  0.5038 -0.3013
13769TIP3    H162798   0.996   1.216  15.919  0.3486  1.2231  0.6990
13769TIP3    H262799   1.082   1.330  15.868 -0.9716  2.8428  2.0751
13770TIP3   OH262800   3.517   3.665  14.890  0.5791 -0.2869 -0.0084
13770TIP3    H162801   3.589   3.613  14.854 -0.8604 -3.9050  2.0350
13770TIP3    H262802   3.451   3.665  14.821  1.5485  0.9881 -0.9612
13771TIP3   OH262803   2.026   6.343   0.688  0.1989 -0.2419 -0.0484
13771TIP3    H162804   2.015   6.409   0.756 -2.0179 -0.3257 -0.3011
13771TIP3    H262805   2.109   6.366   0.646  0.6874  0.8908  1.4715
13772TIP3   OH262806   5.876   5.225   5.649 -0.1880 -0.0026 -0.5755
13772TIP3    H162807   5.877   5.166   5.724 -1.6905 -0.0301 -0.5643
13772TIP3    H262808   5.940   5.187   5.588  1.7289  0.5216  1.0428
13773TIP3   OH262809   3.587   1.481  17.054 -0.0744  0.2748  0.4897
13773TIP3    H162810   3.657   1.527  17.101  1.1297 -1.3133  0.2891
13773TIP3    H262811   3.622   1.393  17.038 -1.2986  0.1083 -1.4847
13774TIP3   OH262812   3.111   4.033  14.642 -0.0460  0.3259 -0.0050
13774TIP3    H162813   3.083   4.014  14.731  0.8542 -0.0078  0.2195
13774TIP3    H262814   3.180   4.100  14.652  0.8814 -0.5572 -0.3443
13775TIP3   OH262815   2.341   1.191   5.880  0.0954 -0.7027 -0.0300
13775TIP3    H162816   2.303   1.183   5.793 -0.4735 -0.3219  0.1802
13775TIP3    H262817   2.333   1.284   5.901 -0.2134 -0.8770  0.6293
13776TIP3   OH262818   1.843   2.300   4.718 -0.3836 -0.8966  0.2448
13776TIP3    H162819   1.840   2.260   4.631  0.9415 -1.6668  0.5236
13776TIP3    H262820   1.808   2.388   4.706 -1.7417 -1.5508 -0.7329
13777TIP3   OH262821   2.396   0.748   4.891 -0.0200  0.4311  0.1226
13777TIP3    H162822   2.367   0.806   4.820 -0.5136  2.2740  1.7569
13777TIP3    H262823   2.375   0.797   4.971 -1.6973 -2.6097  1.6175
13778TIP3   OH262824   3.171   5.753   1.796 -0.0907 -0.1143 -0.2379
13778TIP3    H162825   3.091   5.792   1.761 -0.8735 -2.0382 -0.6637
13778TIP3    H262826   3.140   5.680   1.850  1.3622 -0.7419 -0.2373
13779TIP3   OH262827   3.133   5.307   0.343 -0.1343  0.5108  0.7909
13779TIP3    H162828   3.118   5.389   0.389 -0.1007  2.0787 -1.9241
13779TIP3    H262829   3.045   5.278   0.316 -0.1990 -0.6162  2.1484
13780TIP3   OH262830   2.637   5.051  11.963 -0.7487  0.2086 -0.6998
13780TIP3    H162831   2.719   5.015  11.931  0.4717  1.6956  0.6608
13780TIP3    H262832   2.578   5.048  11.887  0.1603 -1.9901 -1.3487
13781TIP3   OH262833   2.306   0.606  14.980  0.0198  0.3650 -0.0250
13781TIP3    H162834   2.243   0.659  14.931 -1.1788 -0.9722  0.0565
13781TIP3    H262835   2.378   0.591  14.918 -0.2465  0.9590 -0.4859
13782TIP3   OH262836   2.967   4.893   1.929  0.1091  0.0819 -0.5952
13782TIP3    H162837   2.997   4.818   1.877 -0.2366 -0.9199  0.6042
13782TIP3    H262838   3.039   4.911   1.989 -0.5284 -0.5164  0.3810
13783TIP3   OH262839   0.309   1.118   3.132  0.2813 -0.5727  0.0672
13783TIP3    H162840   0.370   1.062   3.181  1.6145  0.0858 -0.8290
13783TIP3    H262841   0.262   1.167   3.199  0.1236 -1.7107  0.8009
13784TIP3   OH262842   6.061   1.938   6.413  0.2652 -0.7122 -0.3337
13784TIP3    H162843   6.094   2.028   6.401  1.1820 -0.7473  1.6683
13784TIP3    H262844   5.982   1.934   6.359  1.7087  0.4378 -2.6309
13785TIP3   OH262845   3.918   1.425   2.466  0.0844 -0.8240  0.8663
13785TIP3    H162846   3.824   1.443   2.472 -0.1162 -1.7955  0.7198
13785TIP3    H262847   3.958   1.510   2.447 -0.8561 -0.5692 -0.0033
13786TIP3   OH262848   1.865   4.040   0.974  0.6285  0.0216 -0.2776
13786TIP3    H162849   1.837   4.117   0.924 -0.1755 -0.3009 -0.3230
13786TIP3    H262850   1.933   4.000   0.920 -2.1325 -1.8996 -2.5150
13787TIP3   OH262851   5.917   4.400   6.133  0.4161  0.0291  0.1257
13787TIP3    H162852   5.830   4.431   6.156  0.1603 -0.3368 -0.3192
13787TIP3    H262853   5.976   4.471   6.157 -0.0694  0.5185 -0.1364
13788TIP3   OH262854   6.412   5.046   3.631  0.0613 -0.5248 -0.0565
13788TIP3    H162855   6.354   4.973   3.605  0.8391 -0.8838 -0.8086
13788TIP3    H262856   6.357   5.101   3.686 -1.2907 -0.4063 -1.4665
13789TIP3   OH262857   5.468   2.300   0.591 -0.4119 -0.2651 -0.8472
13789TIP3    H162858   5.456   2.392   0.618  0.1194 -0.5717  0.4786
13789TIP3    H262859   5.498   2.306   0.500  0.4535  0.9299 -0.5129
13790TIP3   OH262860   2.682   2.792   5.304  0.5205  0.5777  0.3261
13790TIP3    H162861   2.677   2.765   5.395  2.0935 -0.4103  0.1293
13790TIP3    H262862   2.609   2.853   5.293  0.1824  0.5211  2.1733
13791TIP3   OH262863   0.626   1.954   6.150  0.7303 -0.1500 -0.3927
13791TIP3    H162864   0.621   2.044   6.181  2.6208 -0.1252 -0.0660
13791TIP3    H262865   0.543   1.939   6.105  0.9992  2.2283 -1.7263
13792TIP3   OH262866   1.521   1.915   3.629 -0.1004  0.3401 -0.2231
13792TIP3    H162867   1.604   1.955   3.603  0.8826 -2.3311 -1.4190
13792TIP3    H262868   1.516   1.927   3.723  0.3363  2.8904 -0.5029
13793TIP3   OH262869   1.217   3.079  16.120 -0.0133  0.2401 -0.0380
13793TIP3    H162870   1.198   2.988  16.098  0.1797 -0.1305  1.2761
13793TIP3    H262871   1.136   3.112  16.158 -0.4371  0.9634 -1.5248
13794TIP3   OH262872   6.413   4.211  13.852  0.3001  0.4903 -0.3006
13794TIP3    H162873   6.429   4.196  13.759  2.3890 -0.0166  0.1058
13794TIP3    H262874   6.341   4.274  13.855  0.4768  0.8061 -2.2593
13795TIP3   OH262875   3.549   4.622   5.377 -0.0860 -0.6351 -0.3682
13795TIP3    H162876   3.513   4.548   5.428 -3.2530  0.2392 -1.2349
13795TIP3    H262877   3.549   4.695   5.439  1.4227 -0.9267 -0.0120
13796TIP3   OH262878   6.005   1.164   1.594  0.4606  0.0149 -0.5151
13796TIP3    H162879   5.920   1.202   1.571  0.1312 -0.3704  0.0706
13796TIP3    H262880   6.037   1.217   1.666  1.4028  1.0872 -1.6903
13797TIP3   OH262881   2.103   2.876   1.797 -0.1388  0.4446  0.3731
13797TIP3    H162882   2.181   2.824   1.814 -0.2657  0.7904  2.1545
13797TIP3    H262883   2.043   2.817   1.752  0.5881 -0.2588  0.3263
13798TIP3   OH262884   1.488   3.249   1.036 -0.1839  0.1414 -0.4067
13798TIP3    H162885   1.470   3.189   0.963  1.6605 -0.2869 -0.5266
13798TIP3    H262886   1.577   3.227   1.064 -0.1007  1.7241  0.6278
13799TIP3   OH262887   1.911   4.814  12.241  0.5823 -0.1268 -0.9185
13799TIP3    H162888   1.871   4.900  12.254 -3.8233 -2.4375  2.1849
13799TIP3    H262889   1.977   4.808  12.310 -0.9167 -0.1896  0.5357
13800TIP3   OH262890   4.764   4.480  13.690  0.5852  0.0772  0.1614
13800TIP3    H162891   4.719   4.483  13.606 -1.9021 -1.8253  1.3714
13800TIP3    H262892   4.850   4.443  13.671  0.0019 -0.4240 -1.5103
13801TIP3   OH262893   0.922   3.698   4.397  0.0078  0.0155 -0.4194
13801TIP3    H162894   0.975   3.647   4.458  1.1912  0.4168 -1.1020
13801TIP3    H262895   0.946   3.665   4.311 -0.3214  0.6947 -0.7783
13802TIP3   OH262896   0.442   2.236   4.221 -0.1495  0.1921  0.0457
13802TIP3    H162897   0.499   2.303   4.184 -0.5358  0.0793 -0.7669
13802TIP3    H262898   0.454   2.243   4.315  0.0244  1.2161 -0.0535
13803TIP3   OH262899   1.718   4.945   6.439  0.0338  0.1471  0.3344
13803TIP3    H162900   1.659   4.972   6.369  0.1506  0.7381  0.4594
13803TIP3    H262901   1.731   4.851   6.425  0.3421  0.3288 -0.6536
13804TIP3   OH262902   6.043   0.475  15.770  0.0159  0.6009 -0.6161
13804TIP3    H162903   6.076   0.494  15.682  1.3074  2.1704  0.1848
13804TIP3    H262904   6.002   0.557  15.798 -0.6458  0.0190  0.1332
13805TIP3   OH262905   6.505   2.649  11.091  0.0514 -0.9591  0.4081
13805TIP3    H162906   6.542   2.626  11.176  0.5877  0.9641  0.7030
13805TIP3    H262907   6.511   2.744  11.086 -2.8215 -0.7486 -0.4705
13806TIP3   OH262908   1.514   5.273  11.350 -0.4009  0.1059 -0.1315
13806TIP3    H162909   1.527   5.365  11.374 -0.6313 -0.2589  1.4384
13806TIP3    H262910   1.441   5.244  11.405  0.2224 -1.2433 -0.0098
13807TIP3   OH262911   6.686   3.023   1.619 -0.2207 -0.1548  0.2849
13807TIP3    H162912   6.605   3.024   1.569 -0.4484  1.6317  0.6513
13807TIP3    H262913   6.663   2.985   1.703 -0.4732 -0.5115  0.0524
13808TIP3   OH262914   2.071   2.699  17.244 -0.1330 -0.0685  0.2721
13808TIP3    H162915   2.073   2.645  17.165  2.0046  0.3872 -0.0276
13808TIP3    H262916   2.138   2.766  17.229  1.5362 -0.9903  3.1435
13809TIP3   OH262917   2.781   5.914   3.583  0.1174 -0.5730 -0.3272
13809TIP3    H162918   2.771   5.994   3.635 -0.1550  0.8164 -2.4741
13809TIP3    H262919   2.691   5.891   3.558  0.2049 -1.5144  0.2100
13810TIP3   OH262920   1.889   2.447  11.396  0.4031  0.3784  0.1551
13810TIP3    H162921   1.904   2.412  11.484  0.4925  1.8100  0.7330
13810TIP3    H262922   1.893   2.371  11.338  0.3296 -0.5827  1.3917
13811TIP3   OH262923   6.631   5.537  12.709  0.6397  0.1797  0.3711
13811TIP3    H162924   6.693   5.485  12.658  1.0444  1.9770 -0.9997
13811TIP3    H262925   6.662   5.627  12.701  0.0965  0.6425  2.9178
13812TIP3   OH262926   1.418   6.529  14.931  0.6005  0.1323  0.3752
13812TIP3    H162927   1.513   6.527  14.931  0.6773  0.5226 -3.2826
13812TIP3    H262928   1.392   6.437  14.925  0.8562  0.1761 -1.8310
13813TIP3   OH262929   0.111   0.219  17.168 -0.3589 -0.1015 -0.2984
13813TIP3    H162930   0.059   0.273  17.109 -1.7805 -2.0966 -0.9583
13813TIP3    H262931   0.055   0.208  17.245 -0.3152 -1.0377 -0.3896
13814TIP3   OH262932   2.021   1.018  11.005  0.0681  0.3550 -0.4947
13814TIP3    H162933   1.998   1.111  11.012  1.6141  0.7826 -1.0020
13814TIP3    H262934   1.961   0.984  10.939 -1.5172  0.6381  0.7463
13815TIP3   OH262935   5.733   0.109   1.760  0.1765  0.0589  0.4144
13815TIP3    H162936   5.690   0.023   1.759  0.8260 -0.2528 -1.4472
13815TIP3    H262937   5.759   0.124   1.670  0.6791  1.9277  0.8555
13816TIP3   OH262938   5.416   6.330  11.669  0.0732 -0.3482 -0.1078
13816TIP3    H162939   5.391   6.376  11.589 -3.2807  1.3149  1.7815
13816TIP3    H262940   5.389   6.239  11.653 -0.7033 -0.0011 -0.8193
13817TIP3   OH262941   2.096   6.166   5.674  0.5326 -0.1545  0.5174
13817TIP3    H162942   2.094   6.184   5.768  0.5765 -0.4138  0.5685
13817TIP3    H262943   2.063   6.246   5.634 -1.3825 -0.7553  0.8429
13818TIP3   OH262944   6.748   1.206   4.595  0.1382  0.0419  0.0195
13818TIP3    H162945   6.724   1.206   4.688  0.2588  1.1489  0.0678
13818TIP3    H262946   6.816   1.273   4.589  1.0482 -0.9389 -0.6468
13819TIP3   OH262947   2.800   4.896  14.657  0.3351 -0.1431  0.4549
13819TIP3    H162948   2.718   4.945  14.666  0.7743  0.3903  1.5247
13819TIP3    H262949   2.797   4.831  14.727  0.3490 -0.8283 -0.1644
13820TIP3   OH262950   5.707   1.798  13.084  0.5099 -0.6852 -0.0225
13820TIP3    H162951   5.652   1.732  13.042  1.2828 -0.4198 -1.4657
13820TIP3    H262952   5.795   1.760  13.083  0.9049  0.2356 -0.5620
13821TIP3   OH262953   5.664   1.550   3.531  0.4378 -0.2355 -0.0951
13821TIP3    H162954   5.716   1.586   3.459 -0.8736  0.5038 -0.6991
13821TIP3    H262955   5.685   1.457   3.532  1.6738  0.0267 -0.4017
13822TIP3   OH262956   0.326   1.376  11.028  0.1269  0.1787 -0.0118
13822TIP3    H162957   0.267   1.315  11.072  0.0560 -1.1981 -1.9761
13822TIP3    H262958   0.268   1.439  10.985  0.0949 -1.0425 -1.7572
13823TIP3   OH262959   1.049   4.264   1.785  0.0715 -0.4502  0.0358
13823TIP3    H162960   1.120   4.309   1.739 -0.3996  0.3767  0.1295
13823TIP3    H262961   1.078   4.172   1.788  1.7986  0.1183  1.3067
13824TIP3   OH262962   5.980   0.965   3.816  0.4407 -0.3029  0.3113
13824TIP3    H162963   5.960   1.045   3.767  2.5228  1.1849  1.8259
13824TIP3    H262964   5.904   0.952   3.873  1.4292  2.4138  2.3368
13825TIP3   OH262965   1.212   5.459   0.146  0.3372 -0.5528  0.2873
13825TIP3    H162966   1.261   5.441   0.065  0.3585 -0.5271  0.2945
13825TIP3    H262967   1.150   5.386   0.152 -1.1301  0.5707 -0.8832
13826TIP3   OH262968   5.307   0.324  12.430 -0.3865 -0.2857 -0.0175
13826TIP3    H162969   5.246   0.388  12.392 -0.1905  0.0626  0.2483
13826TIP3    H262970   5.251   0.268  12.484 -0.6235 -0.6107 -0.5972
13827TIP3   OH262971   3.877   0.799   1.292  0.1488  0.5384  0.0432
13827TIP3    H162972   3.865   0.894   1.294  0.6311  0.5936  2.1275
13827TIP3    H262973   3.790   0.763   1.311 -0.1430  0.5439 -1.2593
13828TIP3   OH262974   5.175   6.124   1.261  0.5397 -0.5393  0.3737
13828TIP3    H162975   5.187   6.042   1.213 -1.3371 -1.1604  0.9195
13828TIP3    H262976   5.241   6.184   1.224 -2.7013 -0.0544 -5.1128
13829TIP3   OH262977   4.948   3.314  12.310 -0.3866  0.1335  0.5484
13829TIP3    H162978   4.979   3.234  12.353 -2.2037 -1.0946 -0.3843
13829TIP3    H262979   4.998   3.384  12.352  0.5169 -1.3836  2.0807
13830TIP3   OH262980   1.628   6.565   3.572 -0.0437 -0.0448 -0.0638
13830TIP3    H162981   1.570   6.586   3.499 -0.0537 -1.0472 -0.3596
13830TIP3    H262982   1.569   6.552   3.647 -0.0881  0.2939 -0.0392
13831TIP3   OH262983   4.773   0.797  13.935  0.3556 -0.6040  0.3812
13831TIP3    H162984   4.863   0.813  13.962  0.4994  0.5223 -0.7701
13831TIP3    H262985   4.777   0.715  13.886  1.0387  0.2806 -1.0713
13832TIP3   OH262986   6.239   1.875   3.771 -0.4918 -0.0427 -0.2234
13832TIP3    H162987   6.144   1.869   3.782 -0.4981 -0.3804 -0.4550
13832TIP3    H262988   6.265   1.789   3.740  0.2619 -0.8051  2.4105
13833TIP3   OH262989   4.396   3.033   5.623  0.5525  0.6841  0.1745
13833TIP3    H162990   4.331   3.062   5.687  0.7038 -2.6969  1.9686
13833TIP3    H262991   4.346   3.016   5.543 -0.5387 -0.3295  1.0619
13834TIP3   OH262992   3.253   1.378   2.550 -0.2176 -0.0366 -0.5369
13834TIP3    H162993   3.184   1.428   2.594 -0.0602  1.2739 -1.7330
13834TIP3    H262994   3.205   1.315   2.495 -0.4437 -0.0926 -0.2765
13835TIP3   OH262995   1.386   6.247  14.216  1.0045  0.5302  0.2999
13835TIP3    H162996   1.440   6.219  14.290  0.9594 -2.5184 -0.7817
13835TIP3    H262997   1.297   6.246  14.251  0.9760 -0.9537  0.2146
13836TIP3   OH262998   6.455   1.007   4.689 -0.3090 -0.6297 -0.6817
13836TIP3    H162999   6.479   0.955   4.614  0.7324 -0.8509 -0.1944
13836TIP3    H263000   6.359   0.999   4.694 -0.2335 -1.8193 -1.0855
13837TIP3   OH263001   0.497   5.614   1.034  0.1355  0.0862  0.2292
13837TIP3    H163002   0.472   5.564   0.957 -0.3356  1.5471 -0.5927
13837TIP3    H263003   0.421   5.669   1.053  0.9173  1.0621  0.6267
13838TIP3   OH263004   3.999   6.818  12.241  0.1569 -0.2752  0.0013
13838TIP3    H163005   3.993   6.787  12.331 -0.9031 -1.7198 -0.5564
13838TIP3    H263006   3.922   6.873  12.229  1.6057  1.9860  0.7332
13839TIP3   OH263007   0.236   0.492   0.143  0.0831  0.2660  0.5334
13839TIP3    H163008   0.143   0.488   0.119 -0.3136 -0.8607  2.1362
13839TIP3    H263009   0.262   0.400   0.152  1.4520  0.5731 -0.2749
13840TIP3   OH263010   0.073   5.146  12.258  0.2801 -0.2882  0.9623
13840TIP3    H163011   0.108   5.186  12.178  2.4614  2.0951  3.0494
13840TIP3    H263012   0.005   5.206  12.288  0.9114 -0.0778  2.0094
13841TIP3   OH263013   6.374   6.096  14.804 -0.7246 -0.1874  0.4660
13841TIP3    H163014   6.328   6.129  14.727 -0.5084 -0.4718  0.2120
13841TIP3    H263015   6.415   6.014  14.774 -1.3857 -0.7664  1.1283
13842TIP3   OH263016   2.107   1.195  14.750  0.2460  0.2768 -0.4309
13842TIP3    H163017   2.124   1.126  14.685 -0.1130  0.0591 -0.2956
13842TIP3    H263018   2.031   1.242  14.715 -0.7146 -0.6007  0.4259
13843TIP3   OH263019   4.905   6.393   4.896  0.0778  0.8623  0.1697
13843TIP3    H163020   4.821   6.435   4.919  0.4582  0.8402  1.6493
13843TIP3    H263021   4.953   6.461   4.849 -0.1258  1.4196  0.7573
13844TIP3   OH263022   5.958   1.981   3.326 -0.1234 -0.4055  0.3594
13844TIP3    H163023   5.911   2.061   3.349 -0.0697 -0.5453  0.9676
13844TIP3    H263024   6.047   2.011   3.305 -0.5945 -0.0837 -1.2660
13845TIP3   OH263025   2.224   5.793   5.502 -0.1164  0.5779 -0.0185
13845TIP3    H163026   2.310   5.799   5.542  0.8900 -0.0334 -2.0190
13845TIP3    H263027   2.236   5.824   5.412 -2.5839  3.1303  0.4584
13846TIP3   OH263028   6.230   1.674  13.296 -0.2207  0.1634  0.2360
13846TIP3    H163029   6.257   1.639  13.211  1.1891 -0.9019  1.0848
13846TIP3    H263030   6.245   1.768  13.290 -1.9053  0.3513 -1.3202
13847TIP3   OH263031   1.831   2.945   5.306 -0.0542 -0.4100  0.0025
13847TIP3    H163032   1.752   2.914   5.349  0.3897 -2.3885 -0.5414
13847TIP3    H263033   1.825   2.911   5.217  0.9087  0.3207 -0.3549
13848TIP3   OH263034   1.763   3.436   0.702 -0.1624 -0.1062 -0.3620
13848TIP3    H163035   1.786   3.397   0.617  1.5826  0.7630 -0.3106
13848TIP3    H263036   1.699   3.504   0.681 -1.1625 -1.1577 -0.7571
13849TIP3   OH263037   0.225   2.189  14.177  0.0838  0.0802 -0.0062
13849TIP3    H163038   0.269   2.215  14.258  0.6967  0.4321 -0.4462
13849TIP3    H263039   0.206   2.271  14.132  0.9589 -0.1626 -0.8474
13850TIP3   OH263040   1.562   6.649   2.731  0.5823  0.2520 -0.0562
13850TIP3    H163041   1.486   6.702   2.755 -0.7040 -2.0446  1.1026
13850TIP3    H263042   1.606   6.630   2.814  1.3941  0.0549 -0.5238
13851TIP3   OH263043   1.712   5.712   5.033 -0.3116  0.0236 -0.1389
13851TIP3    H163044   1.732   5.695   5.125 -0.4782  1.4734  0.1651
13851TIP3    H263045   1.753   5.639   4.986 -1.1851 -1.3258  1.1625
13852TIP3   OH263046   2.350   3.676   5.114 -0.3878  0.4607  0.2396
13852TIP3    H163047   2.420   3.623   5.152 -0.2250  0.8579  0.4902
13852TIP3    H263048   2.318   3.623   5.040  0.4502  0.4592 -0.1285
13853TIP3   OH263049   0.871   0.831   6.045 -0.1071  0.0998  0.9300
13853TIP3    H163050   0.942   0.776   6.077 -0.3693  0.7287  2.6803
13853TIP3    H263051   0.912   0.886   5.978  0.9507  0.1238  1.5749
13854TIP3   OH263052   4.155   3.193  15.923  0.1357  0.0649  0.4314
13854TIP3    H163053   4.082   3.225  15.976 -0.8806 -0.4175 -0.6571
13854TIP3    H263054   4.140   3.231  15.837  0.0423 -1.6666 -0.3335
13855TIP3   OH263055   2.081   6.371  15.607  0.0924 -0.1759  0.5719
13855TIP3    H163056   2.097   6.390  15.700 -2.3692 -0.9495  1.1989
13855TIP3    H263057   2.029   6.445  15.576 -1.2654 -1.1392  0.4955
13856TIP3   OH263058   5.553   4.979  16.511  0.2573  0.0495  0.0378
13856TIP3    H163059   5.511   5.042  16.452  1.6557 -1.0347 -2.2059
13856TIP3    H263060   5.491   4.967  16.582 -2.6755 -0.5642 -2.5290
13857TIP3   OH263061   3.629   5.840  14.724 -0.8500  0.0823  0.3718
13857TIP3    H163062   3.569   5.862  14.796 -0.3295  0.1918  0.7786
13857TIP3    H263063   3.586   5.876  14.646 -0.9827  0.7799  0.7534
13858TIP3   OH263064   3.918   4.670  14.193  0.4824 -0.4654  0.3801
13858TIP3    H163065   3.889   4.654  14.103 -0.3841 -0.1558  0.6015
13858TIP3    H263066   3.922   4.582  14.232  1.4752 -0.6537 -0.1449
13859TIP3   OH263067   4.444   3.062  16.052 -0.5812 -0.0548 -0.2900
13859TIP3    H163068   4.351   3.070  16.032 -0.9989 -1.3686  1.0565
13859TIP3    H263069   4.446   3.028  16.141  1.1997  1.8657  0.4413
13860TIP3   OH263070   6.396   6.687  14.341  0.2883  0.3606  0.0779
13860TIP3    H163071   6.365   6.729  14.421 -1.1896 -0.6563  0.0510
13860TIP3    H263072   6.371   6.749  14.271 -0.3995  0.2140  0.1930
13861TIP3   OH263073   3.100   3.460   0.906 -0.0705  0.1381 -0.0136
13861TIP3    H163074   3.081   3.401   0.980  0.0082 -0.3283 -0.3623
13861TIP3    H263075   3.184   3.429   0.872 -0.7798 -0.5478 -1.1749
13862TIP3   OH263076   2.300   0.984   2.894  0.4644  0.6705  0.1569
13862TIP3    H163077   2.276   1.003   2.803 -0.6144  2.0703  0.7048
13862TIP3    H263078   2.259   1.054   2.944 -0.7431 -1.2707  1.9506
13863TIP3   OH263079   6.521   0.597   3.413  0.2546  0.9466 -0.1302
13863TIP3    H163080   6.530   0.693   3.418  0.1273  1.0836 -2.1483
13863TIP3    H263081   6.489   0.581   3.325 -0.9076 -0.8968  0.6043
13864TIP3   OH263082   4.989   0.083  11.227 -0.0465 -0.3258 -0.3152
13864TIP3    H163083   5.067   0.038  11.196 -0.3877 -0.5105 -0.9169
13864TIP3    H263084   4.950   0.024  11.290 -0.5959 -0.9704 -1.2396
13865TIP3   OH263085   6.256   1.217  12.994 -0.4256  0.4108  0.0053
13865TIP3    H163086   6.214   1.293  13.033 -0.2527 -1.3585  3.8154
13865TIP3    H263087   6.350   1.232  13.006 -0.3352  0.0934 -0.2752
13866TIP3   OH263088   0.848   1.739  16.725  0.4736 -0.1144 -0.2945
13866TIP3    H163089   0.779   1.705  16.783  0.2593  1.9875  0.7095
13866TIP3    H263090   0.906   1.664  16.711  0.6234 -0.6236  2.7719
13867TIP3   OH263091   0.050   4.510   2.052 -0.3353  0.7398 -0.8063
13867TIP3    H163092   0.094   4.595   2.052 -1.7959  1.5088  0.1258
13867TIP3    H263093   0.084   4.466   2.130  0.5494  0.3890 -1.3816
13868TIP3   OH263094   2.990   5.015  13.844  0.1460 -0.6006 -0.5856
13868TIP3    H163095   3.040   5.082  13.889 -2.7134  0.7992  0.5745
13868TIP3    H263096   2.957   5.058  13.765 -0.8988 -0.8979 -0.3229
13869TIP3   OH263097   2.744   6.475  16.070  0.3387  0.1854 -0.2547
13869TIP3    H163098   2.777   6.418  16.001  0.0062  2.0853 -2.0388
13869TIP3    H263099   2.808   6.546  16.076 -0.5994  1.0163  0.0815
13870TIP3   OH263100   6.685   5.081  11.811  0.1183  0.6777 -0.1111
13870TIP3    H163101   6.657   5.051  11.898 -0.7719  1.3247 -0.1694
13870TIP3    H263102   6.774   5.114  11.825  0.6454 -0.8065  0.1990
13871TIP3   OH263103   4.626   5.341  15.555 -0.0691  0.7124 -0.1108
13871TIP3    H163104   4.634   5.282  15.630  1.1400  0.5983 -0.3106
13871TIP3    H263105   4.715   5.375  15.543 -0.3715  1.1364 -1.1586
13872TIP3   OH263106   1.592   4.438   2.236 -0.2604  0.2389 -0.1440
13872TIP3    H163107   1.671   4.491   2.236  0.3365 -0.6326 -0.0905
13872TIP3    H263108   1.621   4.351   2.207 -1.5140  0.3675 -1.8501
13873TIP3   OH263109   5.361   6.286   3.080  0.0676 -0.0531 -0.3027
13873TIP3    H163110   5.409   6.322   3.006  2.4952 -0.5622  0.9701
13873TIP3    H263111   5.415   6.307   3.156 -1.6132 -0.8911  1.1606
13874TIP3   OH263112   3.836   3.171   1.058 -0.1772  0.0718 -0.5042
13874TIP3    H163113   3.867   3.084   1.079  1.1780  0.4946 -0.7234
13874TIP3    H263114   3.906   3.230   1.087 -0.7307  1.0269 -1.0573
13875TIP3   OH263115   3.528   0.920  13.687 -0.7494  0.3631  0.1845
13875TIP3    H163116   3.462   0.990  13.680 -0.3556  0.5418 -2.1435
13875TIP3    H263117   3.549   0.898  13.596  2.5717  0.4637  0.8759
13876TIP3   OH263118   6.687   0.899   5.498 -0.2496 -0.6542  0.7175
13876TIP3    H163119   6.651   0.824   5.451 -0.4645  1.2315 -2.2379
13876TIP3    H263120   6.752   0.936   5.438  1.2544  0.4032  2.9376
13877TIP3   OH263121   5.630   1.206   3.156  0.4701 -0.3818  0.0324
13877TIP3    H163122   5.598   1.288   3.195 -1.6518 -0.5431 -1.2864
13877TIP3    H263123   5.724   1.205   3.175  0.5083  2.3289  0.1183
13878TIP3   OH263124   3.369   2.025  15.058  0.1817  0.1392 -0.2478
13878TIP3    H163125   3.307   1.992  14.994  0.8492  0.2347 -0.9479
13878TIP3    H263126   3.429   2.080  15.008 -0.0169  1.2078  0.6531
13879TIP3   OH263127   6.143   6.266   3.654  0.4135  0.1820 -0.0803
13879TIP3    H163128   6.154   6.184   3.605  0.4408  1.0117 -1.4766
13879TIP3    H263129   6.232   6.298   3.667  0.4323 -0.2484  0.8936
13880TIP3   OH263130   3.399   2.397  15.982  0.3695 -0.3445  0.5354
13880TIP3    H163131   3.352   2.317  16.004 -0.3689 -0.6236 -1.9245
13880TIP3    H263132   3.377   2.457  16.054 -2.2228 -1.0755  0.4345
13881TIP3   OH263133   3.264   0.739  14.454  0.2119  0.0209  0.0894
13881TIP3    H163134   3.239   0.714  14.542  0.2964 -1.0825 -0.1912
13881TIP3    H263135   3.356   0.712  14.447  0.3609  0.5842 -0.1588
13882TIP3   OH263136   5.163   0.416   2.594  0.2593 -0.2182  0.0585
13882TIP3    H163137   5.225   0.346   2.613 -1.1446 -0.3040  5.2097
13882TIP3    H263138   5.209   0.497   2.614  0.4832  0.0981 -1.6567
13883TIP3   OH263139   3.841   6.686  11.842 -0.3723 -0.0633  0.2636
13883TIP3    H163140   3.819   6.739  11.766  0.1345 -1.9954 -1.2765
13883TIP3    H263141   3.761   6.638  11.863 -0.4517  0.3073  0.8348
13884TIP3   OH263142   6.669   5.562  11.825  0.3571 -0.1613 -0.1655
13884TIP3    H163143   6.668   5.616  11.904 -1.6485  1.2851 -1.1127
13884TIP3    H263144   6.594   5.504  11.835 -1.6719  1.9702 -2.2020
13885TIP3   OH263145   4.525   2.763  12.931 -0.3756 -0.2199 -0.0333
13885TIP3    H163146   4.510   2.669  12.941  0.4911 -0.4171 -0.5087
13885TIP3    H263147   4.588   2.770  12.859 -0.9743  0.7698 -0.4619
13886TIP3   OH263148   3.815   4.191  12.463  0.1238 -0.3816 -0.3959
13886TIP3    H163149   3.851   4.146  12.539  3.1700 -0.4290 -1.7818
13886TIP3    H263150   3.799   4.121  12.399 -0.6499 -0.1315 -0.4822
13887TIP3   OH263151   3.008   2.569   6.056  0.0605 -0.3622  0.0961
13887TIP3    H163152   3.037   2.529   5.974  1.8493  0.4908  0.2799
13887TIP3    H263153   3.085   2.565   6.113 -0.4926  1.0282  0.9803
13888TIP3   OH263154   0.851   6.513   4.294 -0.4580 -0.0645 -0.8308
13888TIP3    H163155   0.797   6.536   4.218 -0.2298  0.2199 -0.9101
13888TIP3    H263156   0.800   6.541   4.370 -0.2557  0.5698 -0.9203
13889TIP3   OH263157   2.166   1.269   0.679  0.3543 -0.4287  0.1695
13889TIP3    H163158   2.164   1.180   0.645 -1.9643 -0.4128  0.2145
13889TIP3    H263159   2.075   1.296   0.681  0.9196  1.4654  1.4530
13890TIP3   OH263160   1.535   2.671  12.689 -0.1869  0.1113 -0.5085
13890TIP3    H163161   1.560   2.629  12.607  0.0071 -0.0794 -0.3539
13890TIP3    H263162   1.560   2.607  12.757 -0.2272  0.3219 -0.2947
13891TIP3   OH263163   2.729   2.750   3.041 -0.6953 -0.1572  0.3961
13891TIP3    H163164   2.784   2.804   2.984 -1.0192  0.1184  0.3453
13891TIP3    H263165   2.759   2.660   3.025  0.6508  0.1060  1.3422
13892TIP3   OH263166   3.069   6.439  15.893  0.1941  0.0256 -0.2513
13892TIP3    H163167   3.139   6.427  15.957 -1.9472  0.8518  2.3144
13892TIP3    H263168   3.082   6.368  15.830  3.1064 -0.0365  0.3425
13893TIP3   OH263169   4.521   5.550  14.361  0.0029 -0.4123  0.1379
13893TIP3    H163170   4.443   5.603  14.348  1.5013  1.4389 -1.9318
13893TIP3    H263171   4.555   5.536  14.272  1.7014 -1.6222  0.9492
13894TIP3   OH263172   5.445   3.556  12.907 -0.4875  0.4642 -0.4712
13894TIP3    H163173   5.528   3.511  12.896  0.3221  1.6753  0.6284
13894TIP3    H263174   5.467   3.638  12.950 -2.3752  0.3252  0.8257
13895TIP3   OH263175   6.233   6.728   3.249  0.9433  0.6002  0.7504
13895TIP3    H163176   6.196   6.772   3.172  0.2828 -1.2082  0.0005
13895TIP3    H263177   6.208   6.784   3.322 -0.1521  1.3079 -0.1353
13896TIP3   OH263178   6.680   5.753  13.319 -0.0755 -0.1640  0.1158
13896TIP3    H163179   6.604   5.775  13.374 -0.3617 -0.8282 -0.0030
13896TIP3    H263180   6.670   5.659  13.302  0.5645 -0.1687 -0.2274
13897TIP3   OH263181   0.064   5.852  15.675  0.2079 -0.1094 -0.0458
13897TIP3    H163182   0.056   5.862  15.770  0.7276  1.6403 -0.1638
13897TIP3    H263183   0.156   5.867  15.657 -0.1262  0.9136 -0.9631
13898TIP3   OH263184   5.856   3.459  16.254 -0.0603  0.0398 -0.0586
13898TIP3    H163185   5.828   3.549  16.235 -0.6841  0.1501  1.3277
13898TIP3    H263186   5.787   3.424  16.310  0.9856 -0.7800  0.7314
13899TIP3   OH263187   4.200   5.234  12.747  0.1785  0.1460  0.5149
13899TIP3    H163188   4.108   5.210  12.757 -0.7514  3.1053 -0.5274
13899TIP3    H263189   4.216   5.300  12.814  1.2456  0.4033  0.0237
13900TIP3   OH263190   4.487   5.506   4.085  0.5979  0.0992  0.3252
13900TIP3    H163191   4.499   5.600   4.088  0.9238  0.0392  0.9055
13900TIP3    H263192   4.483   5.485   3.992  2.3308  0.4459  0.1708
13901TIP3   OH263193   5.106   1.297  16.558  0.0711 -0.3029  0.2558
13901TIP3    H163194   5.139   1.216  16.519 -0.1548 -0.2667 -0.0062
13901TIP3    H263195   5.013   1.298  16.537 -0.1956 -0.6164  1.3538
13902TIP3   OH263196   0.503   2.491  15.849  0.7148  0.1276 -0.6704
13902TIP3    H163197   0.409   2.480  15.837  0.7523  0.1626 -0.9948
13902TIP3    H263198   0.543   2.431  15.786  0.9118 -0.8370  0.3398
13903TIP3   OH263199   6.042   6.533   3.182 -0.0454 -0.6852  0.0087
13903TIP3    H163200   6.099   6.457   3.199 -0.9730 -2.0277 -2.5650
13903TIP3    H263201   6.083   6.605   3.230  2.5347 -2.1574  0.1223
13904TIP3   OH263202   4.290   0.912  12.106 -0.0051  0.0853  0.1895
13904TIP3    H163203   4.274   0.818  12.097 -0.4251  0.1280  0.4734
13904TIP3    H263204   4.378   0.925  12.071 -0.4608 -0.2110 -1.0932
13905TIP3   OH263205   2.724   3.572   3.312  0.1765 -0.0470 -0.4184
13905TIP3    H163206   2.642   3.576   3.264  0.5169  0.4859 -0.9561
13905TIP3    H263207   2.787   3.536   3.250  0.0619 -1.7071  0.3949
13906TIP3   OH263208   1.642   3.091   5.570 -0.8465 -0.0267  0.0338
13906TIP3    H163209   1.690   3.009   5.583  1.4589  0.6076 -3.5474
13906TIP3    H263210   1.665   3.145   5.645  0.5106 -1.3785  0.6103
13907TIP3   OH263211   1.538   4.636   0.125  0.3716 -0.0364 -0.1179
13907TIP3    H163212   1.539   4.732   0.122  0.7125 -0.0784 -1.3879
13907TIP3    H263213   1.455   4.615   0.167 -0.4194  0.7904 -1.2388
13908TIP3   OH263214   4.659   0.159  15.265 -0.2961 -0.0507 -0.2770
13908TIP3    H163215   4.725   0.181  15.200  0.8349  0.7736  1.1354
13908TIP3    H263216   4.576   0.163  15.218  0.5075  0.5756 -1.6452
13909TIP3   OH263217   2.284   5.095   6.550 -0.2369  0.2600  0.0336
13909TIP3    H163218   2.300   5.184   6.519  0.9365  0.2763  0.6739
13909TIP3    H263219   2.294   5.040   6.473  1.4825  0.4248  0.1249
13910TIP3   OH263220   1.522   0.508  15.135 -0.0102  0.0732  0.1642
13910TIP3    H163221   1.555   0.504  15.045 -0.5112  2.1166 -0.1173
13910TIP3    H263222   1.569   0.437  15.180  0.5115 -0.7429 -1.5997
13911TIP3   OH263223   2.256   2.343   2.832  0.2899  0.2955  0.7330
13911TIP3    H163224   2.349   2.346   2.813 -0.1378  0.0686 -1.5117
13911TIP3    H263225   2.225   2.433   2.818  0.1284  0.3222  1.2489
13912TIP3   OH263226   1.420   3.356  16.652  0.0094  0.2074  0.3996
13912TIP3    H163227   1.485   3.335  16.719  0.7091 -0.8322 -0.5793
13912TIP3    H263228   1.336   3.343  16.695  0.4498  0.3956  1.3267
13913TIP3   OH263229   4.206   4.538   5.121  0.2362 -0.4741 -0.3718
13913TIP3    H163230   4.219   4.445   5.100 -0.7207 -0.8264  0.5280
13913TIP3    H263231   4.247   4.550   5.207 -1.1645 -0.4902  0.3133
13914TIP3   OH263232   0.903   2.647  10.650  0.0578 -0.1962  0.2940
13914TIP3    H163233   0.822   2.647  10.599  0.1936  0.5963  0.0689
13914TIP3    H263234   0.881   2.598  10.730 -0.6561  0.0516  0.2543
13915TIP3   OH263235   4.933   1.889  12.216  0.1962  0.3801  0.4036
13915TIP3    H163236   4.882   1.957  12.172  0.7581  1.1852  0.9850
13915TIP3    H263237   5.021   1.925  12.223  0.7540 -0.8233 -0.1860
13916TIP3   OH263238   0.394   3.256  11.807 -0.2054  0.2669 -0.3301
13916TIP3    H163239   0.349   3.313  11.746 -0.6880  1.2585  0.9225
13916TIP3    H263240   0.361   3.168  11.788 -1.0772  0.7031 -0.8328
13917TIP3   OH263241   2.548   1.862   5.192  0.4746  0.3184  0.3432
13917TIP3    H163242   2.573   1.770   5.201 -0.9814 -0.0541  0.5681
13917TIP3    H263243   2.554   1.898   5.281  0.0688  0.1952  0.4198
13918TIP3   OH263244   1.368   0.827  15.834 -0.2406 -0.1067 -0.3253
13918TIP3    H163245   1.289   0.878  15.823 -0.2964 -0.0319  0.3937
13918TIP3    H263246   1.439   0.886  15.809 -0.3137  0.2892  0.3735
13919TIP3   OH263247   5.979   2.855  13.327  0.1159  0.3593 -0.2979
13919TIP3    H163248   5.920   2.820  13.394 -0.6515 -0.2343 -1.2546
13919TIP3    H263249   5.933   2.838  13.244  1.1419  0.8798 -0.9837
13920TIP3   OH263250   2.588   4.884  10.596 -0.4386  0.6972  0.5158
13920TIP3    H163251   2.539   4.805  10.573  2.0286 -0.4770 -0.8907
13920TIP3    H263252   2.521   4.950  10.613 -2.5039 -1.1621 -0.2076
13921TIP3   OH263253   6.616   6.618  17.236  0.2863  0.1417  0.4409
13921TIP3    H163254   6.577   6.589  17.318 -0.4568  0.1392  0.0925
13921TIP3    H263255   6.703   6.648  17.260  0.4818 -0.8844  1.0559
13922TIP3   OH263256   3.720   1.477  13.972 -0.4691 -0.7774  0.3039
13922TIP3    H163257   3.634   1.445  13.999 -0.5077 -0.6685  0.3128
13922TIP3    H263258   3.739   1.430  13.891 -0.4850 -0.8871  0.3634
13923TIP3   OH263259   2.167   3.694  14.121 -0.3567 -0.2530  0.2847
13923TIP3    H163260   2.226   3.727  14.053 -0.1759 -0.2296  0.4519
13923TIP3    H263261   2.175   3.599  14.116  1.0628 -0.2102  1.5085
13924TIP3   OH263262   3.498   3.216  11.631  0.4183 -0.0434 -0.1412
13924TIP3    H163263   3.502   3.158  11.555 -0.8957 -0.4770  0.0997
13924TIP3    H263264   3.512   3.304  11.596  2.7216 -0.5239 -0.4739
13925TIP3   OH263265   1.841   4.534   3.565 -0.5105 -0.8106 -0.5495
13925TIP3    H163266   1.881   4.598   3.505  0.5547 -1.5871 -0.6850
13925TIP3    H263267   1.747   4.538   3.545 -0.4759  0.8212 -0.4457
13926TIP3   OH263268   2.508   1.369  15.002  0.6991 -0.0096  0.3383
13926TIP3    H163269   2.438   1.408  14.948  0.3083 -0.1505  0.7406
13926TIP3    H263270   2.567   1.442  15.020  0.2925  0.2685  0.5715
13927TIP3   OH263271   5.234   6.641  12.781 -0.3865 -0.1580 -0.6252
13927TIP3    H163272   5.223   6.609  12.871  0.3219  1.7757  0.1642
13927TIP3    H263273   5.222   6.563  12.727 -1.9600 -1.1305  1.0713
13928TIP3   OH263274   6.558   0.601  16.948 -1.5338  0.3803  0.3258
13928TIP3    H163275   6.522   0.653  16.877  0.5624  1.0610 -0.2974
13928TIP3    H263276   6.573   0.514  16.911 -2.2384  0.1891  0.4960
13929TIP3   OH263277   6.708   1.623  16.001  0.1207  0.4670 -0.0808
13929TIP3    H163278   6.783   1.655  15.951 -0.5639  1.2963 -0.5942
13929TIP3    H263279   6.649   1.698  16.006 -1.3858 -0.6311 -1.0827
13930TIP3   OH263280   2.682   4.602  12.196  0.1613 -0.2020 -0.0903
13930TIP3    H163281   2.593   4.581  12.226  0.5913 -1.1684  0.5428
13930TIP3    H263282   2.684   4.697  12.193 -0.1903 -0.0856  2.1593
13931TIP3   OH263283   6.661   3.498  15.835 -0.0701 -0.6328  0.0751
13931TIP3    H163284   6.680   3.554  15.760 -0.7118 -0.1216  0.2957
13931TIP3    H263285   6.735   3.437  15.838  0.7807  0.3827  0.0172
13932TIP3   OH263286   4.476   4.370  13.575 -0.3747  0.7888 -0.5953
13932TIP3    H163287   4.454   4.353  13.483 -0.2203  0.6424 -0.6043
13932TIP3    H263288   4.566   4.338  13.585  0.1716  2.1883 -0.7876
13933TIP3   OH263289   4.317   1.871  12.051  0.1457 -0.4224  0.3262
13933TIP3    H163290   4.275   1.796  12.008 -0.7152  0.7670 -0.9597
13933TIP3    H263291   4.305   1.854  12.144 -0.7245 -1.5137  0.0424
13934TIP3   OH263292   3.564   0.293   4.632  0.0510 -0.2369 -0.2769
13934TIP3    H163293   3.609   0.364   4.677 -1.0720 -0.5268  1.3566
13934TIP3    H263294   3.628   0.221   4.632  0.1912 -0.1211  0.5640
13935TIP3   OH263295   1.750   5.010  14.568  0.5352  0.3503  0.1516
13935TIP3    H163296   1.759   4.990  14.475 -0.4103  0.8995 -0.0655
13935TIP3    H263297   1.839   5.005  14.602  0.6207 -1.9464 -0.3428
13936TIP3   OH263298   5.859   5.402  15.131  0.0734 -0.2364  0.3851
13936TIP3    H163299   5.939   5.396  15.184 -0.7694  1.0909  1.8449
13936TIP3    H263300   5.866   5.486  15.087  1.1396 -1.6744 -2.2754
13937TIP3   OH263301   3.992   6.619   3.998 -0.9467  0.1272 -0.4056
13937TIP3    H163302   4.048   6.568   3.940 -1.6466 -0.3973 -0.6258
13937TIP3    H263303   3.985   6.704   3.956 -0.7545  0.0246 -0.6475
13938TIP3   OH263304   2.255   6.383  14.696  0.4833  0.8020  0.0516
13938TIP3    H163305   2.312   6.412  14.767 -0.5111 -0.7145  1.4832
13938TIP3    H263306   2.172   6.360  14.738  0.0978 -0.7880 -1.4820
13939TIP3   OH263307   4.481   4.478  15.398 -0.1113 -0.8481  0.0784
13939TIP3    H163308   4.452   4.393  15.431  1.4164 -1.5946 -0.4712
13939TIP3    H263309   4.566   4.493  15.440 -0.7789  0.8600  0.9025
13940TIP3   OH263310   2.458   6.152  11.844  0.1988  0.0360 -0.2615
13940TIP3    H163311   2.519   6.149  11.770 -1.8108 -2.2325 -1.9201
13940TIP3    H263312   2.384   6.204  11.813  0.0050  0.3653  0.7168
13941TIP3   OH263313   4.579   5.844   2.312  0.7186  0.1830  0.1889
13941TIP3    H163314   4.513   5.904   2.277 -1.3513 -0.4320  2.8237
13941TIP3    H263315   4.636   5.899   2.365  0.8342  0.3460 -0.1051
13942TIP3   OH263316   2.985   5.486  16.527  0.2884  0.3025 -0.8664
13942TIP3    H163317   2.950   5.570  16.558  1.8336  0.5883  0.1411
13942TIP3    H263318   3.063   5.471  16.580  0.3912 -1.4750 -1.4709
13943TIP3   OH263319   0.342   5.927  10.950 -0.1953  0.2061 -0.4881
13943TIP3    H163320   0.358   5.984  11.025 -0.3486  0.0108 -0.3044
13943TIP3    H263321   0.418   5.938  10.894  0.2430 -0.1755  0.0314
13944TIP3   OH263322   2.566   2.565   2.663 -0.1377 -0.1345  0.3908
13944TIP3    H163323   2.646   2.595   2.706 -0.2496  0.4237  0.2017
13944TIP3    H263324   2.570   2.601   2.575  0.8563 -2.5726 -0.6200
13945TIP3   OH263325   3.716   3.755  11.703  0.7524 -0.4728  0.1450
13945TIP3    H163326   3.741   3.801  11.784 -0.5613 -0.0266  0.2986
13945TIP3    H263327   3.794   3.762  11.647  0.8591  1.1951  0.4915
13946TIP3   OH263328   0.639   5.241  11.945 -0.1711 -0.2705 -0.0033
13946TIP3    H163329   0.706   5.216  11.881 -1.1587 -0.9108 -0.8151
13946TIP3    H263330   0.688   5.275  12.020  1.1382 -2.2914  0.1010
13947TIP3   OH263331   1.687   1.060   4.236  0.0393 -0.0592 -0.3366
13947TIP3    H163332   1.662   0.995   4.301 -1.0544  0.3921 -0.3083
13947TIP3    H263333   1.714   1.137   4.287  2.1807 -0.7669 -0.3424
13948TIP3   OH263334   3.662   4.824  13.533 -0.1188 -0.0289  0.0750
13948TIP3    H163335   3.668   4.886  13.461  1.6250 -0.2362  0.0142
13948TIP3    H263336   3.593   4.858  13.590 -1.6875  0.0018 -1.8170
13949TIP3   OH263337   5.955   1.579  13.466  0.0347  0.2621 -0.4896
13949TIP3    H163338   6.012   1.540  13.399 -1.8013 -0.6916 -1.5259
13949TIP3    H263339   5.875   1.602  13.419 -1.2165 -0.2445  1.3408
13950TIP3   OH263340   1.311   3.083  11.699 -0.5346  0.3266  0.5743
13950TIP3    H163341   1.251   3.106  11.628  0.3015  0.5406 -0.0631
13950TIP3    H263342   1.254   3.074  11.776 -1.3547  0.7668  0.0278
13951TIP3   OH263343   6.715   5.548   5.233 -0.0649 -0.2470 -0.7743
13951TIP3    H163344   6.788   5.487   5.242 -0.3907 -0.5881 -0.4594
13951TIP3    H263345   6.687   5.539   5.141 -1.0372 -1.6148 -0.3471
13952TIP3   OH263346   0.592   0.924   2.002 -0.1515 -0.2571 -0.0151
13952TIP3    H163347   0.607   1.000   1.947 -0.2160  0.4421  0.9229
13952TIP3    H263348   0.496   0.915   2.005 -0.1526 -0.2194  0.0782
13953TIP3   OH263349   3.680   3.814  14.679  0.2049 -0.0797 -0.2766
13953TIP3    H163350   3.592   3.843  14.655  0.7628  1.7525 -0.1919
13953TIP3    H263351   3.670   3.773  14.764 -0.6415 -0.2884 -0.4753
13954TIP3   OH263352   2.822   1.616  11.233  0.3995 -0.2997 -0.3333
13954TIP3    H163353   2.810   1.552  11.163  1.4971  1.2073 -1.9462
13954TIP3    H263354   2.916   1.628  11.239  0.2430  0.6024  0.4704
13955TIP3   OH263355   4.144   0.580   4.333  0.3329 -0.5956 -0.5432
13955TIP3    H163356   4.147   0.675   4.319 -0.5168 -0.2359  1.5366
13955TIP3    H263357   4.203   0.545   4.267  0.2991  1.3421 -1.6650
13956TIP3   OH263358   4.972   3.800   6.324 -0.1285 -0.1601 -0.5117
13956TIP3    H163359   4.926   3.879   6.351 -0.1444 -0.5474  0.5929
13956TIP3    H263360   4.926   3.771   6.245  0.3812  1.3702 -1.3869
13957TIP3   OH263361   3.581   1.051  11.950  0.3846 -0.1084  0.3290
13957TIP3    H163362   3.549   1.104  12.023  0.2570 -0.7369  0.7355
13957TIP3    H263363   3.539   0.966  11.962  2.7301 -1.1774  1.2749
13958TIP3   OH263364   6.601   2.264  12.251 -0.2209  0.4237  0.3718
13958TIP3    H163365   6.587   2.171  12.267 -0.6467  0.4637  0.2495
13958TIP3    H263366   6.623   2.301  12.337 -0.0901  0.2182  0.4267
13959TIP3   OH263367   1.820   5.345  11.347 -0.0172 -0.2075  0.6484
13959TIP3    H163368   1.858   5.341  11.259  0.8070  0.1632  0.9793
13959TIP3    H263369   1.727   5.329  11.334  0.2270 -0.9606 -0.2032
13960TIP3   OH263370   3.298   1.603   3.993  0.2606 -0.0881  0.2702
13960TIP3    H163371   3.356   1.585   3.919  0.9029  1.7874  0.2899
13960TIP3    H263372   3.333   1.683   4.032 -1.0087 -0.1871  1.6613
13961TIP3   OH263373   3.361   3.885  17.088 -0.2641 -0.1444  0.3555
13961TIP3    H163374   3.357   3.976  17.058  3.7511 -0.6053 -1.9935
13961TIP3    H263375   3.397   3.891  17.177  0.3835  0.5857  0.0556
13962TIP3   OH263376   4.580   0.978  14.057  0.2911  0.4842  0.0503
13962TIP3    H163377   4.644   0.922  14.013 -2.3068 -1.6564 -1.1832
13962TIP3    H263378   4.588   0.954  14.150  1.0789  0.0363 -0.1274
13963TIP3   OH263379   5.146   6.156  17.191 -0.2009 -0.0956 -0.1902
13963TIP3    H163380   5.191   6.176  17.109  0.5237  1.0227  0.4638
13963TIP3    H263381   5.163   6.063  17.206 -1.1497 -0.5312 -1.7979
13964TIP3   OH263382   4.673   6.431  15.794  0.1469 -0.3587  0.0787
13964TIP3    H163383   4.655   6.496  15.862  1.5166  1.3600 -1.1824
13964TIP3    H263384   4.593   6.428  15.742  0.0631  0.2546  0.1726
13965TIP3   OH263385   1.530   1.309  11.464  0.8779 -0.9662 -0.7732
13965TIP3    H163386   1.625   1.305  11.476  0.9359 -0.6360 -1.1252
13965TIP3    H263387   1.514   1.264  11.381  0.9440  0.8255 -1.7889
13966TIP3   OH263388   4.985   3.237  14.913  0.3578 -0.0680 -0.1927
13966TIP3    H163389   4.958   3.187  14.837 -1.9889 -1.0135  1.2127
13966TIP3    H263390   5.035   3.176  14.967  1.3055  0.3622 -0.5814
13967TIP3   OH263391   1.484   4.994  10.655 -0.1245  0.5316 -0.4613
13967TIP3    H163392   1.470   5.080  10.615 -0.7291 -0.0665 -1.5458
13967TIP3    H263393   1.489   4.934  10.581  2.6122 -0.0731  0.1584
13968TIP3   OH263394   4.962   0.610  13.558 -0.0625 -0.3422  0.2533
13968TIP3    H163395   4.905   0.661  13.500  0.1960 -0.9008 -0.4918
13968TIP3    H263396   4.911   0.601  13.639  0.9118  3.3084  1.3581
13969TIP3   OH263397   1.649   1.688  14.763  0.2826 -0.1846  0.0941
13969TIP3    H163398   1.612   1.776  14.770 -0.4574 -0.5869  1.4123
13969TIP3    H263399   1.655   1.671  14.669 -0.4000  0.9158 -0.1509
13970TIP3   OH263400   0.671   5.635   5.067  0.0226  0.5735 -0.0790
13970TIP3    H163401   0.712   5.680   5.140 -0.6645  0.2826  0.4889
13970TIP3    H263402   0.678   5.696   4.994  0.0412  1.1645  0.4196
13971TIP3   OH263403   3.686   4.937   3.164 -0.3555  0.6757  0.4675
13971TIP3    H163404   3.740   5.015   3.178 -0.7252  1.0161  0.0244
13971TIP3    H263405   3.603   4.958   3.207 -0.6024  0.7005 -0.0132
13972TIP3   OH263406   6.668   0.138   0.626 -0.1791  0.0612  0.3490
13972TIP3    H163407   6.657   0.224   0.586 -2.0789  0.6340  2.0216
13972TIP3    H263408   6.612   0.141   0.705 -0.4213 -2.7454  0.3233
13973TIP3   OH263409   3.959   5.798  15.044 -0.0677  0.5774 -0.0708
13973TIP3    H163410   3.931   5.833  15.128 -0.1562 -0.0958  0.1843
13973TIP3    H263411   3.901   5.841  14.980 -0.6114  0.3985  0.3005
13974TIP3   OH263412   2.409   2.286  10.765 -0.1919 -0.1377 -0.1994
13974TIP3    H163413   2.325   2.324  10.741  0.1643 -0.3682 -1.8825
13974TIP3    H263414   2.460   2.360  10.799 -0.8240  0.1297  0.1766
13975TIP3   OH263415   3.878   1.259  12.033 -0.3453 -0.6501 -0.1326
13975TIP3    H163416   3.803   1.238  12.088  0.8576 -1.7278  1.1425
13975TIP3    H263417   3.915   1.339  12.071 -0.1300 -0.8127  0.0051
13976TIP3   OH263418   4.420   6.517  11.615 -0.1601  0.6497  0.4088
13976TIP3    H163419   4.435   6.513  11.521  1.2904 -1.8598  0.6982
13976TIP3    H263420   4.427   6.426  11.644 -1.1546  1.3176  2.8631
13977TIP3   OH263421   3.662   6.133  11.144 -0.7445  0.9279 -0.3106
13977TIP3    H163422   3.571   6.160  11.131 -0.8263  0.8150  0.0506
13977TIP3    H263423   3.693   6.188  11.216 -1.1967 -0.6291  1.0881
13978TIP3   OH263424   4.504   5.435   3.209  0.1270 -0.5923 -0.2125
13978TIP3    H163425   4.494   5.522   3.247  0.9187 -0.6869  0.2105
13978TIP3    H263426   4.556   5.449   3.129  1.6588 -0.8854  0.7147
13979TIP3   OH263427   0.560   4.081  12.436  0.1113 -0.1999  0.4960
13979TIP3    H163428   0.470   4.095  12.408 -0.2455 -0.3531  1.5282
13979TIP3    H263429   0.596   4.020  12.372 -0.8052 -0.8610  0.5965
13980TIP3   OH263430   2.016   4.328  12.213 -0.1430  0.0523  0.4162
13980TIP3    H163431   2.080   4.381  12.260 -0.5986  0.1887  0.8957
13980TIP3    H263432   2.000   4.375  12.131  2.2707 -1.2873 -0.8655
13981TIP3   OH263433   1.468   6.554   2.298  0.3977  0.3050  0.3445
13981TIP3    H163434   1.413   6.588   2.227  2.6731 -1.0034 -2.1223
13981TIP3    H263435   1.419   6.480   2.333 -0.5146  0.6285 -0.2357
13982TIP3   OH263436   4.947   4.527   0.850 -0.0443 -0.3197 -0.4008
13982TIP3    H163437   4.862   4.483   0.844 -1.6951  2.5243  0.8550
13982TIP3    H263438   4.965   4.530   0.944  0.1577  1.3738 -0.4744
13983TIP3   OH263439   4.266   2.027   1.144  0.0040 -0.4744  0.1632
13983TIP3    H163440   4.314   1.953   1.108 -1.3653 -0.1287 -2.5507
13983TIP3    H263441   4.196   2.043   1.081  0.0299  2.8817  0.8716
13984TIP3   OH263442   2.531   3.188  15.979 -0.4340 -0.3165  0.3279
13984TIP3    H163443   2.488   3.104  15.995 -0.5357  0.2487  3.2530
13984TIP3    H263444   2.490   3.221  15.899 -0.2442 -3.1155 -0.9970
13985TIP3   OH263445   5.557   2.255  11.764 -0.1936 -0.0898 -0.5551
13985TIP3    H163446   5.516   2.279  11.847 -1.0018 -2.2526 -0.3080
13985TIP3    H263447   5.544   2.331  11.708  1.5467  1.9480  1.6998
13986TIP3   OH263448   2.708   4.881  11.643  0.0659  0.6099  0.0239
13986TIP3    H163449   2.782   4.845  11.594  0.6269  0.1439  1.1834
13986TIP3    H263450   2.733   4.972  11.661 -0.2916  0.8829 -0.8345
13987TIP3   OH263451   5.336   5.402   4.518 -0.1966 -0.3456 -0.3637
13987TIP3    H163452   5.334   5.498   4.514  1.3310 -0.2377  0.9437
13987TIP3    H263453   5.250   5.378   4.553  0.0832  0.6810  1.0916
13988TIP3   OH263454   0.427   6.546   5.551  0.2145  0.0385 -0.3880
13988TIP3    H163455   0.382   6.463   5.567  0.6831  0.0204  0.8674
13988TIP3    H263456   0.462   6.537   5.462 -0.2077 -0.8865 -0.4682
13989TIP3   OH263457   6.747   2.652  17.237 -0.7616 -0.1022 -0.1305
13989TIP3    H163458   6.772   2.701  17.315 -1.7820  1.4903 -0.7905
13989TIP3    H263459   6.687   2.710  17.190 -0.5667 -1.2520 -1.8373
13990TIP3   OH263460   6.169   5.551  11.254 -0.2934 -0.3968  0.4695
13990TIP3    H163461   6.174   5.468  11.207 -2.5620 -1.3353  1.7885
13990TIP3    H263462   6.199   5.530  11.343 -0.4065  0.3225  0.6819
13991TIP3   OH263463   2.606   5.943   2.287  0.0485 -0.0741  0.1078
13991TIP3    H163464   2.693   5.938   2.326 -0.1835 -0.0284  0.6328
13991TIP3    H263465   2.579   5.851   2.279  0.8535 -0.1732 -1.6642
13992TIP3   OH263466   0.614   1.299   6.495  0.3577 -0.1000 -0.1633
13992TIP3    H163467   0.527   1.338   6.492 -0.2947 -1.5704 -0.8803
13992TIP3    H263468   0.626   1.263   6.407  1.5319 -0.2556  0.0598
13993TIP3   OH263469   6.015   6.765   1.476 -0.0957 -0.0461  0.7807
13993TIP3    H163470   6.096   6.816   1.485 -0.5092  0.3177  2.6041
13993TIP3    H263471   6.019   6.700   1.546 -0.2908 -1.5630 -0.5899
13994TIP3   OH263472   0.480   2.561   4.672  0.1598  0.5654  0.5164
13994TIP3    H163473   0.411   2.624   4.652  0.4487  0.7555  0.1256
13994TIP3    H263474   0.519   2.540   4.588 -0.7814 -1.1204  0.4722
13995TIP3   OH263475   1.241   1.826  14.127 -0.8188  0.5610  0.3983
13995TIP3    H163476   1.234   1.764  14.055  0.3135  0.9770 -0.0866
13995TIP3    H263477   1.202   1.781  14.202 -0.0193 -0.7478  0.0455
13996TIP3   OH263478   4.555   6.423  17.117  0.5841 -0.2827  0.4477
13996TIP3    H163479   4.492   6.421  17.188 -1.8813  2.0165 -1.5771
13996TIP3    H263480   4.556   6.334  17.082 -0.3282 -0.7199  1.5251
13997TIP3   OH263481   2.417   3.602   1.360  0.8407  0.2291 -0.1746
13997TIP3    H163482   2.488   3.540   1.345  0.2492 -0.4577 -0.1156
13997TIP3    H263483   2.363   3.597   1.282  1.8890  2.1569 -1.0652
13998TIP3   OH263484   5.455   2.711  16.351  0.1470 -0.1101  0.3392
13998TIP3    H163485   5.388   2.647  16.377  1.1785 -0.5065  2.1445
13998TIP3    H263486   5.537   2.661  16.350  1.1387  1.3708  2.8605
13999TIP3   OH263487   2.808   6.678   1.096 -0.0127 -0.3217 -0.0613
13999TIP3    H163488   2.724   6.689   1.141 -0.0727  1.2589 -0.5224
13999TIP3    H263489   2.853   6.762   1.109  2.2467 -1.7348  1.7044
14000TIP3   OH263490   0.396   3.857   3.554 -0.5338  0.3087 -0.4039
14000TIP3    H163491   0.350   3.926   3.601  0.6124 -0.8316  2.5059
14000TIP3    H263492   0.449   3.904   3.489 -1.5221  1.9989 -0.0196
14001TIP3   OH263493   5.733   4.437   0.986  0.7778 -0.0870  0.0414
14001TIP3    H163494   5.781   4.431   0.904  0.2394 -0.9045 -0.2233
14001TIP3    H263495   5.650   4.477   0.963  0.0707 -1.5753 -0.0724
14002TIP3   OH263496   4.023   0.256  17.217  0.8384 -0.1373 -0.1181
14002TIP3    H163497   4.001   0.302  17.298 -0.2987 -1.6409  0.4738
14002TIP3    H263498   4.075   0.181  17.246  0.8651 -0.3938 -0.8225
14003TIP3   OH263499   3.784   5.376   0.412  0.5283 -0.1869 -0.0192
14003TIP3    H163500   3.745   5.427   0.340 -1.0809  1.8095  2.1923
14003TIP3    H263501   3.710   5.329   0.451  1.3185 -0.9384  0.5940
14004TIP3   OH263502   1.286   4.802   6.180  0.4426  0.8531  0.7742
14004TIP3    H163503   1.363   4.747   6.195 -0.8526 -1.6035 -1.1159
14004TIP3    H263504   1.302   4.841   6.094 -0.2752  0.6110  0.5337
14005TIP3   OH263505   3.228   5.383  16.246  0.4439  0.3662 -0.0231
14005TIP3    H163506   3.232   5.293  16.278 -1.3077  0.8296  1.6094
14005TIP3    H263507   3.290   5.431  16.301  1.1913  0.2174 -0.7262
14006TIP3   OH263508   0.641   0.753   6.633 -0.3956  0.0972 -0.1199
14006TIP3    H163509   0.637   0.666   6.595  0.8622  0.1372 -0.3606
14006TIP3    H263510   0.551   0.771   6.663 -0.3164 -1.9309  1.4200
14007TIP3   OH263511   2.386   5.878   5.873  0.1614 -0.2191  0.4118
14007TIP3    H163512   2.298   5.841   5.879  0.4894 -0.9584  0.6984
14007TIP3    H263513   2.406   5.909   5.962 -1.0596  2.8796 -0.3251
14008TIP3   OH263514   0.101   0.243   6.018  0.1720  0.1765 -0.1476
14008TIP3    H163515   0.183   0.197   6.005 -0.0235 -0.0482 -0.6119
14008TIP3    H263516   0.042   0.206   5.952  0.5893  2.4952 -1.8816
14009TIP3   OH263517   5.869   3.119   4.367 -0.2012 -0.4718  0.3883
14009TIP3    H163518   5.835   3.208   4.375  0.6695  0.1429 -2.1782
14009TIP3    H263519   5.962   3.129   4.349 -0.6507 -1.6741 -3.2375
14010TIP3   OH263520   3.028   6.470   5.795  0.5629  0.2872  0.0272
14010TIP3    H163521   2.973   6.402   5.757  0.0900  0.8499 -0.3037
14010TIP3    H263522   3.105   6.472   5.739  0.3441  0.3796 -0.2740
14011TIP3   OH263523   6.433   1.936  12.644 -0.4288  0.1753  0.1213
14011TIP3    H163524   6.393   1.849  12.645  2.0131 -1.0332 -1.1896
14011TIP3    H263525   6.381   1.985  12.580 -1.0085 -0.7475 -0.1247
14012TIP3   OH263526   2.467   6.585   2.099  0.1825 -0.4419  0.8403
14012TIP3    H163527   2.559   6.607   2.118  0.8237 -1.5972 -0.8549
14012TIP3    H263528   2.427   6.578   2.186  1.3898  1.2551  1.5911
14013TIP3   OH263529   3.847   4.022  14.336 -0.3440  0.4825 -0.3126
14013TIP3    H163530   3.938   4.032  14.308 -0.4222  1.4798 -0.2436
14013TIP3    H263531   3.852   3.971  14.417 -0.0511 -1.6083 -1.6064
14014TIP3   OH263532   2.023   2.990   3.907  0.1334  0.0007  0.1455
14014TIP3    H163533   2.020   2.919   3.971  0.3919  0.8293  1.0795
14014TIP3    H263534   2.115   2.997   3.884  0.0558 -0.2227 -0.2385
14015TIP3   OH263535   2.372   4.533  12.104  0.3914 -0.0835  0.3647
14015TIP3    H163536   2.316   4.502  12.033 -0.7222  0.3426  1.0517
14015TIP3    H263537   2.461   4.518  12.072 -0.1052 -0.7241 -0.7515
14016TIP3   OH263538   4.831   5.782  17.159  0.0377  0.2858 -0.2029
14016TIP3    H163539   4.758   5.843  17.174  0.2073 -0.1120  2.3638
14016TIP3    H263540   4.818   5.751  17.070 -2.0747  1.3818 -0.3004
14017TIP3   OH263541   1.225   6.126   5.341  0.0410 -0.3164  0.3820
14017TIP3    H163542   1.134   6.104   5.322  0.4148 -0.3378 -1.4621
14017TIP3    H263543   1.222   6.215   5.375 -0.6650 -0.3274  0.3469
14018TIP3   OH263544   5.946   6.076   4.883 -0.5734 -0.4795 -0.3844
14018TIP3    H163545   5.969   6.159   4.842 -0.9705 -0.0805  0.1984
14018TIP3    H263546   5.863   6.093   4.928  0.8433 -0.3665  2.2193
14019TIP3   OH263547   3.701   1.437   2.636  0.2075 -0.0601  0.3338
14019TIP3    H163548   3.614   1.418   2.670 -0.4728  1.4207 -0.4957
14019TIP3    H263549   3.686   1.469   2.547  1.8178 -2.2301 -0.7687
14020TIP3   OH263550   5.022   3.121  11.754 -0.0866 -0.1829 -0.2645
14020TIP3    H163551   4.970   3.058  11.703  1.2756  1.1276 -3.3975
14020TIP3    H263552   4.999   3.206  11.717  1.2393  0.7937  1.0990
14021TIP3   OH263553   5.018   2.812   1.297  0.7455 -0.4442  0.4555
14021TIP3    H163554   5.065   2.750   1.241 -0.4877  0.2644 -1.4386
14021TIP3    H263555   5.028   2.897   1.252 -0.6501  0.0601  1.0631
14022TIP3   OH263556   0.855   4.868  11.197  0.1306 -0.1315 -0.2057
14022TIP3    H163557   0.945   4.851  11.169  0.1135 -1.1564  0.3400
14022TIP3    H263558   0.835   4.797  11.258 -1.5219 -0.7086 -1.3773
14023TIP3   OH263559   4.406   5.408   5.755  0.4257 -0.1178  0.4165
14023TIP3    H163560   4.360   5.355   5.820  0.0617 -1.4357 -0.8933
14023TIP3    H263561   4.347   5.411   5.680  2.0270 -1.0207 -0.9308
14024TIP3   OH263562   4.422   0.452  15.192  0.5470  0.6863  0.1647
14024TIP3    H163563   4.434   0.542  15.162  0.3760  0.3126 -1.0123
14024TIP3    H263564   4.423   0.459  15.288  0.1388  1.9903  0.0829
14025TIP3   OH263565   3.483   1.780   3.237  0.2001 -0.7725  0.6819
14025TIP3    H163566   3.428   1.855   3.217 -0.7422 -1.3154  1.2295
14025TIP3    H263567   3.473   1.721   3.162 -0.8881 -1.3973  1.3074
14026TIP3   OH263568   3.034   5.812   2.545 -0.0375  0.2116  0.8604
14026TIP3    H163569   3.040   5.772   2.632 -0.6244 -0.9497  0.3760
14026TIP3    H263570   3.121   5.849   2.529  0.9307 -2.0440  0.7769
14027TIP3   OH263571   4.122   0.161  12.662 -0.1008 -0.1232  0.2655
14027TIP3    H163572   4.120   0.235  12.723  0.0383 -0.0847  0.2255
14027TIP3    H263573   4.082   0.089  12.710  0.5682 -0.2577  0.6256
14028TIP3   OH263574   2.170   3.733  13.300  0.2323 -0.4427  0.3547
14028TIP3    H163575   2.167   3.816  13.251 -0.6928 -1.2087 -0.9319
14028TIP3    H263576   2.080   3.700  13.295  0.9569 -2.3612 -0.6437
14029TIP3   OH263577   5.062   3.002   2.634 -0.1146  0.7829 -0.4249
14029TIP3    H163578   4.973   2.975   2.612 -0.5563  1.1315  0.8955
14029TIP3    H263579   5.088   3.060   2.563 -0.7076  0.1886 -1.1320
14030TIP3   OH263580   2.358   3.825  13.971  0.1780 -0.1047  0.3606
14030TIP3    H163581   2.429   3.839  14.034  0.5265 -1.0581  0.1912
14030TIP3    H263582   2.397   3.769  13.904 -0.3138  0.5630 -0.4908
14031TIP3   OH263583   0.662   4.283   4.548 -0.1216 -0.1176 -0.0509
14031TIP3    H163584   0.715   4.204   4.537 -0.6257 -0.1666 -2.3181
14031TIP3    H263585   0.648   4.289   4.642  2.8788 -0.7626  0.4858
14032TIP3   OH263586   4.542   3.037   5.122 -0.4811 -0.6461 -0.1113
14032TIP3    H163587   4.552   2.976   5.048 -0.3507 -0.5356 -0.1846
14032TIP3    H263588   4.607   3.105   5.106 -0.4414 -0.6302  0.1164
14033TIP3   OH263589   5.712   4.361   1.487 -0.1552 -0.5052 -0.0574
14033TIP3    H163590   5.663   4.309   1.551 -0.6336 -1.0169 -0.8377
14033TIP3    H263591   5.664   4.350   1.405 -0.5537  1.5768 -0.1329
14034TIP3   OH263592   5.165   6.130  14.807  0.3366 -0.1403  0.1526
14034TIP3    H163593   5.211   6.130  14.723  1.2450  1.8942  0.6384
14034TIP3    H263594   5.102   6.202  14.800  0.1663 -0.1902  1.1004
14035TIP3   OH263595   0.391   3.813  16.789 -0.6430 -0.1713 -0.7732
14035TIP3    H163596   0.404   3.752  16.861  2.6664  0.2763 -0.9388
14035TIP3    H263597   0.318   3.776  16.739 -1.2984 -1.8273  1.3632
14036TIP3   OH263598   6.288   2.138  14.436 -0.7006  0.1572  0.4724
14036TIP3    H163599   6.350   2.108  14.503 -0.4305 -1.6902 -0.5848
14036TIP3    H263600   6.208   2.156  14.485 -0.3080 -0.5347  1.3948
14037TIP3   OH263601   5.343   1.132  13.637  0.2522  0.3172 -0.1847
14037TIP3    H163602   5.418   1.174  13.594 -0.3218  0.5220 -1.0067
14037TIP3    H263603   5.355   1.039  13.620  0.6471  0.2954  0.2116
14038TIP3   OH263604   2.090   3.790   4.833  0.0142  0.8200  0.7358
14038TIP3    H163605   1.997   3.795   4.857 -0.0085 -0.8754  1.0714
14038TIP3    H263606   2.133   3.853   4.891 -0.6999  0.2415  1.9288
14039TIP3   OH263607   5.262   1.800  13.332  0.5392  1.2649  0.0864
14039TIP3    H163608   5.319   1.877  13.335 -1.0137  2.5441 -1.9899
14039TIP3    H263609   5.182   1.828  13.375 -0.0278  0.7947 -0.6484
14040TIP3   OH263610   1.161   6.700  16.339  0.0794  0.2584  0.0314
14040TIP3    H163611   1.068   6.717  16.352 -0.0921  0.6703 -1.5986
14040TIP3    H263612   1.202   6.787  16.340  0.5704  0.0294  1.5232
14041TIP3   OH263613   2.035   0.074  16.509 -0.4752  0.0164  0.2788
14041TIP3    H163614   1.975   0.077  16.584 -0.7067 -0.6995  0.1312
14041TIP3    H263615   2.047   0.165  16.484 -0.5991  0.2475  1.0295
14042TIP3   OH263616   3.185   1.001  16.316 -0.0194  0.4897 -0.1969
14042TIP3    H163617   3.280   0.994  16.326  0.2202  1.1158 -1.9855
14042TIP3    H263618   3.167   0.971  16.227 -1.6242 -0.5921  0.4474
14043TIP3   OH263619   3.920   0.479  13.790 -0.1205 -0.2931 -0.8582
14043TIP3    H163620   3.830   0.446  13.798 -0.5273  0.5939 -1.6398
14043TIP3    H263621   3.966   0.411  13.741 -0.1429 -1.1394  0.2795
14044TIP3   OH263622   6.063   5.384  10.772  0.4463  0.7591  0.3815
14044TIP3    H163623   6.084   5.410  10.682 -0.8825  1.4409  0.2588
14044TIP3    H263624   5.970   5.404  10.782 -0.3171 -2.6715  0.7422
14045TIP3   OH263625   6.310   4.229   3.531 -0.2181  0.0598 -0.0683
14045TIP3    H163626   6.334   4.166   3.599  0.5127 -1.0312 -1.3155
14045TIP3    H263627   6.258   4.179   3.469  1.1997  0.4382 -1.5866
14046TIP3   OH263628   1.567   0.162   5.260  0.0770 -0.7192  0.1954
14046TIP3    H163629   1.549   0.247   5.301  0.3924  0.0393 -1.1998
14046TIP3    H263630   1.482   0.132   5.228 -0.1050 -1.1304  1.0604
14047TIP3   OH263631   1.643   0.182  17.077 -0.1151 -0.4033 -0.2088
14047TIP3    H163632   1.737   0.166  17.084 -0.1568  0.2305  2.2975
14047TIP3    H263633   1.606   0.097  17.052  0.6027 -2.1190  4.0791
14048TIP3   OH263634   6.051   6.270  14.842  0.0519  0.3800  0.0217
14048TIP3    H163635   6.079   6.203  14.904 -0.8897  1.0667  1.1799
14048TIP3    H263636   5.966   6.300  14.873  0.1941  1.7188 -0.7988
14049TIP3   OH263637   1.346   4.060  12.666 -0.2568 -0.1402 -0.6038
14049TIP3    H163638   1.405   4.122  12.710 -0.2537 -0.2845 -0.4025
14049TIP3    H263639   1.269   4.113  12.643 -0.5818 -0.2262  0.2558
14050TIP3   OH263640   6.022   2.679   3.461 -0.1606  0.2888  0.2547
14050TIP3    H163641   6.018   2.735   3.383  0.0358  0.1527  0.1446
14050TIP3    H263642   5.955   2.714   3.519  0.9122  1.4982  0.7701
14051TIP3   OH263643   3.165   0.316  15.456 -0.3329  0.3097 -0.1721
14051TIP3    H163644   3.121   0.318  15.541 -1.2719  0.9880 -0.6558
14051TIP3    H263645   3.098   0.347  15.394 -0.7627 -3.3406 -1.6576
14052TIP3   OH263646   2.930   0.572  14.378  0.6885 -0.3476  0.2754
14052TIP3    H163647   2.953   0.481  14.357  1.3154 -0.4445  1.3457
14052TIP3    H263648   3.012   0.621  14.367 -0.0463  0.4318 -2.0787
14053TIP3   OH263649   1.059   4.574   5.155 -0.6584 -0.5519 -0.1132
14053TIP3    H163650   1.072   4.493   5.205  0.1258  0.1238  0.8105
14053TIP3    H263651   1.144   4.591   5.115 -0.6443  0.1597  0.2212
14054TIP3   OH263652   5.360   5.880  14.755  0.2264 -0.1551 -0.3639
14054TIP3    H163653   5.271   5.871  14.722  0.6139  0.2263 -1.5725
14054TIP3    H263654   5.351   5.918  14.842 -0.8700 -1.8136  0.2640
14055TIP3   OH263655   3.891   6.272  15.957  0.3238  0.7062  0.3992
14055TIP3    H163656   3.982   6.290  15.934  0.6182 -0.4883  0.5752
14055TIP3    H263657   3.876   6.323  16.037  0.8485  0.8964  0.3753
14056TIP3   OH263658   4.016   4.920   5.666 -0.1775 -0.4816  0.0532
14056TIP3    H163659   4.058   4.874   5.593  0.7685  0.9289 -0.3055
14056TIP3    H263660   3.937   4.869   5.684 -0.8300 -0.4263 -2.4690
14057TIP3   OH263661   3.901   0.671   4.802  0.3184  0.6292 -0.0294
14057TIP3    H163662   3.982   0.686   4.753  0.8249  0.7066  0.8292
14057TIP3    H263663   3.918   0.593   4.854 -0.6572 -0.1820 -0.8969
14058TIP3   OH263664   0.497   0.149  16.381  0.7600  0.2530  0.1316
14058TIP3    H163665   0.538   0.064  16.369 -1.9380 -0.8861 -1.5696
14058TIP3    H263666   0.457   0.144  16.468 -1.3334 -1.1503 -0.8554
14059TIP3   OH263667   0.442   6.436   0.963 -0.2052  0.7085  0.3103
14059TIP3    H163668   0.532   6.404   0.972  0.0552  1.7608  1.7756
14059TIP3    H263669   0.440   6.479   0.878  0.0910 -1.0845 -0.6259
14060TIP3   OH263670   2.180   0.120   4.625  1.2133  0.2088 -0.0250
14060TIP3    H163671   2.259   0.174   4.616 -1.2050  3.6382 -2.4255
14060TIP3    H263672   2.174   0.073   4.542  1.1951 -0.7034  0.4918
14061TIP3   OH263673   6.682   6.502  16.147 -0.2277  0.1297  0.1486
14061TIP3    H163674   6.622   6.504  16.072  0.1419  1.4634 -0.1151
14061TIP3    H263675   6.764   6.468  16.111 -0.7005 -1.3553  0.4342
14062TIP3   OH263676   5.719   2.169  15.099 -0.4522  0.2868  0.0327
14062TIP3    H163677   5.701   2.261  15.116 -0.0111  0.0898  1.6621
14062TIP3    H263678   5.735   2.164  15.005  0.3370  2.0069  0.0702
14063TIP3   OH263679   0.276   4.082  14.016  0.3791 -0.4522  0.0656
14063TIP3    H163680   0.241   4.165  13.984 -0.2609 -0.3513  1.0174
14063TIP3    H263681   0.322   4.105  14.097  1.4859 -0.7994 -0.4519
14064TIP3   OH263682   4.061   3.017  15.413  0.3223  0.0396  0.3010
14064TIP3    H163683   4.004   3.072  15.467  0.4018  0.8224 -0.4136
14064TIP3    H263684   4.010   2.937  15.399 -0.8732  0.9889 -0.8729
14065TIP3   OH263685   4.324   3.597  12.155 -0.0350 -0.8973 -0.1202
14065TIP3    H163686   4.392   3.580  12.220 -0.2843 -0.8484  0.1583
14065TIP3    H263687   4.343   3.685  12.123  0.0198 -0.8747 -0.0261
14066TIP3   OH263688   0.856   0.970   5.818 -0.1196  0.0261  0.1495
14066TIP3    H163689   0.886   0.997   5.731  1.0133  0.6865  0.7316
14066TIP3    H263690   0.804   1.044   5.850 -0.8385 -0.3663 -0.1163
14067TIP3   OH263691   4.452   2.082   6.094  0.0794 -0.7035 -0.3284
14067TIP3    H163692   4.409   2.144   6.036  1.2635 -0.7582 -1.2801
14067TIP3    H263693   4.483   2.012   6.036  2.1305 -0.2844  0.2052
14068TIP3   OH263694   6.050   2.453  13.718  0.2393 -0.2149 -0.3492
14068TIP3    H163695   6.091   2.366  13.725  1.7901  0.4231 -1.1100
14068TIP3    H263696   6.116   2.513  13.754  0.0043  0.8488 -1.6608
14069TIP3   OH263697   2.903   4.037  16.505 -0.3434  0.7397 -0.4951
14069TIP3    H163698   2.947   4.108  16.552 -0.5710  0.6148 -0.0883
14069TIP3    H263699   2.813   4.038  16.539 -0.7172  1.1441 -1.4895
14070TIP3   OH263700   6.295   1.054  14.085 -0.7418  0.3809 -0.0875
14070TIP3    H163701   6.219   1.096  14.045  0.0105  0.1993 -1.7818
14070TIP3    H263702   6.263   0.971  14.118 -1.4827  0.7223  0.0458
14071TIP3   OH263703   0.466   0.693   1.835 -0.4400  0.0234 -0.0236
14071TIP3    H163704   0.451   0.769   1.779 -2.0993 -0.1646  0.1519
14071TIP3    H263705   0.385   0.682   1.883 -0.0202 -1.5372  0.3550
14072TIP3   OH263706   5.971   5.132   3.159  0.1879  0.5720 -0.0656
14072TIP3    H163707   5.997   5.185   3.235  1.8308 -2.3660  1.5311
14072TIP3    H263708   5.883   5.163   3.137  0.9814  3.7620  0.8958
14073TIP3   OH263709   0.689   6.400  16.762  0.0458 -0.3122  0.2442
14073TIP3    H163710   0.649   6.392  16.676  1.9589 -0.1126 -0.6915
14073TIP3    H263711   0.643   6.473  16.804 -0.8545 -0.3798 -0.6220
14074TIP3   OH263712   6.603   5.425  11.270 -0.6822 -0.3753 -0.1459
14074TIP3    H163713   6.538   5.496  11.274  1.6142  1.7142  0.7207
14074TIP3    H263714   6.629   5.423  11.178  0.3169  0.9275  0.0891
14075TIP3   OH263715   2.388   5.351   4.357 -0.3821 -0.1615  0.4998
14075TIP3    H163716   2.469   5.336   4.309 -1.3028  0.2016 -1.2186
14075TIP3    H263717   2.400   5.304   4.440  1.0146 -1.2732 -0.3137
14076TIP3   OH263718   5.322   6.624  11.491  0.4478  0.2025  0.1216
14076TIP3    H163719   5.335   6.672  11.409 -0.5542  0.2589 -0.0008
14076TIP3    H263720   5.286   6.540  11.464  1.6003 -0.3968  0.3902
14077TIP3   OH263721   2.111   2.995  12.741  0.6538 -0.3591  0.3652
14077TIP3    H163722   2.145   2.928  12.801  0.1948 -0.7719  0.1668
14077TIP3    H263723   2.157   2.979  12.659 -1.4626 -2.2086 -0.5062
14078TIP3   OH263724   2.688   4.861  16.560  0.1855  0.6905 -0.3945
14078TIP3    H163725   2.599   4.874  16.593  0.0713  0.2487 -0.5278
14078TIP3    H263726   2.743   4.910  16.622 -0.1034  0.5596 -0.0302
14079TIP3   OH263727   2.023   6.750  14.487 -0.0909  0.5054 -0.4013
14079TIP3    H163728   1.990   6.787  14.569  0.5454  2.0390 -0.8282
14079TIP3    H263729   1.956   6.685  14.462 -1.4431  1.6609  0.1372
14080TIP3   OH263730   1.976   5.114  11.398  0.3853  0.4282  0.0562
14080TIP3    H163731   1.919   5.191  11.403 -2.0355 -1.2992  0.0905
14080TIP3    H263732   1.955   5.073  11.314  1.5683 -0.2477  0.0729
14081TIP3   OH263733   3.495   6.785   0.324  0.4310  0.2029  0.2163
14081TIP3    H163734   3.511   6.694   0.298  0.8139  0.2446  0.3159
14081TIP3    H263735   3.578   6.815   0.360  0.3454  0.6409  0.0436
14082TIP3   OH263736   4.105   5.426  15.852  0.4869 -0.0279 -0.3977
14082TIP3    H163737   4.168   5.367  15.894 -1.3466 -0.1897  2.2927
14082TIP3    H263738   4.114   5.508  15.900  0.7753  0.8791 -2.0065
14083TIP3   OH263739   0.844   2.770   2.259  0.5465  0.8537  0.0504
14083TIP3    H163740   0.925   2.731   2.229  0.2806  1.2231 -1.1736
14083TIP3    H263741   0.859   2.865   2.252  0.7856  0.9831  1.9153
14084TIP3   OH263742   4.381   6.692   2.193  0.2508  0.5409  0.0530
14084TIP3    H163743   4.452   6.650   2.144 -0.9644  0.1819 -1.4411
14084TIP3    H263744   4.305   6.636   2.178  0.2655 -0.7014  4.0228
14085TIP3   OH263745   4.247   1.767   2.927 -0.2709 -0.2696 -0.3327
14085TIP3    H163746   4.254   1.695   2.864  0.0620 -0.3480 -0.2064
14085TIP3    H263747   4.163   1.753   2.970 -0.7555  0.0906 -1.1375
14086TIP3   OH263748   5.854   6.761   0.491 -0.1627  0.0676  0.0415
14086TIP3    H163749   5.774   6.743   0.441 -0.2707  0.5790  0.0353
14086TIP3    H263750   5.834   6.730   0.579 -0.3000  0.0247 -0.0043
14087TIP3   OH263751   0.086   2.264  11.337  0.4879 -0.6314  0.0621
14087TIP3    H163752   0.037   2.209  11.276  0.0777  1.5931 -1.6537
14087TIP3    H263753   0.031   2.342  11.347  1.1779 -0.3956  2.2772
14088TIP3   OH263754   6.619   2.947   3.747  0.6837  0.2130  0.3303
14088TIP3    H163755   6.590   3.038   3.748  3.0130  0.9708  0.5663
14088TIP3    H263756   6.538   2.896   3.738 -0.6195  2.2948  0.0706
14089TIP3   OH263757   2.948   3.082   1.429  0.7218  0.1839  0.1834
14089TIP3    H163758   2.930   3.144   1.500 -1.0479  0.4231 -0.4642
14089TIP3    H263759   2.900   3.003   1.453  0.4920  0.1062 -0.5280
14090TIP3   OH263760   0.887   0.162   6.485  0.3363 -0.0229 -0.3035
14090TIP3    H163761   0.860   0.130   6.399  0.5499  0.9232 -0.7265
14090TIP3    H263762   0.810   0.152   6.540  0.3287 -1.0355 -0.4942
14091TIP3   OH263763   3.816   4.641  13.720 -0.1588 -0.0568  0.3633
14091TIP3    H163764   3.907   4.667  13.711 -0.7743  3.3697  2.9632
14091TIP3    H263765   3.766   4.708  13.674 -1.5309  0.4303  2.4785
14092TIP3   OH263766   3.362   3.220   3.360  0.3233  0.1592 -0.4067
14092TIP3    H163767   3.348   3.195   3.452 -2.0862  1.7162 -0.3181
14092TIP3    H263768   3.457   3.213   3.348  0.7626  0.5825  2.4188
14093TIP3   OH263769   4.329   1.819   4.047 -0.6670 -0.0154 -0.5515
14093TIP3    H163770   4.380   1.738   4.044  0.1544  0.4525  0.8333
14093TIP3    H263771   4.375   1.879   3.988  0.0661  0.2185  0.2532
14094TIP3   OH263772   4.790   2.298   0.218  0.1023 -0.1538  0.0247
14094TIP3    H163773   4.701   2.300   0.253 -0.4114 -0.4196 -1.2467
14094TIP3    H263774   4.796   2.214   0.172  1.5526 -0.8905  1.5044
14095TIP3   OH263775   1.005   5.006  10.719  0.1890 -0.0775 -0.1412
14095TIP3    H163776   0.910   5.005  10.732  0.3937 -0.1532  1.4741
14095TIP3    H263777   1.028   4.914  10.710  0.1563 -0.0859 -0.1378
14096TIP3   OH263778   1.353   3.798  12.790  0.4269  0.2645  0.1971
14096TIP3    H163779   1.334   3.735  12.720  0.3432  1.8840 -1.2783
14096TIP3    H263780   1.299   3.874  12.770 -0.8126  0.1665  2.9552
14097TIP3   OH263781   5.391   3.109   5.129  0.5117  0.7066 -0.1275
14097TIP3    H163782   5.437   3.190   5.151  0.0897  0.4007  2.0555
14097TIP3    H263783   5.342   3.087   5.209  0.9596 -1.9166 -0.5118
14098TIP3   OH263784   1.975   4.294   1.235  0.1046 -0.2150 -0.3665
14098TIP3    H163785   1.910   4.290   1.165 -1.2789 -0.0629  0.8953
14098TIP3    H263786   1.953   4.221   1.293  1.5778 -0.6743 -0.3555
14099TIP3   OH263787   6.443   3.077  16.700  0.3396 -0.5097 -0.0896
14099TIP3    H163788   6.434   3.007  16.764 -2.2063  0.2744  0.4890
14099TIP3    H263789   6.366   3.068  16.644  1.0808  0.5449 -1.3097
14100TIP3   OH263790   3.905   4.311  15.802  0.8054 -0.2904  0.2318
14100TIP3    H163791   3.987   4.262  15.794  1.1465  0.1357  1.0259
14100TIP3    H263792   3.930   4.392  15.845  0.3119  0.7622 -1.4250
14101TIP3   OH263793   0.096   1.340  11.377 -0.3140  0.0635 -0.5486
14101TIP3    H163794   0.081   1.345  11.283 -0.2541  1.0479 -0.5131
14101TIP3    H263795   0.182   1.299  11.386  0.3012  1.2331 -0.9689
14102TIP3   OH263796   2.245   0.026   5.685 -0.4167 -0.0043  0.2101
14102TIP3    H163797   2.326   0.048   5.732 -0.6856  1.6072 -0.0564
14102TIP3    H263798   2.238   0.092   5.616 -1.6563 -0.4825 -0.1400
14103TIP3   OH263799   3.584   5.736   1.261 -0.4204 -0.5068  0.8321
14103TIP3    H163800   3.584   5.641   1.254 -0.6996 -0.3858 -1.0235
14103TIP3    H263801   3.673   5.763   1.240  0.2161 -0.4588  3.3991
14104TIP3   OH263802   5.835   0.595   5.024 -0.6579  0.4647  0.4841
14104TIP3    H163803   5.880   0.571   4.943 -0.1249  0.8249  0.6745
14104TIP3    H263804   5.875   0.541   5.091  1.0865  2.4018  1.0518
14105TIP3   OH263805   3.705   5.606  14.862 -0.1663 -0.0337  0.2366
14105TIP3    H163806   3.610   5.613  14.847 -0.5053  1.4999  2.7711
14105TIP3    H263807   3.741   5.684  14.819 -0.4254  0.9501  1.7409
14106TIP3   OH263808   2.174   2.068  14.626  0.1104 -0.3214 -0.7376
14106TIP3    H163809   2.129   2.015  14.560 -0.8167  0.6213 -0.8656
14106TIP3    H263810   2.163   2.019  14.707 -2.7922  0.8291 -0.4003
14107TIP3   OH263811   4.551   0.769  10.563 -0.1153 -0.4849  0.5075
14107TIP3    H163812   4.456   0.772  10.554  0.0302  2.5430 -0.5335
14107TIP3    H263813   4.566   0.772  10.658 -1.0443 -2.2008  0.7375
14108TIP3   OH263814   2.348   6.404   5.735  0.1042  0.3888 -0.3922
14108TIP3    H163815   2.334   6.320   5.779 -1.1383 -0.2767 -2.0543
14108TIP3    H263816   2.369   6.464   5.807 -0.5757 -0.9754  0.9864
14109TIP3   OH263817   0.127   5.061   2.619  0.2436  0.3640 -0.1989
14109TIP3    H163818   0.194   5.117   2.658  1.6203  0.0032 -1.9801
14109TIP3    H263819   0.157   5.047   2.529 -2.5596  0.7009 -1.2220
14110TIP3   OH263820   5.042   0.216  12.401  0.5258  0.4846 -0.2185
14110TIP3    H163821   4.947   0.211  12.398  0.5741  0.1847 -2.2797
14110TIP3    H263822   5.070   0.129  12.431  0.1657  0.5254  0.2363
14111TIP3   OH263823   2.436   2.408  15.146  0.1434 -0.8291  0.1083
14111TIP3    H163824   2.489   2.419  15.067  0.7802 -0.8675  0.5262
14111TIP3    H263825   2.406   2.496  15.167 -1.3865 -1.0280 -1.0940
14112TIP3   OH263826   2.296   4.027   6.658  0.8402 -0.0468  0.3229
14112TIP3    H163827   2.366   4.089   6.677  1.4524 -0.4815 -0.4956
14112TIP3    H263828   2.314   3.953   6.716 -0.1162  0.6848  1.5873
14113TIP3   OH263829   2.983   6.104  16.028 -0.1267  0.4437 -0.1382
14113TIP3    H163830   2.979   6.016  15.991  0.2448  0.1206  0.5585
14113TIP3    H263831   2.921   6.155  15.978 -0.4311 -0.2516 -0.4703
14114TIP3   OH263832   0.126   3.936   2.631 -0.1966 -0.5870 -0.0201
14114TIP3    H163833   0.222   3.932   2.630 -0.0614  1.1087  1.9635
14114TIP3    H263834   0.100   3.869   2.695 -0.3084 -0.6800 -0.1626
14115TIP3   OH263835   2.810   4.845  10.766  0.1527  0.9941 -0.0170
14115TIP3    H163836   2.898   4.808  10.753 -0.3174 -0.6912  1.4224
14115TIP3    H263837   2.763   4.822  10.687 -0.0050 -1.1801  0.6842
14116TIP3   OH263838   3.573   5.185   5.355  0.2167 -0.2270 -0.2319
14116TIP3    H163839   3.581   5.171   5.450 -1.0347  1.0213  0.0701
14116TIP3    H263840   3.511   5.117   5.326 -1.8782  1.3755  0.3874
14117TIP3   OH263841   0.432   0.158   2.124  0.0259 -0.2724  0.2574
14117TIP3    H163842   0.464   0.068   2.131 -1.6766 -1.0375 -1.3546
14117TIP3    H263843   0.498   0.211   2.169  3.0072 -1.9014 -1.9934
14118TIP3   OH263844   2.517   0.718  16.018 -0.2115 -0.5442  0.1335
14118TIP3    H163845   2.563   0.801  16.007  1.0310 -1.4790 -2.3815
14118TIP3    H263846   2.565   0.672  16.087  1.1761 -0.5085 -0.7908
14119TIP3   OH263847   6.479   3.321  13.281  0.2382  0.2105 -0.8125
14119TIP3    H163848   6.468   3.325  13.376  0.2224  0.3760 -0.8225
14119TIP3    H263849   6.547   3.254  13.269  2.1646  2.0455 -0.5260
14120TIP3   OH263850   0.936   0.849   4.737 -0.2654 -0.1432  0.5445
14120TIP3    H163851   0.986   0.911   4.683  0.6973 -2.0177 -0.7692
14120TIP3    H263852   0.851   0.891   4.749 -0.1503  0.7770 -1.5867
14121TIP3   OH263853   6.150   2.262  15.314  0.0225  0.0679  0.0164
14121TIP3    H163854   6.147   2.285  15.221  1.9764  0.8416  0.1170
14121TIP3    H263855   6.104   2.333  15.358  0.3220  0.4292 -0.2501
14122TIP3   OH263856   3.375   6.186   2.541  0.3148 -0.1035  0.0488
14122TIP3    H163857   3.450   6.244   2.530  0.7832 -0.9727 -1.3686
14122TIP3    H263858   3.411   6.104   2.575  0.0079 -0.5068 -0.5841
14123TIP3   OH263859   2.106   0.551   1.450 -0.7735 -0.0390 -0.4908
14123TIP3    H163860   2.166   0.619   1.481  0.9962 -1.0107 -1.7050
14123TIP3    H263861   2.051   0.531   1.526 -0.8743  2.2397  0.0881
14124TIP3   OH263862   2.573   0.358   4.285  0.2477  0.1263 -0.0968
14124TIP3    H163863   2.624   0.277   4.283 -0.7658 -0.4929 -1.3593
14124TIP3    H263864   2.527   0.354   4.369 -0.2040 -0.8678 -0.3859
14125TIP3   OH263865   3.570   5.570   3.714  0.4936 -0.3583  0.3192
14125TIP3    H163866   3.515   5.492   3.718  1.5545 -1.0952  0.5654
14125TIP3    H263867   3.657   5.538   3.691  0.8142  0.8064 -0.1306
14126TIP3   OH263868   1.831   2.166  12.749  0.4665  0.2847 -0.2529
14126TIP3    H163869   1.765   2.232  12.726  0.6109  0.7927  0.7483
14126TIP3    H263870   1.829   2.104  12.677 -0.0098  1.1360 -0.9824
14127TIP3   OH263871   6.690   5.001   4.000  0.0869  0.5094 -0.5303
14127TIP3    H163872   6.670   5.058   4.075  1.2813 -0.6398  0.7076
14127TIP3    H263873   6.753   5.050   3.948  0.4895  0.6779  0.1053
14128TIP3   OH263874   5.515   2.961   3.987  0.4876 -0.6382 -0.4671
14128TIP3    H163875   5.554   3.000   4.065  4.3310 -2.0689 -1.5956
14128TIP3    H263876   5.475   3.035   3.942  0.5622  0.6346  1.4779
14129TIP3   OH263877   1.981   4.369   1.606  0.2951 -0.4171  0.2649
14129TIP3    H163878   1.887   4.382   1.597  0.3638  1.1882  1.6145
14129TIP3    H263879   1.992   4.322   1.688  0.6276 -1.2995 -0.2787
14130TIP3   OH263880   2.441   6.201  12.610  0.3354 -0.5488  0.8467
14130TIP3    H163881   2.438   6.174  12.701 -0.2408 -0.2728  0.9092
14130TIP3    H263882   2.496   6.280  12.611  0.1257 -0.4056  0.9880
14131TIP3   OH263883   2.737   1.889  16.614 -0.3592  0.3979 -0.1870
14131TIP3    H163884   2.681   1.813  16.599  0.6013 -0.4181  0.2947
14131TIP3    H263885   2.791   1.896  16.535 -0.0593  0.2306 -0.0015
14132TIP3   OH263886   1.650   0.730   5.255  0.5673 -0.1914 -0.1307
14132TIP3    H163887   1.608   0.815   5.270  1.6463  0.3390 -0.0898
14132TIP3    H263888   1.626   0.707   5.165  0.6233  0.3557 -0.2874
14133TIP3   OH263889   2.472   2.360   4.364  0.7676 -0.2049 -0.2507
14133TIP3    H163890   2.480   2.291   4.429  1.1528  0.5771  0.5473
14133TIP3    H263891   2.480   2.441   4.414 -2.7586  0.5194 -0.6993
14134TIP3   OH263892   5.621   1.462  14.161 -0.0876 -0.1359 -0.0588
14134TIP3    H163893   5.660   1.536  14.114  1.2187 -2.5493 -2.9977
14134TIP3    H263894   5.535   1.450  14.121  0.6877 -1.6790 -1.3153
14135TIP3   OH263895   0.766   3.287   5.555 -0.3641 -0.1915  0.1029
14135TIP3    H163896   0.814   3.338   5.620  1.0100 -0.0842 -0.9630
14135TIP3    H263897   0.828   3.220   5.526 -1.5591 -1.3756  0.1929
14136TIP3   OH263898   1.674   3.321  13.671 -0.3396  0.3609  0.6514
14136TIP3    H163899   1.605   3.265  13.707  0.1639  0.1177  1.2421
14136TIP3    H263900   1.739   3.328  13.741  0.3345  0.4234  0.0323
14137TIP3   OH263901   3.470   0.165   1.607 -0.1595 -0.4102 -0.2694
14137TIP3    H163902   3.565   0.157   1.604 -0.1608 -1.1245  1.1215
14137TIP3    H263903   3.442   0.090   1.661 -1.4456  0.1783 -0.1183
14138TIP3   OH263904   4.254   1.957  11.795  0.8073  0.2943 -0.4296
14138TIP3    H163905   4.274   1.945  11.888  0.8580 -0.3403 -0.5264
14138TIP3    H263906   4.181   2.018  11.795 -0.4867 -1.2333  0.1066
14139TIP3   OH263907   1.545   0.619   4.315  0.4567  0.4377  0.1682
14139TIP3    H163908   1.513   0.707   4.333  0.0720  0.4544 -0.5632
14139TIP3    H263909   1.559   0.580   4.401  1.4759  1.5119  0.4986
14140TIP3   OH263910   2.020   6.374  12.682 -0.1620  0.2208 -1.2089
14140TIP3    H163911   2.007   6.359  12.776 -0.4456 -0.6156 -1.3797
14140TIP3    H263912   1.935   6.407  12.651  0.1754  1.3034 -1.0217
14141TIP3   OH263913   3.960   0.518  12.477 -0.1208 -0.0947 -0.2189
14141TIP3    H163914   3.955   0.542  12.384  0.5089 -0.3983 -0.3379
14141TIP3    H263915   3.891   0.454  12.489 -2.1527  2.1101  0.2133
14142TIP3   OH263916   1.706   5.965   0.850  0.6495 -0.6805 -0.0342
14142TIP3    H163917   1.672   5.881   0.880  2.6466 -1.9342 -1.1113
14142TIP3    H263918   1.746   6.004   0.927 -0.4527 -0.6484  0.5141
14143TIP3   OH263919   5.076   6.386   2.075 -0.3434 -0.3425 -0.3146
14143TIP3    H163920   5.142   6.342   2.129 -1.4527 -2.6190 -0.7211
14143TIP3    H263921   5.120   6.464   2.042  1.1654 -0.2371  1.8194
14144TIP3   OH263922   4.151   5.098  10.906  0.3467 -0.3164 -0.5410
14144TIP3    H163923   4.239   5.060  10.899 -0.1450 -1.8873  1.5222
14144TIP3    H263924   4.118   5.097  10.816  2.3231  0.1059 -1.3172
14145TIP3   OH263925   3.646   2.222   1.986 -0.0349  0.7939 -0.4727
14145TIP3    H163926   3.637   2.305   1.940  1.0195  0.9286 -0.4605
14145TIP3    H263927   3.738   2.219   2.012 -0.1007 -0.2985 -0.3225
14146TIP3   OH263928   0.293   5.042   5.497  0.5740 -0.5173  0.0000
14146TIP3    H163929   0.366   5.103   5.506 -0.7359  1.0830 -0.0808
14146TIP3    H263930   0.247   5.046   5.580 -1.0164  0.5832 -0.8988
14147TIP3   OH263931   3.550   3.280   2.350  0.5337  0.1889  0.3065
14147TIP3    H163932   3.545   3.220   2.424  0.2740 -2.0917 -1.4957
14147TIP3    H263933   3.630   3.330   2.365 -0.7106  1.4026  3.2863
14148TIP3   OH263934   4.437   0.071  10.941  0.4055  0.5092  0.1931
14148TIP3    H163935   4.493   0.094  10.867  0.0525  1.3545  0.1844
14148TIP3    H263936   4.380   0.002  10.907 -0.2606  1.4141 -0.5492
14149TIP3   OH263937   4.856   3.977  15.140 -0.2085 -0.2072  0.1787
14149TIP3    H163938   4.796   3.964  15.066 -0.0563 -1.5090  0.2679
14149TIP3    H263939   4.863   3.890  15.180  1.3404  0.0472  0.4732
14150TIP3   OH263940   1.119   5.876  12.090  0.0521 -0.2043 -0.1536
14150TIP3    H163941   1.170   5.915  12.161 -0.5168  0.4414 -0.0898
14150TIP3    H263942   1.040   5.843  12.133 -0.4111  0.4173 -0.5112
14151TIP3   OH263943   5.989   4.654   5.967  0.0149  0.3943 -0.2336
14151TIP3    H163944   5.900   4.671   5.997  0.5737  1.5832  0.7900
14151TIP3    H263945   6.045   4.706   6.024  1.3424  0.0959 -1.2130
14152TIP3   OH263946   0.080   2.225   2.405 -1.0509 -0.7505  0.8992
14152TIP3    H163947   0.024   2.182   2.340  0.7478 -0.7521 -0.6878
14152TIP3    H263948   0.020   2.275   2.459 -2.7124 -1.7020 -0.0247
14153TIP3   OH263949   3.949   0.012   0.982 -0.4144 -0.3252  0.7516
14153TIP3    H163950   3.999  -0.069   0.975 -0.9369 -0.4454 -3.1146
14153TIP3    H263951   4.015   0.081   0.991  0.1600 -0.9836  1.5560
14154TIP3   OH263952   3.134   5.816   5.464  0.0417 -0.4446  0.2055
14154TIP3    H163953   3.124   5.732   5.508 -0.3569 -0.3263  0.3497
14154TIP3    H263954   3.216   5.851   5.497 -0.1350 -0.4648  0.6797
14155TIP3   OH263955   5.310   4.998   5.583  0.0766 -0.2656 -0.0790
14155TIP3    H163956   5.361   5.077   5.565  1.4259 -1.1021  0.0611
14155TIP3    H263957   5.298   4.998   5.678  1.9837 -1.3900  0.1728
14156TIP3   OH263958   0.916   0.630   0.068 -0.2162  0.3183  0.8161
14156TIP3    H163959   1.004   0.615   0.102 -0.1018 -1.2811 -0.1133
14156TIP3    H263960   0.874   0.544   0.073 -1.1403  0.6888 -0.3964
14157TIP3   OH263961   3.557   4.230  11.280 -0.0024 -0.3291 -0.1086
14157TIP3    H163962   3.462   4.219  11.283  0.0308 -1.2278 -1.7150
14157TIP3    H263963   3.571   4.281  11.200  0.9048 -0.7046 -0.1857
14158TIP3   OH263964   1.902   4.239  11.809 -0.6770  0.1987  0.2450
14158TIP3    H163965   1.833   4.267  11.748 -0.0244  0.5319 -0.3492
14158TIP3    H263966   1.936   4.158  11.770  0.8867  1.3015 -0.7491
14159TIP3   OH263967   0.974   2.507   6.279 -0.1278  0.4387 -0.2438
14159TIP3    H163968   1.034   2.540   6.346  0.0777  1.5275 -0.9556
14159TIP3    H263969   1.030   2.460   6.217 -0.1354  0.6739 -0.4272
14160TIP3   OH263970   6.122   4.734   6.240 -0.3341 -0.6377 -0.2371
14160TIP3    H163971   6.080   4.748   6.324  0.0344  2.0494 -0.4474
14160TIP3    H263972   6.207   4.696   6.261  0.2079  1.0481  0.7089
14161TIP3   OH263973   0.727   4.483  14.772 -0.0410  0.1082 -0.2938
14161TIP3    H163974   0.743   4.421  14.700  0.4052 -0.3939  0.2320
14161TIP3    H263975   0.783   4.452  14.843  0.8783  1.6439 -0.3171
14162TIP3   OH263976   5.077   2.608  15.365  0.2088  0.1581 -0.2767
14162TIP3    H163977   5.155   2.570  15.323 -1.0929 -2.0420 -0.7595
14162TIP3    H263978   5.006   2.547  15.344 -0.6566 -0.6674  4.4899
14163TIP3   OH263979   1.293   5.816  14.558  0.7524  0.4199 -0.0061
14163TIP3    H163980   1.286   5.862  14.474 -1.8406 -1.1222 -0.6977
14163TIP3    H263981   1.321   5.727  14.535  0.6507  0.1660  0.8224
14164TIP3   OH263982   0.282   0.633   2.036 -0.4212  0.1303  0.5096
14164TIP3    H163983   0.300   0.564   2.100  1.5581  0.0009 -0.1671
14164TIP3    H263984   0.242   0.703   2.087  0.5541 -0.2322  1.7906
14165TIP3   OH263985   0.725   0.802  12.502  0.1499 -0.0838  0.1036
14165TIP3    H163986   0.717   0.896  12.488 -0.0912 -0.2239 -0.7597
14165TIP3    H263987   0.819   0.787  12.511  0.0416  0.5488  2.6316
14166TIP3   OH263988   1.632   4.600  16.572  0.3573 -0.1168 -0.3255
14166TIP3    H163989   1.664   4.528  16.518  0.5987  1.7921 -2.8111
14166TIP3    H263990   1.700   4.667  16.565 -1.0004  1.3087 -0.1074
14167TIP3   OH263991   1.615   0.226  12.152  0.3223  0.2552  0.3779
14167TIP3    H163992   1.676   0.277  12.099 -0.5106 -0.2242 -1.0947
14167TIP3    H263993   1.648   0.136  12.145 -0.2260  0.0763  0.0181
14168TIP3   OH263994   1.093   1.559   3.796 -0.1902  0.2500  0.5428
14168TIP3    H163995   1.163   1.494   3.794 -0.1744  0.2887 -0.7240
14168TIP3    H263996   1.057   1.558   3.707 -0.2937  1.8544  0.5579
14169TIP3   OH263997   5.135   6.197  12.747 -0.0180 -0.3036  0.2434
14169TIP3    H163998   5.174   6.200  12.834 -0.0529  0.0236  0.2466
14169TIP3    H263999   5.174   6.271  12.700 -0.6689  0.0534  0.2630
14170TIP3   OH264000   5.035   5.339   0.566  0.1902  0.0024 -0.2402
14170TIP3    H164001   4.965   5.275   0.557  1.8595 -1.8798 -0.1481
14170TIP3    H264002   5.064   5.357   0.477  0.4315 -0.1574 -0.1931
14171TIP3   OH264003   1.305   6.271  12.073 -0.0046  0.2167  0.1485
14171TIP3    H164004   1.253   6.282  12.153 -1.7745 -0.8124 -0.8288
14171TIP3    H264005   1.241   6.275  12.002  0.8403 -3.7165 -0.9549
14172TIP3   OH264006   1.416   0.110  12.471  0.6024 -0.3013 -0.0152
14172TIP3    H164007   1.330   0.141  12.441  0.1257  0.2334  1.8526
14172TIP3    H264008   1.439   0.042  12.408 -0.2611  0.9208 -1.7212
14173TIP3   OH264009   3.901   6.108  12.907  0.2192  0.9407 -0.6296
14173TIP3    H164010   3.990   6.128  12.937  0.9617 -0.6463 -1.7714
14173TIP3    H264011   3.895   6.013  12.911 -0.6621  0.8951 -2.7545
14174TIP3   OH264012   3.591   0.346   0.917  0.4946 -0.4414  0.1595
14174TIP3    H164013   3.562   0.265   0.957 -0.7271 -0.6297 -1.0508
14174TIP3    H264014   3.686   0.348   0.930  0.3373 -1.3299  1.4800
14175TIP3   OH264015   0.780   5.057  13.333 -0.0729 -0.1260 -0.0167
14175TIP3    H164016   0.703   5.014  13.372 -0.5969  0.4517 -0.3991
14175TIP3    H264017   0.820   5.104  13.406 -0.4554  0.0953  0.0570
14176TIP3   OH264018   3.834   2.652   4.111 -0.3779 -0.2585  0.3378
14176TIP3    H164019   3.804   2.574   4.063  2.0414 -1.0505  0.0595
14176TIP3    H264020   3.784   2.649   4.193 -2.5724 -0.3699 -0.9534
14177TIP3   OH264021   1.888   3.123  11.810 -0.6152 -0.1042  0.7888
14177TIP3    H164022   1.926   3.190  11.754 -0.2691 -1.7960 -1.0698
14177TIP3    H264023   1.903   3.155  11.899  1.8314  1.0567  0.0170
14178TIP3   OH264024   3.338   3.658   3.094  0.3253 -0.5936 -0.0324
14178TIP3    H164025   3.320   3.597   3.166  3.3777  1.4678  2.6325
14178TIP3    H264026   3.262   3.717   3.094 -0.1980 -1.2507  0.8691
14179TIP3   OH264027   4.890   5.403  16.258 -0.6602 -0.3872  0.2735
14179TIP3    H164028   4.971   5.382  16.303 -0.7329 -1.1523  0.0503
14179TIP3    H264029   4.855   5.318  16.230 -1.9975 -0.1495  1.1774
14180TIP3   OH264030   5.703   3.795  11.762 -0.2688  0.1368  0.7591
14180TIP3    H164031   5.698   3.817  11.855 -3.1463  2.2669  0.1680
14180TIP3    H264032   5.636   3.728  11.750 -0.1361  0.1109  0.1345
14181TIP3   OH264033   1.336   6.150  13.050 -0.0636 -0.7601 -0.0163
14181TIP3    H164034   1.415   6.180  13.006 -0.7922 -1.5123 -1.8763
14181TIP3    H264035   1.291   6.231  13.076  1.1523 -0.3322  0.7737
14182TIP3   OH264036   3.839   4.533  14.997  0.3107  0.0510  0.0407
14182TIP3    H164037   3.827   4.445  15.031  1.6686 -0.0039  0.4226
14182TIP3    H264038   3.838   4.523  14.902 -0.4695 -0.2352  0.0770
14183TIP3   OH264039   4.853   3.309   2.635  0.4447  0.1031  0.3552
14183TIP3    H164040   4.845   3.284   2.543  0.5678  0.7648  0.1611
14183TIP3    H264041   4.848   3.405   2.635 -0.4251  0.0728  1.1264
14184TIP3   OH264042   4.609   2.730   1.737 -0.2442  1.0099  0.2095
14184TIP3    H164043   4.550   2.774   1.676 -1.2723 -0.2958  0.2502
14184TIP3    H264044   4.689   2.783   1.735  0.2468  0.2813 -3.2748
14185TIP3   OH264045   4.759   4.115  11.202 -0.3791  0.1328 -0.4821
14185TIP3    H164046   4.753   4.137  11.295  2.1573  0.8109 -0.4450
14185TIP3    H264047   4.673   4.137  11.167 -0.8031  1.5326  1.3490
14186TIP3   OH264048   1.246   0.387   3.695  0.1496  0.2565 -0.4350
14186TIP3    H164049   1.205   0.303   3.717  1.5112 -1.0604 -2.7185
14186TIP3    H264050   1.214   0.408   3.608 -0.7340  2.5318  0.3826
14187TIP3   OH264051   5.993   0.859   0.315  0.5418 -0.1626 -0.4114
14187TIP3    H164052   5.990   0.945   0.358 -0.1631 -0.4664  0.1641
14187TIP3    H264053   5.901   0.836   0.303  0.7391 -0.3057 -1.6467
14188TIP3   OH264054   5.528   4.996  15.341  0.6571 -0.6039  0.3403
14188TIP3    H164055   5.608   5.038  15.309 -0.6935  0.6454 -1.5733
14188TIP3    H264056   5.504   5.047  15.418  0.8553  0.0576 -0.0256
14189TIP3   OH264057   1.586   1.775   5.186  0.5167  0.1842 -0.1935
14189TIP3    H164058   1.520   1.762   5.118  0.2034  1.0018 -0.0469
14189TIP3    H264059   1.554   1.725   5.261  1.2947 -1.4368 -0.9161
14190TIP3   OH264060   1.086   1.974   4.194  0.1050 -0.1606 -0.2377
14190TIP3    H164061   1.051   1.970   4.106 -0.3592 -0.1066 -0.0566
14190TIP3    H264062   1.130   1.890   4.207  0.8562  0.1376 -0.8011
14191TIP3   OH264063   6.195   1.561  14.661  0.3400  0.1788  0.0151
14191TIP3    H164064   6.161   1.648  14.642  0.0643  0.3223  1.1198
14191TIP3    H264065   6.155   1.537  14.745  1.5966 -0.3666  0.4780
14192TIP3   OH264066   6.415   0.168  14.783  0.4178  0.1270  0.2758
14192TIP3    H164067   6.341   0.110  14.803 -0.3360  0.3368 -1.8442
14192TIP3    H264068   6.426   0.161  14.688  2.0148  1.4439  0.3503
14193TIP3   OH264069   1.081   5.719  14.743  0.4169 -0.1588  0.6557
14193TIP3    H164070   1.149   5.745  14.680  0.0424  1.4536  0.9040
14193TIP3    H264071   1.058   5.629  14.717  2.5522 -0.6972  0.5020
14194TIP3   OH264072   2.454   3.463  16.406  0.0351  0.5060  0.4889
14194TIP3    H164073   2.455   3.403  16.332 -0.8089  1.3042 -0.1784
14194TIP3    H264074   2.367   3.503  16.403 -0.1220  0.3205  2.0871
14195TIP3   OH264075   0.234   4.014  10.462  0.0225 -0.0187  0.4651
14195TIP3    H164076   0.230   4.100  10.504 -1.4562  0.4116 -0.5194
14195TIP3    H264077   0.208   3.953  10.531 -1.3179  0.5778  0.5119
14196TIP3   OH264078   2.264   3.500  15.308  0.1674 -0.0994 -0.3367
14196TIP3    H164079   2.252   3.554  15.386 -0.9709 -0.9616  0.1091
14196TIP3    H264080   2.332   3.544  15.258 -0.0569  1.2051  0.4901
14197TIP3   OH264081   6.195   4.103   1.302 -0.5377  0.1915  0.1936
14197TIP3    H164082   6.147   4.052   1.237 -1.2253  1.4773 -0.3240
14197TIP3    H264083   6.170   4.194   1.285  0.2566  0.6617  1.4425
14198TIP3   OH264084   4.596   2.289  15.143 -0.0356 -0.3807 -0.0896
14198TIP3    H164085   4.529   2.350  15.110  0.5135  0.6887  0.7301
14198TIP3    H264086   4.641   2.338  15.212 -0.1963 -2.0540  1.2483
14199TIP3   OH264087   3.604   5.197  13.798  0.0926  0.5378 -0.5928
14199TIP3    H164088   3.568   5.112  13.771 -2.9291  2.0241 -1.4531
14199TIP3    H264089   3.677   5.213  13.738  2.2551 -2.4722  1.0795
14200TIP3   OH264090   2.535   4.744  13.251  0.1277  0.8421  0.0056
14200TIP3    H164091   2.524   4.837  13.232 -0.0283  1.7023  3.9570
14200TIP3    H264092   2.447   4.707  13.241  0.3050  0.9415 -2.1873
14201TIP3   OH264093   4.641   2.166   0.889  0.2063 -0.2488 -0.1639
14201TIP3    H164094   4.551   2.177   0.921 -0.8905  1.6600 -3.6428
14201TIP3    H264095   4.644   2.077   0.855 -0.4590 -0.2307 -0.2786
14202TIP3   OH264096   5.127   4.346   2.386  0.1885  0.2866  0.1999
14202TIP3    H164097   5.185   4.276   2.357 -0.4883 -1.3320  2.6424
14202TIP3    H264098   5.094   4.317   2.471 -1.9423  2.4973  0.1886
14203TIP3   OH264099   3.170   2.036   1.743  0.1150 -0.6966  0.0659
14203TIP3    H164100   3.200   2.119   1.781 -0.1951 -0.3430 -0.4516
14203TIP3    H264101   3.096   2.010   1.797 -1.0569  0.3918 -0.9612
14204TIP3   OH264102   3.548   6.075  13.284 -0.1360  0.1889 -0.3368
14204TIP3    H164103   3.529   6.119  13.201  0.3976 -0.9391 -1.0677
14204TIP3    H264104   3.550   5.982  13.262  2.6097  0.0343  0.4398
14205TIP3   OH264105   0.934   5.869   2.959  0.1641 -0.6410  0.1656
14205TIP3    H164106   0.921   5.963   2.947 -0.7849 -0.8937 -0.8174
14205TIP3    H264107   0.940   5.834   2.870 -0.9925 -1.7200  0.4955
14206TIP3   OH264108   4.010   2.544   5.306  0.3069  0.7873  0.7547
14206TIP3    H164109   3.923   2.536   5.345  0.1036 -0.7255  0.0309
14206TIP3    H264110   4.030   2.637   5.311 -0.9696  1.0227  1.7516
14207TIP3   OH264111   6.085   5.821  14.053  0.0109 -0.3005  0.3667
14207TIP3    H164112   6.070   5.845  13.961 -0.1658  0.6178  0.6348
14207TIP3    H264113   6.103   5.727  14.050 -1.0958 -0.5004 -0.4892
14208TIP3   OH264114   1.334   4.263  15.374  0.1052 -0.0208 -0.1690
14208TIP3    H164115   1.373   4.178  15.356  0.0106 -0.0008 -0.4700
14208TIP3    H264116   1.355   4.316  15.297 -0.2623  0.0812 -0.1989
14209TIP3   OH264117   2.556   5.223   0.322  0.0573 -0.6189  0.3268
14209TIP3    H164118   2.572   5.133   0.291 -1.4899 -0.2816 -1.5801
14209TIP3    H264119   2.482   5.253   0.269  1.4995  2.3136 -0.1413
14210TIP3   OH264120   6.631   6.200   3.335  0.4724  0.5005  0.1788
14210TIP3    H164121   6.632   6.105   3.324  0.4835  0.4811  0.3486
14210TIP3    H264122   6.719   6.221   3.366  0.2175  0.4699  0.9365
14211TIP3   OH264123   5.686   2.548  16.350  0.0773 -0.3626 -0.3751
14211TIP3    H164124   5.629   2.494  16.405 -0.4718 -2.5838 -3.0373
14211TIP3    H264125   5.772   2.509  16.360 -0.3560 -1.9202 -2.4549
14212TIP3   OH264126   0.261   5.871   3.563  0.8158  0.0284 -0.1287
14212TIP3    H164127   0.353   5.874   3.589  0.1659  0.7909  2.2429
14212TIP3    H264128   0.216   5.835   3.640 -0.9243  0.0048 -1.1265
14213TIP3   OH264129   1.967   1.058  11.664 -0.3055  0.0726  0.3602
14213TIP3    H164130   2.061   1.059  11.644 -0.8250 -1.1889 -2.4064
14213TIP3    H264131   1.947   0.966  11.681 -0.9973  0.3755  1.2321
14214TIP3   OH264132   2.163   4.375   4.164  0.0539 -0.1335 -0.2712
14214TIP3    H164133   2.074   4.402   4.188 -0.4857 -1.0330 -1.2229
14214TIP3    H264134   2.163   4.280   4.174  1.5757  0.0513  1.8532
14215TIP3   OH264135   6.481   0.455  11.342  0.4972 -0.0117  0.3014
14215TIP3    H164136   6.571   0.443  11.372  0.1789 -3.2827  0.1247
14215TIP3    H264137   6.484   0.436  11.249  0.0244  2.2572 -0.2075
14216TIP3   OH264138   1.940   0.326  13.800 -0.1162  0.2189 -0.1053
14216TIP3    H164139   2.021   0.315  13.851 -0.2169 -0.1299 -0.0168
14216TIP3    H264140   1.881   0.259  13.834 -1.0305  1.5580  0.9811
14217TIP3   OH264141   1.672   4.130  11.011  0.1981  0.1036 -0.1664
14217TIP3    H164142   1.766   4.112  10.998  0.3827  1.3999 -0.6524
14217TIP3    H264143   1.634   4.044  11.028  1.2040 -0.6676 -1.6847
14218TIP3   OH264144   2.235   4.836  11.480  0.0488  0.3058  0.0614
14218TIP3    H164145   2.317   4.863  11.520  0.8193 -1.4171 -0.3411
14218TIP3    H264146   2.217   4.749  11.516 -0.0047 -0.6338 -2.1606
14219TIP3   OH264147   1.460   2.449  12.017 -0.1335 -0.2070  0.4039
14219TIP3    H164148   1.555   2.434  12.025  0.1633  0.2208 -1.8571
14219TIP3    H264149   1.453   2.535  11.975 -1.5444 -0.1719  0.6822
14220TIP3   OH264150   2.133   0.270  13.139  0.0342 -0.4851  0.5136
14220TIP3    H164151   2.204   0.294  13.198  0.1111  2.2282 -0.6115
14220TIP3    H264152   2.095   0.353  13.112 -0.6355 -1.7015 -2.4779
14221TIP3   OH264153   1.937   1.054  17.197 -1.2305 -0.2069 -0.0341
14221TIP3    H164154   1.993   1.087  17.127 -1.2995  1.5889  0.7351
14221TIP3    H264155   1.996   1.005  17.254 -0.4731  1.4346  0.6148
14222TIP3   OH264156   3.096   2.893   4.925 -0.2960  0.4352 -0.4320
14222TIP3    H164157   3.160   2.961   4.947 -1.3642  0.9538  1.1028
14222TIP3    H264158   3.090   2.839   5.004  1.7537 -2.4503 -2.1574
14223TIP3   OH264159   0.500   1.748  13.726 -0.0975  0.3222 -0.7150
14223TIP3    H164160   0.561   1.790  13.787 -1.8975  2.7225 -0.4459
14223TIP3    H264161   0.430   1.714  13.782 -0.3312 -0.0199 -1.2113
14224TIP3   OH264162   5.079   5.621  15.358 -0.3536  0.4018 -0.7597
14224TIP3    H164163   5.069   5.670  15.440 -0.8004 -1.2673  0.2215
14224TIP3    H264164   5.169   5.588  15.362 -0.3459  0.3965 -0.9962
14225TIP3   OH264165   3.340   2.121  12.994  0.3085  0.1850  0.3720
14225TIP3    H164166   3.291   2.176  13.056  0.4468  0.1140  0.5474
14225TIP3    H264167   3.415   2.175  12.970  1.4295 -0.6222  1.9709
14226TIP3   OH264168   5.810   2.517  14.857  0.0997 -0.4287 -0.4863
14226TIP3    H164169   5.864   2.478  14.925 -0.3754  0.4585  0.4173
14226TIP3    H264170   5.869   2.576  14.810 -0.5259  2.2680  1.9174
14227TIP3   OH264171   6.036   2.478  16.842 -0.1600 -0.2487  0.1785
14227TIP3    H164172   6.071   2.541  16.905 -0.0053 -1.9291  1.8038
14227TIP3    H264173   5.946   2.464  16.868  0.1261 -1.5324  0.5051
14228TIP3   OH264174   2.525   5.937  14.726  0.1754  0.0015 -0.5896
14228TIP3    H164175   2.451   5.894  14.683  1.4034 -1.2093 -1.5321
14228TIP3    H264176   2.522   6.027  14.695 -1.2231  0.1113 -0.1923
14229TIP3   OH264177   6.073   3.113  13.428  0.3385  0.2387 -0.1230
14229TIP3    H164178   5.995   3.167  13.435  0.4547  0.3416  0.3357
14229TIP3    H264179   6.043   3.034  13.382  0.1431  0.6320 -0.6715
14230TIP3   OH264180   2.095   3.934   0.791  0.0036 -0.3052 -0.6640
14230TIP3    H164181   2.154   3.936   0.716  1.2075  0.3533  0.2879
14230TIP3    H264182   2.149   3.961   0.865 -1.1806 -0.9093  0.4406
14231TIP3   OH264183   1.963   2.603   2.048 -0.3088 -0.7649 -0.0946
14231TIP3    H164184   2.003   2.516   2.059  0.5461 -0.7896 -2.9856
14231TIP3    H264185   1.997   2.654   2.121  2.7251 -1.6600 -0.7828
14232TIP3   OH264186   2.633   1.612   0.585  0.4167 -0.3572 -0.0322
14232TIP3    H164187   2.579   1.575   0.515 -0.5161  0.4776  0.2315
14232TIP3    H264188   2.592   1.696   0.605  1.4157 -0.0205  0.6572
14233TIP3   OH264189   6.738   6.232   4.796 -0.4195  0.2994 -0.1842
14233TIP3    H164190   6.705   6.173   4.864  0.2715 -0.2081 -0.2932
14233TIP3    H264191   6.699   6.199   4.715  0.5817 -0.4673 -0.3513
14234TIP3   OH264192   3.982   4.638   0.811 -0.5099  0.2788 -0.6895
14234TIP3    H164193   4.063   4.590   0.829 -0.7499  1.1016  2.9647
14234TIP3    H264194   3.914   4.588   0.856 -1.4237  1.6928 -0.4728
14235TIP3   OH264195   2.715   2.089  13.329 -0.0911 -0.5242  0.0462
14235TIP3    H164196   2.676   2.002  13.337 -0.9060  0.1075  3.3725
14235TIP3    H264197   2.647   2.149  13.358  1.4155  1.0383  0.4178
14236TIP3   OH264198   4.172   5.887   6.380 -0.0322 -0.4373 -0.4209
14236TIP3    H164199   4.151   5.821   6.447 -0.8995 -0.3932 -0.6336
14236TIP3    H264200   4.160   5.841   6.297  1.7370 -0.6917 -0.5490
14237TIP3   OH264201   5.434   0.093   5.574 -0.1649  0.0741  0.0813
14237TIP3    H164202   5.343   0.115   5.590 -0.1816 -0.7366  1.1619
14237TIP3    H264203   5.437   0.069   5.481 -1.2316 -0.7213  0.2372
14238TIP3   OH264204   4.044   2.486  16.531  0.4358  0.1662  0.6733
14238TIP3    H164205   4.122   2.518  16.576  1.3327 -1.4904  0.3530
14238TIP3    H264206   4.077   2.450  16.449 -0.9143  1.1284 -0.3036
14239TIP3   OH264207   0.760   5.287  12.192  0.5057 -0.0882  0.2988
14239TIP3    H164208   0.773   5.373  12.231  0.7546 -0.7853  1.8066
14239TIP3    H264209   0.801   5.226  12.254 -0.8440 -1.4034 -0.0781
14240TIP3   OH264210   1.505   0.166   4.042  0.0384 -0.6842  0.4198
14240TIP3    H164211   1.503   0.243   4.098 -2.3135 -1.9399  2.1579
14240TIP3    H264212   1.496   0.199   3.953  1.6608  1.1916  0.9254
14241TIP3   OH264213   1.426   3.349  11.169  0.0839 -0.1230 -0.0207
14241TIP3    H164214   1.445   3.435  11.131 -0.6815  1.0763  2.2565
14241TIP3    H264215   1.341   3.360  11.212 -0.1338 -2.0933  0.0686
14242TIP3   OH264216   2.341   2.733   3.775 -0.1358 -0.4687 -0.3145
14242TIP3    H164217   2.366   2.655   3.727 -2.0129 -3.4993  3.3858
14242TIP3    H264218   2.385   2.724   3.860 -0.5306  2.4538  0.2731
14243TIP3   OH264219   4.601   3.871  10.840  0.5598  0.6316  0.2285
14243TIP3    H164220   4.598   3.800  10.775  1.0281  0.8979 -0.0843
14243TIP3    H264221   4.510   3.894  10.854  0.2257 -1.5288  1.9666
14244TIP3   OH264222   5.558   1.792  12.345  0.4820 -0.0559 -0.1246
14244TIP3    H164223   5.589   1.802  12.435  0.8233  1.8821 -0.4327
14244TIP3    H264224   5.579   1.702  12.322  0.7212 -0.4567  1.6166
14245TIP3   OH264225   1.129   3.383  14.667  0.1289 -1.4537 -0.0246
14245TIP3    H164226   1.107   3.342  14.750 -0.0388  1.7711  1.6314
14245TIP3    H264227   1.046   3.415  14.633  0.4504 -1.0312 -0.4309
14246TIP3   OH264228   5.147   1.004  11.241 -0.5970 -0.1340  0.2904
14246TIP3    H164229   5.124   1.050  11.160 -0.0128  0.6964  0.5876
14246TIP3    H264230   5.237   1.030  11.260 -0.7073 -0.3524  1.1845
14247TIP3   OH264231   6.223   4.697  10.983 -0.0649 -0.0924 -0.0476
14247TIP3    H164232   6.309   4.661  10.961 -0.0722 -0.0621 -0.1237
14247TIP3    H264233   6.173   4.691  10.902  0.0915  0.5550 -0.1900
14248TIP3   OH264234   6.031   1.778  12.790  0.2441  0.0852 -0.2315
14248TIP3    H164235   6.050   1.872  12.780 -0.9382  0.4688  0.9878
14248TIP3    H264236   5.959   1.762  12.729 -1.0615  0.4906  1.1597
14249TIP3   OH264237   2.201   3.141   6.011 -0.4316 -0.7805  0.0229
14249TIP3    H164238   2.231   3.225   5.977  1.3385 -1.1067  0.7579
14249TIP3    H264239   2.219   3.144   6.104 -1.3440 -1.5744  0.2345
14250TIP3   OH264240   6.690   1.390   1.847  0.0381 -0.2433 -0.0720
14250TIP3    H164241   6.773   1.411   1.804 -0.3483 -0.4330 -0.9202
14250TIP3    H264242   6.637   1.349   1.778 -0.4492 -0.8935  0.6809
14251TIP3   OH264243   0.509   4.053  15.261  0.2418  0.3037 -0.3564
14251TIP3    H164244   0.443   4.066  15.193  0.7062 -3.1589 -1.5926
14251TIP3    H264245   0.460   4.019  15.335  0.0010  2.3082  0.4274
14252TIP3   OH264246   6.090   2.475  14.257 -0.3853  0.2968  0.3012
14252TIP3    H164247   6.098   2.568  14.234 -0.5884 -0.1913 -1.8426
14252TIP3    H264248   6.009   2.471  14.308 -0.4067  1.2906  0.3653
14253TIP3   OH264249   6.809   3.584   2.497  0.3176 -0.3205  0.4671
14253TIP3    H164250   6.759   3.515   2.454  0.0580  0.2505 -0.1450
14253TIP3    H264251   6.804   3.659   2.437  0.7552  0.1699  1.0381
14254TIP3   OH264252   1.777   3.717   0.218 -0.5234  0.0285  0.4324
14254TIP3    H164253   1.853   3.739   0.164 -0.7609  1.3905  0.6316
14254TIP3    H264254   1.813   3.697   0.304 -0.2930 -0.4000  0.2341
14255TIP3   OH264255   2.313   1.479  13.399  0.3648  0.5199  0.1226
14255TIP3    H164256   2.264   1.398  13.404 -1.2630  1.4820 -0.0276
14255TIP3    H264257   2.384   1.468  13.463  0.1608 -0.9970  0.0992
14256TIP3   OH264258   3.377   6.562  13.628  0.2754 -0.3987 -0.2659
14256TIP3    H164259   3.311   6.493  13.621  0.0890  0.0641 -3.5449
14256TIP3    H264260   3.336   6.630  13.681 -0.5529 -1.6143  0.6678
14257TIP3   OH264261   2.819   6.393  12.133 -0.1241 -0.6303  0.0660
14257TIP3    H164262   2.736   6.349  12.149 -0.7068 -0.1122 -1.3393
14257TIP3    H264263   2.886   6.326  12.147 -0.7633 -1.0201  1.3301
14258TIP3   OH264264   4.906   6.510   0.237 -0.1325 -0.5738  0.2313
14258TIP3    H164265   4.833   6.525   0.177  1.8074  3.5158 -1.2780
14258TIP3    H264266   4.969   6.460   0.186 -0.4615 -1.1828  0.4213
14259TIP3   OH264267   0.850   5.513  10.200  0.2628  0.1199  0.3077
14259TIP3    H164268   0.896   5.431  10.217  0.3172  0.2560  0.8239
14259TIP3    H264269   0.797   5.528  10.278 -2.1901 -1.0436 -1.0698
14260TIP3   OH264270   2.961   4.320   3.190 -0.3636 -0.2703  0.0064
14260TIP3    H164271   2.884   4.370   3.163 -0.5269  1.2347  3.0492
14260TIP3    H264272   2.926   4.253   3.250  0.4079 -1.1345 -0.4895
14261TIP3   OH264273   3.455   1.880  14.082 -0.0370  0.6638 -0.3439
14261TIP3    H164274   3.526   1.875  14.019  0.0066 -0.4587 -0.2079
14261TIP3    H264275   3.497   1.901  14.165  0.3717 -1.7667  0.1138
14262TIP3   OH264276   4.830   3.682  14.975  0.4327  0.0939  0.1823
14262TIP3    H164277   4.830   3.626  14.897  0.7634 -0.1202  0.3351
14262TIP3    H264278   4.883   3.758  14.950 -1.8603  1.4151 -0.7844
14263TIP3   OH264279   3.193   2.494  11.637  0.1912  0.1673  0.2489
14263TIP3    H164280   3.281   2.531  11.630 -0.0111  0.4325 -0.8190
14263TIP3    H264281   3.171   2.466  11.549 -0.7258 -0.0836  0.5514
14264TIP3   OH264282   6.657   5.603   5.677  0.5867  0.2086 -0.4734
14264TIP3    H164283   6.729   5.647   5.632  0.0434  0.3088 -1.2479
14264TIP3    H264284   6.617   5.548   5.610 -0.2864  0.4246 -0.1304
14265TIP3   OH264285   0.938   0.772  15.902  0.4923  0.2312  0.1750
14265TIP3    H164286   0.958   0.681  15.924  0.9835 -0.1253 -1.6811
14265TIP3    H264287   0.889   0.767  15.820 -1.0641  1.5387  1.0026
14266TIP3   OH264288   2.881   2.452   4.360 -0.4088  0.2409 -0.7227
14266TIP3    H164289   2.804   2.473   4.308 -0.4359  1.1202 -0.3445
14266TIP3    H264290   2.860   2.369   4.403 -0.5364 -0.2895 -1.7931
14267TIP3   OH264291   3.398   5.317  12.119 -0.1089 -0.0544 -0.3713
14267TIP3    H164292   3.386   5.348  12.208  0.6887  0.2740 -0.3741
14267TIP3    H264293   3.430   5.393  12.071  2.7437 -1.0789 -0.1728
14268TIP3   OH264294   5.751   4.990  14.194 -0.1983  0.8726  0.5888
14268TIP3    H164295   5.705   5.035  14.123 -1.2106 -0.9032  0.0863
14268TIP3    H264296   5.832   4.959  14.155 -0.9307 -0.4367  0.0927
14269TIP3   OH264297   6.218   3.415  15.943  0.4975 -0.0664  0.0459
14269TIP3    H164298   6.286   3.352  15.963  0.7589 -0.0401 -0.7467
14269TIP3    H264299   6.146   3.362  15.908  1.3520  0.2217 -2.2382
14270TIP3   OH264300   0.990   1.442  11.134 -0.0756 -0.0083 -0.3411
14270TIP3    H164301   0.920   1.435  11.069  1.5651  0.8068 -2.2788
14270TIP3    H264302   1.015   1.535  11.132  1.0398 -0.2875  0.3137
14271TIP3   OH264303   6.756   0.721   4.299 -0.5277 -0.1785  0.7633
14271TIP3    H164304   6.732   0.716   4.206  2.5578 -2.1837  0.0015
14271TIP3    H264305   6.777   0.813   4.312 -0.0626 -0.0441 -0.7759
14272TIP3   OH264306   4.526   1.827   4.333 -0.1102  0.2141  0.0026
14272TIP3    H164307   4.525   1.748   4.278 -1.2144 -0.2890  0.7409
14272TIP3    H264308   4.524   1.900   4.270  2.3456 -0.3033 -0.7325
14273TIP3   OH264309   5.271   0.663  15.228 -0.4102  0.1026  0.2734
14273TIP3    H164310   5.282   0.737  15.170 -0.9891  0.1231  0.1855
14273TIP3    H264311   5.217   0.601  15.178 -2.0323  0.6723  1.2581
14274TIP3   OH264312   3.773   6.496  12.681 -0.2853 -0.2851  0.1349
14274TIP3    H164313   3.806   6.407  12.666 -0.2667 -0.2191 -0.2224
14274TIP3    H264314   3.812   6.522  12.764  2.1595  0.5205 -1.2179
14275TIP3   OH264315   5.387   6.493   0.954  0.6756 -0.1179  0.4272
14275TIP3    H164316   5.341   6.558   0.902  2.3681 -0.3275 -1.3687
14275TIP3    H264317   5.376   6.411   0.906 -0.0336 -0.8750  1.8235
14276TIP3   OH264318   1.539   1.407  17.042 -0.1386  0.4443 -0.0381
14276TIP3    H164319   1.453   1.379  17.074  0.7630 -2.7409 -0.2135
14276TIP3    H264320   1.593   1.413  17.121  0.2855 -0.6627 -0.2343
14277TIP3   OH264321   3.061   4.762  11.008  0.3804  0.4635 -0.1292
14277TIP3    H164322   3.057   4.817  10.929  1.6988  1.2120  0.2905
14277TIP3    H264323   2.998   4.801  11.068 -0.2982  0.1689 -0.6541
14278TIP3   OH264324   3.862   4.373   5.276  0.4319 -0.6242 -0.1087
14278TIP3    H164325   3.889   4.368   5.184  0.3725 -2.4497 -0.0377
14278TIP3    H264326   3.889   4.461   5.304  1.5809 -0.5153 -1.5098
14279TIP3   OH264327   0.692   5.711   0.496 -0.0683 -0.4004  0.2120
14279TIP3    H164328   0.609   5.693   0.452  0.4948 -1.8791 -0.2624
14279TIP3    H264329   0.669   5.775   0.564 -1.7809 -1.5261  0.7343
14280TIP3   OH264330   1.581   2.292  13.331 -0.3741  0.5209  0.6634
14280TIP3    H164331   1.542   2.329  13.409 -1.4564  2.4094 -0.7303
14280TIP3    H264332   1.644   2.359  13.302  0.7696 -0.6109  0.4850
14281TIP3   OH264333   1.601   1.428  15.131  0.6180  0.4753 -0.0823
14281TIP3    H164334   1.592   1.504  15.074 -0.9369  0.4611  0.1328
14281TIP3    H264335   1.673   1.450  15.190 -0.3939  2.1549  0.5515
14282TIP3   OH264336   6.670   6.732   1.609 -0.0646  0.3812 -0.0026
14282TIP3    H164337   6.657   6.807   1.667 -0.9994  1.7752 -1.9758
14282TIP3    H264338   6.639   6.657   1.660 -0.0495  1.4494  1.6226
14283TIP3   OH264339   3.570   0.095  12.954  0.1211  0.2571  0.5463
14283TIP3    H164340   3.658   0.111  12.988 -0.2070  2.3350  0.4809
14283TIP3    H264341   3.513   0.103  13.030 -0.1567  0.4251  0.3231
14284TIP3   OH264342   0.193   6.716   6.519  0.1242 -0.2799  1.1074
14284TIP3    H164343   0.236   6.640   6.558  0.8303 -0.0616  0.7638
14284TIP3    H264344   0.141   6.753   6.590  1.5864  0.2540  1.9162
14285TIP3   OH264345   0.817   6.571   3.018  0.7102  0.1319 -0.0580
14285TIP3    H164346   0.817   6.619   3.101 -2.6897  0.2057 -0.0433
14285TIP3    H264347   0.754   6.617   2.963  0.5511 -1.7929 -1.5592
14286TIP3   OH264348   2.029   3.060  15.356  0.2222 -0.2854  0.1028
14286TIP3    H164349   2.037   2.995  15.286  1.0101 -2.9633  2.5612
14286TIP3    H264350   1.953   3.112  15.333 -0.3997 -2.0664 -1.9848
14287TIP3   OH264351   3.686   3.909   0.405  0.1754 -0.4190 -0.1581
14287TIP3    H164352   3.634   3.958   0.468  0.5582  0.2417 -0.3488
14287TIP3    H264353   3.718   3.975   0.344 -0.7000 -1.1484 -1.4089
14288TIP3   OH264354   5.845   5.731   5.892  0.2951 -0.1438 -0.1347
14288TIP3    H164355   5.933   5.696   5.877  0.2801  0.0358 -0.6598
14288TIP3    H264356   5.809   5.744   5.804 -0.6537 -1.2209  0.0736
14289TIP3   OH264357   6.288   4.908   4.024 -0.0855 -0.0666  1.2091
14289TIP3    H164358   6.208   4.904   3.972  0.2483 -0.0896  0.6954
14289TIP3    H264359   6.291   4.823   4.068  0.8992 -1.0314 -0.6412
14290TIP3   OH264360   4.601   6.001   1.884  0.0732 -0.1304  0.8520
14290TIP3    H164361   4.643   6.078   1.922 -2.7051  2.1451 -0.5080
14290TIP3    H264362   4.642   5.992   1.798 -0.4562  0.6090  0.5133
14291TIP3   OH264363   6.067   4.935   0.471  0.7708  1.0298 -0.2337
14291TIP3    H164364   6.133   4.928   0.539  1.4675 -1.0364 -1.0921
14291TIP3    H264365   6.116   4.929   0.389 -0.3746  0.4224 -0.8906
14292TIP3   OH264366   2.826   3.596   1.836  0.4076 -0.0762  0.6314
14292TIP3    H164367   2.841   3.618   1.928  0.4105  2.6111  0.0095
14292TIP3    H264368   2.914   3.580   1.801  0.4846 -0.1755  0.8704
14293TIP3   OH264369   2.751   3.853   5.255 -0.0984 -0.3948 -0.2491
14293TIP3    H164370   2.825   3.885   5.308 -0.4997  1.2980 -0.6874
14293TIP3    H264371   2.713   3.783   5.307  0.9046 -0.2656  0.6745
14294TIP3   OH264372   5.241   3.062   3.725  0.3948 -0.0772 -0.0084
14294TIP3    H164373   5.238   3.150   3.687  0.2436  0.5920  1.4997
14294TIP3    H264374   5.316   3.020   3.683 -0.5672  0.1561 -2.0211
14295TIP3   OH264375   5.882   3.032  11.676 -0.2584  0.1430 -0.1130
14295TIP3    H164376   5.948   2.995  11.617 -0.1538 -0.3721  0.3108
14295TIP3    H264377   5.922   3.111  11.711  0.6846 -0.8513  1.1393
14296TIP3   OH264378   2.161   2.868   2.156 -0.0820  0.3605  0.4233
14296TIP3    H164379   2.081   2.919   2.165  0.2126  0.5213  2.1874
14296TIP3    H264380   2.211   2.914   2.088 -1.0789  0.7497 -0.0623
14297TIP3   OH264381   2.469   4.395  14.523  0.0876  0.0297 -0.0769
14297TIP3    H164382   2.563   4.388  14.505  0.2832 -1.1466  1.3394
14297TIP3    H264383   2.451   4.327  14.587 -1.6852  0.4610 -0.0726
14298TIP3   OH264384   2.367   3.967   1.545 -0.5509  0.4014  0.3214
14298TIP3    H164385   2.368   3.874   1.525 -0.7793  0.8653 -2.0690
14298TIP3    H264386   2.302   3.976   1.615  0.8147 -1.4440  1.8461
14299TIP3   OH264387   5.255   6.553  13.477  0.3436 -0.1946 -0.6034
14299TIP3    H164388   5.237   6.470  13.522  0.3598 -0.2767 -0.7438
14299TIP3    H264389   5.210   6.544  13.393 -1.5869  0.8760  0.2832
14300TIP3   OH264390   1.726   2.333  15.505 -0.5037 -0.4214 -0.0143
14300TIP3    H164391   1.687   2.246  15.500  1.9867 -1.5699 -0.1808
14300TIP3    H264392   1.693   2.369  15.587 -1.5130 -1.5418  0.0873
14301TIP3   OH264393   4.966   0.543   2.223 -0.0591  0.1472 -0.4626
14301TIP3    H164394   4.882   0.574   2.188 -1.2968 -1.6344  0.8189
14301TIP3    H264395   4.971   0.581   2.310  0.2193 -0.1687 -0.3429
14302TIP3   OH264396   3.763   0.553  17.257  0.0761  0.1826 -0.3712
14302TIP3    H164397   3.729   0.464  17.267  3.9892 -1.5291 -1.3446
14302TIP3    H264398   3.705   0.594  17.193 -1.1336 -2.0279 -0.7393
14303TIP3   OH264399   0.726   4.446   0.691  0.5167 -0.2935 -0.5786
14303TIP3    H164400   0.734   4.478   0.781 -1.4391 -0.3239 -0.3836
14303TIP3    H264401   0.813   4.410   0.671  0.8017 -0.8300  1.4989
14304TIP3   OH264402   1.721   2.431  12.006  0.3426 -0.4105  0.0263
14304TIP3    H164403   1.755   2.342  12.013  0.7398 -0.2013  0.8046
14304TIP3    H264404   1.769   2.469  11.933  2.1852  0.0497  1.4554
14305TIP3   OH264405   1.895   6.233   4.300  0.2806 -0.2639 -0.2493
14305TIP3    H164406   1.805   6.213   4.326 -0.5270  1.0996 -1.8370
14305TIP3    H264407   1.930   6.151   4.267 -1.1829 -0.3025 -1.7695
14306TIP3   OH264408   6.097   6.313   5.680 -0.1180  0.1571 -0.2294
14306TIP3    H164409   6.103   6.250   5.752  0.2052  0.7235  0.2484
14306TIP3    H264410   6.182   6.309   5.637  0.1783  0.8300  0.2851
14307TIP3   OH264411   4.678   5.679  15.590 -0.1299 -0.0903 -0.1543
14307TIP3    H164412   4.719   5.644  15.670 -0.3686  0.1800  0.0895
14307TIP3    H264413   4.589   5.645  15.592 -0.0460 -0.3265 -0.4631
14308TIP3   OH264414   6.596   1.862  11.882 -0.0802 -0.3474 -0.1811
14308TIP3    H164415   6.518   1.914  11.862 -0.1960  0.0367  1.2326
14308TIP3    H264416   6.573   1.813  11.960  1.3527  0.3204  0.6770
14309TIP3   OH264417   0.291   3.452   0.621 -0.2429 -0.5661  0.2036
14309TIP3    H164418   0.334   3.460   0.706  0.7193  0.1228 -0.3382
14309TIP3    H264419   0.346   3.503   0.562  0.1491 -2.5976 -1.2357
14310TIP3   OH264420   0.242   1.436   5.806 -0.0705 -0.4488  0.5694
14310TIP3    H164421   0.228   1.464   5.896  0.0914 -0.9157  0.7371
14310TIP3    H264422   0.156   1.406   5.776 -0.8796  2.6557 -0.4608
14311TIP3   OH264423   4.759   0.844  17.205 -0.3026 -0.4482 -0.0887
14311TIP3    H164424   4.820   0.890  17.263 -0.6222 -0.4037  0.2166
14311TIP3    H264425   4.785   0.869  17.117  0.7609 -1.2124 -0.0019
14312TIP3   OH264426   4.669   6.802   3.930 -0.1936 -0.2568 -1.0733
14312TIP3    H164427   4.662   6.761   4.016 -1.3394  1.0018 -0.5529
14312TIP3    H264428   4.746   6.760   3.890 -1.6162 -3.2372 -0.7859
14313TIP3   OH264429   4.806   6.753  10.940 -0.8216 -0.7195 -0.2381
14313TIP3    H164430   4.834   6.816  11.006 -1.1901 -2.6511  1.8102
14313TIP3    H264431   4.737   6.798  10.892  0.1692  1.0917  0.0064
14314TIP3   OH264432   1.151   2.573  12.942 -0.6242 -0.1875 -0.2503
14314TIP3    H164433   1.106   2.603  13.021 -0.0867  0.1710 -0.0751
14314TIP3    H264434   1.094   2.506  12.905 -0.7109 -0.5959  0.6287
14315TIP3   OH264435   3.807   1.475  17.282 -0.4960 -0.0224  0.3610
14315TIP3    H164436   3.805   1.562  17.322 -1.3951  0.5706 -0.9356
14315TIP3    H264437   3.837   1.417  17.352  0.1022  1.3242  1.2433
14316TIP3   OH264438   2.341   5.633   0.515  0.4370 -0.4176  0.1328
14316TIP3    H164439   2.426   5.669   0.492  0.1976  1.0016  1.4437
14316TIP3    H264440   2.291   5.637   0.433  0.9250  0.7597 -0.1228
14317TIP3   OH264441   0.595   1.046   4.078 -0.0346  0.1346 -0.7207
14317TIP3    H164442   0.550   1.107   4.136  0.5081 -0.8746  0.7860
14317TIP3    H264443   0.660   1.003   4.134  0.3219 -1.0523 -2.0157
14318TIP3   OH264444   3.763   2.410   0.407 -0.4349  0.4221  0.3514
14318TIP3    H164445   3.726   2.332   0.449 -1.3720 -0.3772 -1.8828
14318TIP3    H264446   3.687   2.460   0.379  0.1509  0.3588 -1.4206
14319TIP3   OH264447   4.110   6.334  11.636  0.1873 -0.0974  0.0247
14319TIP3    H164448   4.089   6.257  11.689  0.8107  0.2490  0.7966
14319TIP3    H264449   4.160   6.300  11.562  1.3704 -0.3316  0.9158
14320TIP3   OH264450   1.496   0.700   1.061  0.1123 -0.1922 -0.3826
14320TIP3    H164451   1.563   0.676   1.126  0.7816  1.7964 -0.2831
14320TIP3    H264452   1.419   0.721   1.114  0.3725  0.5300 -0.2859
14321TIP3   OH264453   0.731   0.308  13.819 -0.6465  0.5454 -0.0673
14321TIP3    H164454   0.792   0.373  13.784 -1.4782  2.2637  1.5702
14321TIP3    H264455   0.657   0.308  13.758 -0.5655  0.9960 -0.1626
14322TIP3   OH264456   6.176   3.545   5.853  0.3458 -0.4975  0.2342
14322TIP3    H164457   6.164   3.477   5.920  0.0154 -0.1905  0.4900
14322TIP3    H264458   6.136   3.508   5.774 -1.3433  0.0650  0.7957
14323TIP3   OH264459   2.636   0.035  10.477  0.3026  0.2007 -0.8212
14323TIP3    H164460   2.703  -0.033  10.473  1.8700  1.5555  1.5544
14323TIP3    H264461   2.553  -0.014  10.480  1.4405 -1.6956  1.9156
14324TIP3   OH264462   3.639   6.594   4.563 -0.1932 -0.1571 -0.5618
14324TIP3    H164463   3.543   6.599   4.553 -0.3608  1.7767  1.4221
14324TIP3    H264464   3.668   6.685   4.555  0.9783 -0.1348  2.9793
14325TIP3   OH264465   6.139   2.616  12.539 -0.1916 -0.1138 -0.6159
14325TIP3    H164466   6.066   2.599  12.598  2.4424 -2.5102  2.0838
14325TIP3    H264467   6.150   2.711  12.541 -3.1785  0.3010 -1.1197
14326TIP3   OH264468   5.588   0.699   3.029  0.3484 -0.0249 -0.3300
14326TIP3    H164469   5.510   0.754   3.017  0.5206 -0.1359 -2.1891
14326TIP3    H264470   5.628   0.732   3.109 -1.0948  0.6741  0.1331
14327TIP3   OH264471   3.531   5.323   2.039  0.0740 -0.6768 -0.0132
14327TIP3    H164472   3.529   5.232   2.007 -0.7309 -0.5247 -0.4024
14327TIP3    H264473   3.606   5.326   2.098  0.3717 -1.4860 -0.3471
14328TIP3   OH264474   0.678   4.455   0.958  0.1429  0.2690  0.1300
14328TIP3    H164475   0.665   4.367   0.993 -1.8205  0.1627 -0.8086
14328TIP3    H264476   0.757   4.486   1.001  0.4771 -1.6946  0.9897
14329TIP3   OH264477   6.004   1.284   3.878 -0.6537  0.1773 -0.1562
14329TIP3    H164478   5.929   1.341   3.891 -0.0302  1.3186 -1.3412
14329TIP3    H264479   6.003   1.224   3.952 -1.3166  1.7543  1.1360
14330TIP3   OH264480   1.885   2.444   5.653  0.3391 -0.2031 -0.3495
14330TIP3    H164481   1.865   2.501   5.728  1.0129  1.3120 -1.2900
14330TIP3    H264482   1.840   2.486   5.580 -1.0665 -2.1743 -0.6451
14331TIP3   OH264483   2.658   3.758   3.513 -0.0455 -0.4163 -0.5699
14331TIP3    H164484   2.677   3.713   3.431  4.6155 -0.1636  0.2693
14331TIP3    H264485   2.636   3.688   3.575  2.7449 -1.2221 -0.4350
14332TIP3   OH264486   5.530   5.726  14.916  0.0548 -0.0463  0.5239
14332TIP3    H164487   5.543   5.632  14.920  0.5080  0.0383  1.0705
14332TIP3    H264488   5.440   5.737  14.884 -0.0523 -0.6598  0.6204
14333TIP3   OH264489   4.449   2.866  16.733 -0.4163  0.0617 -0.0557
14333TIP3    H164490   4.459   2.822  16.817  0.0978  0.0707 -0.1125
14333TIP3    H264491   4.451   2.796  16.668 -0.2804  0.1039 -0.0981
14334TIP3   OH264492   1.348   0.873  15.481 -0.3303  0.7468 -0.3966
14334TIP3    H164493   1.288   0.821  15.534  0.8882  1.5500  1.8455
14334TIP3    H264494   1.353   0.827  15.398 -0.0047 -2.1813  1.2005
14335TIP3   OH264495   4.829   2.365   4.844  0.3903 -0.2637 -0.2467
14335TIP3    H164496   4.810   2.447   4.889 -1.1681  0.0712 -1.4694
14335TIP3    H264497   4.922   2.349   4.861  0.8105  1.9514 -0.3269
14336TIP3   OH264498   6.250   2.926  12.271  0.5829  0.2224  0.3597
14336TIP3    H164499   6.256   2.897  12.180 -0.4718  1.9485 -0.2853
14336TIP3    H264500   6.299   2.861  12.320  1.9210 -0.2477 -1.5490
14337TIP3   OH264501   5.012   2.081  11.661 -0.4305  0.1858 -0.4537
14337TIP3    H164502   5.076   2.144  11.694  0.3534 -0.1744 -1.2755
14337TIP3    H264503   4.956   2.061  11.737 -0.0511  1.0868  0.0654
14338TIP3   OH264504   4.811   3.128   2.097  0.6714 -0.4130 -0.4788
14338TIP3    H164505   4.844   3.218   2.092 -0.1072  0.2172  3.5393
14338TIP3    H264506   4.889   3.073   2.085  1.2193  0.7867 -2.5585
14339TIP3   OH264507   1.609   0.813  16.892  0.4898 -0.2102  0.3567
14339TIP3    H164508   1.624   0.869  16.969  0.2928 -0.5315  0.6325
14339TIP3    H264509   1.697   0.791  16.862  0.6012 -1.5830  1.6030
14340TIP3   OH264510   0.273   2.138  12.984  0.0772  0.6130 -0.2878
14340TIP3    H164511   0.202   2.199  13.003 -1.2364 -1.2116  0.7981
14340TIP3    H264512   0.297   2.157  12.893 -1.8494  1.2122 -0.6966
14341TIP3   OH264513   5.396   3.132  15.200  0.3907  0.3348 -0.4941
14341TIP3    H164514   5.424   3.041  15.190 -0.0968  0.0771  0.3946
14341TIP3    H264515   5.415   3.153  15.291 -2.4643  0.0745  0.2165
14342TIP3   OH264516   3.841   3.669   0.334  0.3096  0.3246 -0.2038
14342TIP3    H164517   3.843   3.760   0.364  1.7260  0.4572 -0.6289
14342TIP3    H264518   3.750   3.653   0.311  0.1300  1.8118 -0.6220
14343TIP3   OH264519   4.842   6.209  11.171 -0.3072  0.2579  0.3861
14343TIP3    H164520   4.773   6.262  11.132  1.3244  2.8171  0.8547
14343TIP3    H264521   4.852   6.134  11.111 -1.7440  1.1671 -1.0196
14344TIP3   OH264522   4.167   1.488   1.071  0.0683 -0.4927 -0.0084
14344TIP3    H164523   4.153   1.552   1.002 -2.7979  0.6047  1.5023
14344TIP3    H264524   4.109   1.415   1.048 -0.8143 -0.1677  1.1434
14345TIP3   OH264525   1.367   3.762   0.890 -0.7099  0.4581  0.4410
14345TIP3    H164526   1.296   3.711   0.853 -0.3170  0.8630 -0.9374
14345TIP3    H264527   1.379   3.834   0.828  1.8324 -0.3922 -0.1289
14346TIP3   OH264528   6.404   1.588  16.173  0.3813  0.1117  0.6431
14346TIP3    H164529   6.323   1.545  16.199  0.3249  1.4102  2.7197
14346TIP3    H264530   6.414   1.660  16.235  2.0098  1.2757 -0.9283
14347TIP3   OH264531   1.466   3.484  14.885 -0.9827  0.1975 -0.6345
14347TIP3    H164532   1.405   3.539  14.835 -1.7572  1.1466  1.3197
14347TIP3    H264533   1.436   3.491  14.975  1.9451  0.5697  0.3492
14348TIP3   OH264534   3.748   4.689  11.121 -0.4549  0.8718  0.2816
14348TIP3    H164535   3.840   4.673  11.144 -0.7037  2.2073  2.3288
14348TIP3    H264536   3.752   4.753  11.050  0.1860  4.0548  3.0400
14349TIP3   OH264537   2.209   0.044   2.041  0.2627  0.5584  0.1563
14349TIP3    H164538   2.171   0.130   2.055 -2.1639 -0.6009  0.8537
14349TIP3    H264539   2.259   0.026   2.121 -0.5525  0.6455  0.6877
14350TIP3   OH264540   3.561   0.332  16.922 -0.5767 -0.1291  0.1348
14350TIP3    H164541   3.561   0.395  16.994  1.2980  0.2432 -0.1586
14350TIP3    H264542   3.640   0.279  16.936 -0.2947 -0.1834 -1.5184
14351TIP3   OH264543   0.462   5.241   5.586 -0.4183 -0.0897 -0.1674
14351TIP3    H164544   0.429   5.307   5.525 -0.8272  0.8703  1.0723
14351TIP3    H264545   0.473   5.288   5.668 -1.3451 -1.7295  0.9135
14352TIP3   OH264546   3.232   3.543  14.977 -0.0812 -0.1187  0.8674
14352TIP3    H164547   3.272   3.582  14.899  0.8400 -3.1667 -0.2645
14352TIP3    H264548   3.291   3.568  15.048  0.0716  1.1479  0.3205
14353TIP3   OH264549   3.479   5.850  17.085 -0.3966 -0.4730 -0.6316
14353TIP3    H164550   3.497   5.820  16.996  0.8944 -0.0013 -0.5465
14353TIP3    H264551   3.524   5.934  17.091 -0.6836 -0.3914  0.3886
14354TIP3   OH264552   2.549   1.352   2.725  0.2252  0.2509 -0.4169
14354TIP3    H164553   2.643   1.348   2.710  0.1463  0.0046 -0.8721
14354TIP3    H264554   2.539   1.346   2.820  0.6821  0.6234 -0.3445
14355TIP3   OH264555   4.187   0.251  10.849 -0.1802 -0.5139  0.0411
14355TIP3    H164556   4.124   0.320  10.826 -1.2650 -1.4378  0.1666
14355TIP3    H264557   4.146   0.171  10.817  1.1273 -1.0837 -0.2024
14356TIP3   OH264558   0.901   5.281   1.626  0.3539 -0.7818  0.2047
14356TIP3    H164559   0.825   5.271   1.684 -0.5661 -1.2603 -1.0543
14356TIP3    H264560   0.864   5.314   1.544  1.6498 -0.0372 -0.0910
14357TIP3   OH264561   3.614   2.599  11.829 -0.2033 -0.4746 -0.5765
14357TIP3    H164562   3.669   2.557  11.896 -2.4339 -0.4794  1.3128
14357TIP3    H264563   3.577   2.526  11.779  0.9415 -0.4915 -1.4314
14358TIP3   OH264564   1.866   2.732   1.664  0.2066 -0.2010  0.3448
14358TIP3    H164565   1.801   2.664   1.647  0.0192 -0.1137  0.7155
14358TIP3    H264566   1.838   2.772   1.746  1.3688 -0.9380  1.1207
14359TIP3   OH264567   0.545   5.031  17.007  0.3266  0.3099 -0.0979
14359TIP3    H164568   0.624   5.015  16.956  0.5646 -1.3074  0.7500
14359TIP3    H264569   0.490   4.955  16.990 -0.2402  0.5080  0.8258
14360TIP3   OH264570   1.170   1.155  16.061 -0.0846  0.5728  0.4829
14360TIP3    H164571   1.108   1.128  16.129 -0.6956 -0.8194 -0.6122
14360TIP3    H264572   1.163   1.088  15.994  1.4272  1.2806 -0.4074
14361TIP3   OH264573   6.450   4.895   5.197 -0.0957  0.1197  0.0034
14361TIP3    H164574   6.452   4.828   5.128 -0.4804  0.7853 -0.6662
14361TIP3    H264575   6.531   4.882   5.246 -1.2345 -2.3216  1.3024
14362TIP3   OH264576   4.283   5.652  12.358 -0.4071  0.1700  0.4730
14362TIP3    H164577   4.272   5.571  12.408  0.8437  0.2563  0.9216
14362TIP3    H264578   4.371   5.644  12.320 -0.7471  0.7882 -0.4540
14363TIP3   OH264579   3.893   2.480   2.052  0.2785  0.3258 -0.3336
14363TIP3    H164580   3.913   2.387   2.068 -0.6177  0.5358  2.2144
14363TIP3    H264581   3.861   2.512   2.136  0.7461  3.0120 -1.1463
14364TIP3   OH264582   2.594   2.705  14.108  0.3661 -0.0826 -0.2157
14364TIP3    H164583   2.568   2.614  14.124 -0.7984  0.1847 -0.5182
14364TIP3    H264584   2.547   2.756  14.174  0.2965  0.3854 -0.6211
14365TIP3   OH264585   3.934   4.124   6.049 -0.2091  0.3185  0.1957
14365TIP3    H164586   3.918   4.184   6.121 -0.1999 -0.2816  0.7007
14365TIP3    H264587   3.857   4.067   6.047 -0.0401  0.0971 -0.0316
14366TIP3   OH264588   5.322   1.393   5.214  0.2180 -0.3171  0.1713
14366TIP3    H164589   5.326   1.298   5.199  0.0646 -0.3892  0.5990
14366TIP3    H264590   5.334   1.404   5.308 -0.7236  0.0227  0.2664
14367TIP3   OH264591   1.984   1.743  15.978 -0.5473 -0.1657  0.3218
14367TIP3    H164592   2.072   1.778  15.988 -0.3363 -0.2408 -1.1180
14367TIP3    H264593   1.990   1.652  16.008  0.6451 -1.1406 -2.7344
14368TIP3   OH264594   4.435   3.003   6.084  0.1781  0.2629  0.0350
14368TIP3    H164595   4.405   3.092   6.069  0.8929  0.5356  0.2249
14368TIP3    H264596   4.354   2.952   6.096 -0.2301  0.8557 -0.1820
14369TIP3   OH264597   0.206   5.706  11.596 -0.2164 -0.0851  0.1095
14369TIP3    H164598   0.219   5.662  11.680  1.4600 -1.0932 -0.6651
14369TIP3    H264599   0.112   5.695  11.578 -0.1925 -1.6772  0.8650
14370TIP3   OH264600   5.117   1.430  13.698 -0.0029 -0.1481 -0.3496
14370TIP3    H164601   5.053   1.473  13.641 -0.0393  0.2232 -0.0269
14370TIP3    H264602   5.166   1.373  13.639 -1.2550 -1.1571 -0.4456
14371TIP3   OH264603   2.011   2.305  13.298 -0.1954 -0.3235  0.5661
14371TIP3    H164604   1.954   2.381  13.287  0.4514 -0.0992 -1.4425
14371TIP3    H264605   1.988   2.247  13.226  1.5622 -0.5768  0.1925
14372TIP3   OH264606   3.249   5.560  14.357  0.1832  0.4807 -0.4343
14372TIP3    H164607   3.159   5.593  14.354  0.8984  2.6430  1.1790
14372TIP3    H264608   3.299   5.622  14.304  1.4519  1.7567  2.1772
14373TIP3   OH264609   3.774   4.213   5.795  0.3708  0.1066  0.5710
14373TIP3    H164610   3.829   4.147   5.752  1.9426  1.7598 -0.0058
14373TIP3    H264611   3.817   4.227   5.880  0.4190  0.8581  0.4227
14374TIP3   OH264612   3.442   6.330   4.015 -0.1280 -0.0879 -0.3615
14374TIP3    H164613   3.402   6.329   4.102  0.2399  0.0476 -0.1908
14374TIP3    H264614   3.415   6.248   3.975 -1.3132  0.4011 -0.5811
14375TIP3   OH264615   2.901   0.718   4.769 -0.0959 -0.0418  0.2847
14375TIP3    H164616   2.818   0.700   4.811 -0.5342 -0.4754 -0.7509
14375TIP3    H264617   2.921   0.638   4.719  1.6926 -0.5525  1.7276
14376TIP3   OH264618   3.186   5.036   5.944  0.1490 -0.3886  0.1095
14376TIP3    H164619   3.101   5.044   5.988 -0.1759 -0.3869 -0.5021
14376TIP3    H264620   3.225   5.123   5.952  0.8783 -0.8551  1.9310
14377TIP3   OH264621   5.012   0.882  12.684  0.4843  0.1612 -0.3118
14377TIP3    H164622   4.931   0.892  12.634  0.6442 -1.5465 -0.9472
14377TIP3    H264623   5.078   0.929  12.632  0.1944  0.3394 -0.5241
14378TIP3   OH264624   4.124   1.507  16.257 -0.5517  0.0110  0.0812
14378TIP3    H164625   4.092   1.485  16.170  0.8305  1.3325 -0.7839
14378TIP3    H264626   4.215   1.533  16.244 -0.6244  1.2213  1.7728
14379TIP3   OH264627   0.323   0.629  14.171  0.0115  0.1979  0.2740
14379TIP3    H164628   0.291   0.687  14.101  1.6053  2.2322  1.1958
14379TIP3    H264629   0.367   0.558  14.125  0.2306  1.0289 -0.8224
14380TIP3   OH264630   4.969   0.339   6.484 -0.4240  0.1694  0.0321
14380TIP3    H164631   4.936   0.358   6.396  1.5720  1.0902 -0.5412
14380TIP3    H264632   5.041   0.278   6.469 -2.4640 -2.6730  1.3493
14381TIP3   OH264633   4.731   4.089  13.861  0.2096 -0.6718 -0.0943
14381TIP3    H164634   4.774   4.110  13.778  0.5024 -1.0625 -0.0457
14381TIP3    H264635   4.638   4.105  13.845  0.1737 -1.5072 -0.7455
14382TIP3   OH264636   3.744   2.166  16.007 -0.4829  0.1888 -0.0524
14382TIP3    H164637   3.834   2.136  16.021 -0.0577  1.8648  0.9653
14382TIP3    H264638   3.753   2.245  15.954 -1.2970  0.7849  0.6729
14383TIP3   OH264639   1.106   2.192   0.985 -0.2673  0.3618  0.1869
14383TIP3    H164640   1.055   2.176   1.064 -1.8538  3.7403 -0.0384
14383TIP3    H264641   1.044   2.234   0.924  1.6839  0.6325 -1.6859
14384TIP3   OH264642   3.303   3.303   4.654  0.2503 -0.0907  0.6495
14384TIP3    H164643   3.227   3.327   4.601  0.3620 -0.5920  0.2585
14384TIP3    H264644   3.311   3.373   4.719  1.1624  1.3934 -1.0516
14385TIP3   OH264645   4.189   4.838   1.780 -0.2972 -0.2304  0.4008
14385TIP3    H164646   4.199   4.827   1.685  0.9056  0.6653  0.4123
14385TIP3    H264647   4.173   4.931   1.792 -0.1612 -0.2973  1.0978
14386TIP3   OH264648   2.518   5.879  17.204  0.0170  0.1649  0.1326
14386TIP3    H164649   2.459   5.826  17.151  1.5812  0.4493 -1.9611
14386TIP3    H264650   2.501   5.969  17.177  1.4765  0.2381 -0.5780
14387TIP3   OH264651   3.020   4.503   1.228 -0.5532 -0.4770  0.2818
14387TIP3    H164652   3.109   4.516   1.195 -0.6708  0.1057  0.1992
14387TIP3    H264653   2.986   4.429   1.177 -0.8817  0.6710 -1.1819
14388TIP3   OH264654   4.914   2.130  13.810 -0.3417 -0.3626 -0.3488
14388TIP3    H164655   4.909   2.055  13.870 -2.2992 -1.0270 -1.2724
14388TIP3    H264656   4.896   2.206  13.865 -0.6419 -0.8150  0.1841
14389TIP3   OH264657   5.103   3.265  13.334 -0.1280  0.3550  0.0395
14389TIP3    H164658   5.157   3.336  13.370  1.1213 -0.3974 -0.3327
14389TIP3    H264659   5.165   3.195  13.313 -1.2045 -0.3889 -0.7423
14390TIP3   OH264660   1.631   0.830  12.312  0.0161 -0.3729 -0.2278
14390TIP3    H164661   1.550   0.857  12.356  0.4865 -1.5785  1.4163
14390TIP3    H264662   1.694   0.820  12.383  2.1661  2.3619 -1.6646
14391TIP3   OH264663   1.410   1.190   3.396 -0.9216  0.2723  0.1319
14391TIP3    H164664   1.366   1.111   3.428  2.3072 -1.3623  0.7425
14391TIP3    H264665   1.440   1.167   3.309  2.0685 -0.0411  1.2074
14392TIP3   OH264666   6.523   0.593   4.037  0.7736 -0.0716 -0.5519
14392TIP3    H164667   6.461   0.628   4.101  1.3217  1.6902 -0.9619
14392TIP3    H264668   6.564   0.519   4.082 -0.6479 -0.4120  0.2081
14393TIP3   OH264669   0.304   2.704   0.202 -0.3596  0.0117 -0.0922
14393TIP3    H164670   0.275   2.780   0.252 -1.6623 -1.3513  1.2773
14393TIP3    H264671   0.380   2.672   0.251 -0.5472 -0.2798  0.0057
14394TIP3   OH264672   6.502   2.936  12.037  0.2551  0.6964 -0.3498
14394TIP3    H164673   6.421   2.886  12.046 -0.1569  1.3518 -0.4072
14394TIP3    H264674   6.557   2.905  12.109 -0.4347  0.9797  0.3126
14395TIP3   OH264675   2.484   0.059   4.399  0.3763 -0.5813 -0.6464
14395TIP3    H164676   2.422   0.126   4.367  1.5645  0.8412 -0.0407
14395TIP3    H264677   2.567   0.084   4.359  1.1234 -0.8799  0.7120
14396TIP3   OH264678   1.103   6.677  16.987  0.0189  0.7139  0.2967
14396TIP3    H164679   1.010   6.685  17.007 -0.4956  0.0589 -1.7462
14396TIP3    H264680   1.143   6.650  17.070 -1.8458 -0.7322  0.7605
14397TIP3   OH264681   5.812   4.242   5.349 -0.0365  0.2106 -0.1137
14397TIP3    H164682   5.849   4.156   5.334 -0.5252  0.0297 -0.2913
14397TIP3    H264683   5.853   4.298   5.282  0.1193  0.0689 -0.1351
14398TIP3   OH264684   3.488   1.913   4.329  0.0106  0.1708  0.2422
14398TIP3    H164685   3.569   1.882   4.368  0.0770  1.0689  0.8236
14398TIP3    H264686   3.471   1.852   4.257  0.6136 -0.6704  0.8083
14399TIP3   OH264687   0.573   6.396  15.787 -0.2239 -0.2834  0.0882
14399TIP3    H164688   0.531   6.391  15.873  0.8046 -1.2690  0.5411
14399TIP3    H264689   0.667   6.402  15.807  0.0049 -0.3583 -0.9661
14400TIP3   OH264690   2.867   0.992   4.293 -0.1840 -0.1665 -0.5851
14400TIP3    H164691   2.936   1.007   4.357  1.5390  0.7826 -2.6031
14400TIP3    H264692   2.838   1.079   4.267 -0.3800 -0.5308 -1.6170
14401TIP3   OH264693   3.344   6.281   5.593  0.4939  0.1602  0.0874
14401TIP3    H164694   3.380   6.341   5.659  0.3538  1.7882 -1.3028
14401TIP3    H264695   3.291   6.219   5.644  0.9361  0.9894  1.5794
14402TIP3   OH264696   1.071   1.604  12.287 -0.0715 -0.6469 -0.1447
14402TIP3    H164697   1.026   1.616  12.204  1.2168 -1.1155 -0.9236
14402TIP3    H264698   1.121   1.523  12.276  1.0459 -0.0866  0.6691
14403TIP3   OH264699   4.071   0.654   2.921 -0.6995  0.2559 -0.0811
14403TIP3    H164700   3.989   0.700   2.904 -1.2715 -1.0951 -1.1538
14403TIP3    H264701   4.118   0.708   2.984 -2.0242  1.4962 -0.1575
14404TIP3   OH264702   5.808   5.565  10.848 -0.3054  0.0076  0.3544
14404TIP3    H164703   5.757   5.510  10.908 -0.9941 -0.9016 -1.0304
14404TIP3    H264704   5.772   5.653  10.861 -1.1825 -0.3620  0.5126
14405TIP3   OH264705   4.313   4.263  16.164 -0.2922 -0.1982  0.0799
14405TIP3    H164706   4.323   4.178  16.121 -0.8243 -0.1383 -0.1660
14405TIP3    H264707   4.236   4.302  16.123  0.0690  0.4955  0.0365
14406TIP3   OH264708   6.724   3.992   3.107 -0.4655  0.0170 -0.4094
14406TIP3    H164709   6.805   3.944   3.123 -0.6755 -0.1483  0.1566
14406TIP3    H264710   6.655   3.926   3.116 -0.7937  0.5116  0.8288
14407TIP3   OH264711   3.787   1.256   0.176  0.0283 -0.1660  0.4873
14407TIP3    H164712   3.705   1.306   0.180 -0.1783 -0.5313  0.9049
14407TIP3    H264713   3.795   1.216   0.262  0.9610  0.3529  0.6463
14408TIP3   OH264714   4.457   2.536   2.590  0.8487 -0.8205  0.2380
14408TIP3    H164715   4.541   2.555   2.632  1.3767 -0.7783 -0.8098
14408TIP3    H264716   4.403   2.613   2.607  0.8410 -1.0742  1.3720
14409TIP3   OH264717   4.372   0.410   4.526 -0.5478  0.4537 -0.0541
14409TIP3    H164718   4.430   0.424   4.451 -0.2812  1.9558  0.4160
14409TIP3    H264719   4.428   0.368   4.591 -0.1174  1.4492  0.2181
14410TIP3   OH264720   5.973   6.222   1.857 -0.2373 -0.2453 -0.0586
14410TIP3    H164721   5.968   6.136   1.900 -2.7310  0.1506  0.5209
14410TIP3    H264722   5.883   6.242   1.832  0.7734  0.8381 -2.9726
14411TIP3   OH264723   4.641   0.674   3.290 -0.0059 -0.0996 -0.1748
14411TIP3    H164724   4.690   0.753   3.313 -0.8437 -0.0066  1.3059
14411TIP3    H264725   4.569   0.705   3.236  0.7886 -0.0862 -1.2434
14412TIP3   OH264726   2.484   1.848  16.424  0.0864 -0.1166  0.2101
14412TIP3    H164727   2.459   1.792  16.351 -1.4588 -0.6521  1.1266
14412TIP3    H264728   2.535   1.791  16.481  0.3810  0.0089  0.0702
14413TIP3   OH264729   5.572   4.937   4.373  0.1951  0.3907 -0.0883
14413TIP3    H164730   5.527   4.999   4.430  2.4439  0.6792  1.3969
14413TIP3    H264731   5.659   4.928   4.410  1.1269 -0.7886 -2.4688
14414TIP3   OH264732   1.832   4.406  12.940 -0.3408 -0.3756  0.0377
14414TIP3    H164733   1.887   4.337  12.977 -0.1210  0.5900  1.5418
14414TIP3    H264734   1.748   4.396  12.983 -1.1216 -1.3422 -1.6725
14415TIP3   OH264735   3.758   0.438   2.734  0.5552  0.7915  0.5668
14415TIP3    H164736   3.715   0.377   2.674  1.1918 -0.5449  1.4617
14415TIP3    H264737   3.823   0.483   2.680 -1.7119  2.6572 -0.7512
14416TIP3   OH264738   0.357   0.263  15.347  0.2996 -0.1090  0.0840
14416TIP3    H164739   0.411   0.184  15.337  1.7187  0.0510  5.4412
14416TIP3    H264740   0.277   0.231  15.390  1.0450  1.3902  2.6247
14417TIP3   OH264741   3.009   3.778   0.150 -0.7698 -0.6766 -0.8406
14417TIP3    H164742   2.972   3.724   0.219 -0.3822 -0.4703 -0.4661
14417TIP3    H264743   3.080   3.726   0.113  1.8520  0.8746  1.7920
14418TIP3   OH264744   0.611   0.308   2.286 -0.0259  0.2001 -0.1049
14418TIP3    H164745   0.662   0.253   2.347 -0.0057  0.4374  0.0934
14418TIP3    H264746   0.675   0.369   2.250  0.1611 -0.5816 -1.1179
14419TIP3   OH264747   4.819   1.256  16.515  0.2099 -0.5914 -0.6238
14419TIP3    H164748   4.777   1.340  16.499 -0.7032 -1.2685 -1.8604
14419TIP3    H264749   4.811   1.243  16.610 -1.1862 -0.0894 -0.6628
14420TIP3   OH264750   3.360   4.048   1.032 -0.2978  0.4624 -0.1733
14420TIP3    H164751   3.277   4.095   1.039  0.3521  1.6331 -0.2422
14420TIP3    H264752   3.344   3.981   0.965 -0.2281  2.8020 -2.5972
14421TIP3   OH264753   5.316   1.471   4.116  0.4897 -0.1577  0.4658
14421TIP3    H164754   5.331   1.520   4.197 -2.1546  3.1529 -0.9434
14421TIP3    H264755   5.234   1.425   4.131 -0.3769  1.0254 -0.5512
14422TIP3   OH264756   5.654   6.055   1.593  0.2549  0.1839  0.2598
14422TIP3    H164757   5.629   6.070   1.685  1.7030 -0.7735  0.8313
14422TIP3    H264758   5.664   5.960   1.586  3.0476  0.4705 -0.0764
14423TIP3   OH264759   5.704   1.449   5.080  0.1540 -0.6068  0.3169
14423TIP3    H164760   5.771   1.402   5.129  0.0775 -1.5158 -0.4357
14423TIP3    H264761   5.668   1.511   5.143  0.7090 -1.1076  1.1412
14424TIP3   OH264762   1.724   6.517  13.686 -0.8730 -0.2147  0.2231
14424TIP3    H164763   1.779   6.518  13.765 -2.1722  0.0485  1.1423
14424TIP3    H264764   1.638   6.492  13.718 -1.1167 -1.4221 -1.3341
14425TIP3   OH264765   1.095   0.183   4.116 -0.2299  0.1265  0.1125
14425TIP3    H164766   1.170   0.227   4.156 -0.4963  0.8577 -0.1753
14425TIP3    H264767   1.116   0.090   4.121 -0.4606  0.1654  2.3471
14426TIP3   OH264768   2.219   3.084  14.938  0.3134  0.4995  0.0274
14426TIP3    H164769   2.179   3.158  14.984  1.8069  1.3746 -0.0624
14426TIP3    H264770   2.234   3.116  14.849  0.0438 -0.2549 -0.2983
14427TIP3   OH264771   4.061   3.218   4.403  0.4375 -0.8388 -0.1238
14427TIP3    H164772   4.001   3.179   4.466  0.4410 -0.2394  0.2581
14427TIP3    H264773   4.005   3.243   4.329 -0.0661  1.1603  0.8899
14428TIP3   OH264774   1.647   3.532  11.753  0.2757 -0.5304 -0.5324
14428TIP3    H164775   1.570   3.490  11.790  2.6397 -1.5955  3.5163
14428TIP3    H264776   1.686   3.465  11.697  0.4419 -1.4348  0.6508
14429TIP3   OH264777   1.517   6.638   3.341  0.0900 -0.4744  0.2151
14429TIP3    H164778   1.486   6.714   3.291 -0.6726 -0.8963  0.0226
14429TIP3    H264779   1.467   6.564   3.304 -0.2603 -0.8384  1.3953
14430TIP3   OH264780   0.557   3.942  10.764  0.5712 -0.0972  0.2204
14430TIP3    H164781   0.615   3.866  10.774  0.5092 -0.3270 -1.1379
14430TIP3    H264782   0.490   3.913  10.703  0.1423  0.8289  0.2524
14431TIP3   OH264783   3.006   0.917  16.722 -0.8908  0.1217  0.1212
14431TIP3    H164784   3.067   0.872  16.781 -0.6463 -0.1164 -0.3137
14431TIP3    H264785   3.006   1.007  16.754  1.4680  0.6737 -1.2553
14432TIP3   OH264786   6.448   6.778  12.788 -0.2712  0.0351 -0.0669
14432TIP3    H164787   6.431   6.737  12.703  1.9963  0.7991 -0.9305
14432TIP3    H264788   6.460   6.871  12.769  0.5844  0.1690  1.0354
14433TIP3   OH264789   0.056   4.764   3.677  0.6724  0.1804  0.8646
14433TIP3    H164790  -0.003   4.828   3.636 -0.1280 -0.6783  0.6658
14433TIP3    H264791   0.137   4.770   3.625  0.7564  1.3277  1.1115
14434TIP3   OH264792   6.233   1.940   4.273  0.0480 -0.0922 -0.0928
14434TIP3    H164793   6.328   1.933   4.276  0.0694  0.7583  1.5449
14434TIP3    H264794   6.217   2.032   4.253 -0.4387 -0.1732 -0.0758
14435TIP3   OH264795   0.784   3.356   1.787  0.0100  0.3980 -0.1708
14435TIP3    H164796   0.799   3.430   1.727 -0.0444 -0.0822 -0.7853
14435TIP3    H264797   0.723   3.390   1.852  1.0427  1.3102  0.3372
14436TIP3   OH264798   6.478   4.816   1.959 -0.1239  0.0610 -0.0024
14436TIP3    H164799   6.461   4.722   1.956  1.8202 -0.2954 -0.4046
14436TIP3    H264800   6.424   4.848   2.031 -0.3987 -1.4407  0.4754
14437TIP3   OH264801   4.169   4.649  17.063  0.0416 -0.0566  0.0127
14437TIP3    H164802   4.215   4.585  17.117 -0.9803 -0.7243  0.1073
14437TIP3    H264803   4.172   4.612  16.975  0.8738  0.5673 -0.2276
14438TIP3   OH264804   3.317   4.927   4.789  0.3472 -0.2602 -0.3631
14438TIP3    H164805   3.312   4.835   4.763  0.2213 -0.0017 -1.2981
14438TIP3    H264806   3.378   4.966   4.727 -1.1000  0.6908 -1.2248
14439TIP3   OH264807   5.094   1.667   2.746 -0.0683  0.2909 -0.3398
14439TIP3    H164808   5.066   1.629   2.830 -0.0176 -0.5483 -0.7019
14439TIP3    H264809   5.181   1.702   2.764 -1.2657  2.8443  0.7742
14440TIP3   OH264810   3.875   4.903  15.257 -0.0046  0.3045  0.0204
14440TIP3    H164811   3.817   4.876  15.186  0.4929 -0.8948  0.0489
14440TIP3    H264812   3.927   4.824  15.276  2.1113  1.5280 -0.4946
14441TIP3   OH264813   1.413   2.670   2.929 -0.7017  0.2330  0.0821
14441TIP3    H164814   1.431   2.583   2.893  0.8918  0.9372 -0.8993
14441TIP3    H264815   1.447   2.666   3.018 -1.7048 -0.5105  0.4392
14442TIP3   OH264816   5.461   2.717  11.648 -0.3482 -0.3852  0.8946
14442TIP3    H164817   5.414   2.653  11.595 -1.3018 -0.1276  1.4333
14442TIP3    H264818   5.525   2.665  11.697  0.0600 -0.7080  0.0307
14443TIP3   OH264819   0.351   1.370  14.882  0.6435  0.0525 -0.3518
14443TIP3    H164820   0.406   1.429  14.933 -1.2771  2.3900 -0.9161
14443TIP3    H264821   0.339   1.414  14.798  0.0683 -1.6653 -1.2071
14444TIP3   OH264822   6.586   0.603  15.327 -0.1279 -0.2549  0.1694
14444TIP3    H164823   6.580   0.544  15.252  0.4908  0.1044 -0.1707
14444TIP3    H264824   6.584   0.691  15.289 -0.5144 -0.0609  0.6319
14445TIP3   OH264825   1.994   3.343   5.787  0.3027 -1.0142  0.8337
14445TIP3    H164826   1.973   3.396   5.710  2.7775 -3.3301 -1.5447
14445TIP3    H264827   1.930   3.271   5.785  1.0005 -1.6241  0.3590
14446TIP3   OH264828   5.093   3.257   4.660 -0.1488 -0.3423  0.2430
14446TIP3    H164829   5.081   3.226   4.750  1.2350 -1.1302  0.1711
14446TIP3    H264830   5.032   3.204   4.608  0.4398 -1.2566  0.4616
14447TIP3   OH264831   6.405   0.969  14.877 -0.1395  0.3377  0.5543
14447TIP3    H164832   6.487   0.927  14.901  0.4132  1.1729  0.1762
14447TIP3    H264833   6.337   0.913  14.913  0.6027 -0.3118  0.9503
14448TIP3   OH264834   4.303   1.757   2.368  0.5209  0.1460  0.1301
14448TIP3    H164835   4.230   1.816   2.383  0.5051  0.3789 -0.8907
14448TIP3    H264836   4.328   1.771   2.277  0.0019 -1.9917 -0.3755
14449TIP3   OH264837   6.130   2.967   4.822  0.6094 -0.2624 -0.5249
14449TIP3    H164838   6.123   2.929   4.735 -1.3211 -1.1966  0.0245
14449TIP3    H264839   6.101   2.898   4.882 -1.3225  1.4772  0.6135
14450TIP3   OH264840   4.920   1.735   0.153  0.2842  0.0859 -0.8419
14450TIP3    H164841   4.998   1.716   0.205 -0.9261  0.9830  1.3378
14450TIP3    H264842   4.882   1.648   0.134  1.6530 -0.3342 -1.7116
14451TIP3   OH264843   5.124   4.634  14.650  0.0804 -0.4770 -0.1973
14451TIP3    H164844   5.140   4.561  14.710  1.8673  0.9113  1.0718
14451TIP3    H264845   5.178   4.706  14.684  4.0524 -0.6515 -5.4191
14452TIP3   OH264846   5.226   5.639   4.355  0.5641  0.4984 -0.6848
14452TIP3    H164847   5.229   5.727   4.392 -1.9303  1.2720 -2.1975
14452TIP3    H264848   5.147   5.639   4.301  0.5534 -2.6781 -0.7221
14453TIP3   OH264849   6.019   2.818   4.277 -0.2843 -0.5155  0.9642
14453TIP3    H164850   5.955   2.823   4.206  0.4548 -4.4081 -0.1304
14453TIP3    H264851   6.100   2.854   4.240 -0.2465 -1.3449  0.2074
14454TIP3   OH264852   0.664   0.843  14.718  0.1933  0.3728 -0.8507
14454TIP3    H164853   0.673   0.936  14.741 -0.2713  0.0952  0.5400
14454TIP3    H264854   0.668   0.841  14.623 -0.8607  1.9574 -0.9554
14455TIP3   OH264855   6.537   6.569   5.501  0.0168 -0.5916  0.8241
14455TIP3    H164856   6.517   6.477   5.484  0.3662 -0.4742 -0.2747
14455TIP3    H264857   6.632   6.575   5.494 -0.0306 -0.0905  0.5556
14456TIP3   OH264858   5.292   1.286   3.191  0.3334 -0.6684  0.0280
14456TIP3    H164859   5.325   1.224   3.256 -0.1760 -0.1074  0.8318
14456TIP3    H264860   5.216   1.242   3.153  0.2264 -0.7210  0.2982
14457TIP3   OH264861   4.542   0.036  13.544  0.5239  0.0826  0.0802
14457TIP3    H164862   4.512   0.017  13.455 -2.9914  2.1629  0.7147
14457TIP3    H264863   4.475  -0.001  13.601  1.9119  0.1593  1.7989
14458TIP3   OH264864   0.452   0.370   6.007  0.3289  0.2847  0.5413
14458TIP3    H164865   0.533   0.355   5.957 -0.5262 -2.4133 -0.0938
14458TIP3    H264866   0.483   0.404   6.091  1.9969  1.2829 -0.4336
14459TIP3   OH264867   0.873   6.384  14.340 -0.0965 -0.0638 -0.5242
14459TIP3    H164868   0.888   6.394  14.246 -0.6583 -1.1255 -0.7345
14459TIP3    H264869   0.960   6.366  14.376  0.0275 -0.2862 -0.9316
14460TIP3   OH264870   2.906   5.562  12.788 -0.1144  0.1211  0.2036
14460TIP3    H164871   2.912   5.580  12.882  1.3281  0.0934  0.1250
14460TIP3    H264872   2.974   5.497  12.772 -0.1846  0.3139 -0.9013
14461TIP3   OH264873   1.339   0.978   1.535  0.6592 -0.0592 -0.2184
14461TIP3    H164874   1.309   0.919   1.603 -1.2746  0.3747 -0.6749
14461TIP3    H264875   1.432   0.958   1.525  1.0205  0.0074  2.6547
14462TIP3   OH264876   5.121   1.635   0.327  0.3228  0.0699  0.0393
14462TIP3    H164877   5.183   1.704   0.350  0.3827  0.4397 -1.1873
14462TIP3    H264878   5.083   1.608   0.410  0.0125  1.8578  0.4954
14463TIP3   OH264879   4.061   4.612   0.491 -0.4956  0.0349 -0.1830
14463TIP3    H164880   4.024   4.605   0.403  1.4690 -0.5735 -0.9740
14463TIP3    H264881   4.021   4.539   0.539 -1.2996  0.1546 -0.6448
14464TIP3   OH264882   2.676   1.354   1.537  0.1660 -0.0205  0.5356
14464TIP3    H164883   2.733   1.398   1.474 -1.4783  0.2978 -0.7521
14464TIP3    H264884   2.648   1.274   1.493 -0.7821  0.0727  0.9559
14465TIP3   OH264885   5.310   5.563  13.911 -0.4159  0.7946 -0.2439
14465TIP3    H164886   5.333   5.656  13.915 -2.3216  1.3373 -1.4639
14465TIP3    H264887   5.370   5.527  13.845 -0.2886  1.3347 -0.4228
14466TIP3   OH264888   1.717   6.499  10.574  0.0069 -0.1157 -0.0198
14466TIP3    H164889   1.640   6.542  10.536 -0.2463  0.6343  1.3060
14466TIP3    H264890   1.791   6.535  10.525 -0.3272  0.6937  0.0694
14467TIP3   OH264891   6.503   6.746   0.480  0.0412 -0.2272  0.3829
14467TIP3    H164892   6.561   6.813   0.516 -1.4357  0.8414  0.7664
14467TIP3    H264893   6.486   6.775   0.390 -0.4886 -0.1530  0.5062
14468TIP3   OH264894   6.386   2.622   5.225 -0.7003  0.2295 -0.1857
14468TIP3    H164895   6.394   2.659   5.313 -0.6083  0.1069 -0.1415
14468TIP3    H264896   6.334   2.542   5.238 -1.2562  0.5660 -0.3421
14469TIP3   OH264897   2.688   3.540   3.698  0.5970 -0.2009  0.5408
14469TIP3    H164898   2.729   3.572   3.778 -0.7642  2.2279  0.3183
14469TIP3    H264899   2.601   3.511   3.726  0.6526 -0.6959  0.1932
14470TIP3   OH264900   6.096   4.119  11.097  0.1756 -0.0065  0.1963
14470TIP3    H164901   6.158   4.178  11.056  1.5351 -0.9706  0.8289
14470TIP3    H264902   6.145   4.038  11.111 -1.1229 -0.6810  0.9967
14471TIP3   OH264903   2.726   1.619  15.967  0.2704 -0.3085  0.1699
14471TIP3    H164904   2.650   1.672  15.943  0.9271  0.5236 -0.0956
14471TIP3    H264905   2.701   1.577  16.049  0.1557  1.3177  0.9909
14472TIP3   OH264906   6.290   4.455   5.368  0.2796  0.5523  0.6416
14472TIP3    H164907   6.268   4.381   5.425  0.1911 -0.6120 -0.8618
14472TIP3    H264908   6.384   4.447   5.353  0.1976  0.4993  0.1422
14473TIP3   OH264909   3.710   6.300   0.744  0.3365 -0.5469 -0.0609
14473TIP3    H164910   3.656   6.257   0.809  3.6448 -2.5650  1.4653
14473TIP3    H264911   3.726   6.233   0.677 -0.1164  0.4249 -1.1571
14474TIP3   OH264912   1.080   0.708  10.917  0.0197  0.0166  0.0312
14474TIP3    H164913   1.061   0.616  10.898 -1.6714  0.2386  0.5116
14474TIP3    H264914   1.023   0.756  10.858  2.2769  0.7993 -1.5656
14475TIP3   OH264915   1.584   3.033  14.063  0.2418  0.4600  0.3481
14475TIP3    H164916   1.537   3.027  14.146 -0.7809 -0.4923 -0.2932
14475TIP3    H264917   1.638   2.954  14.060 -0.0766  0.2565 -0.1051
14476TIP3   OH264918   5.205   0.368   0.751  1.0268 -0.1717  0.3856
14476TIP3    H164919   5.161   0.290   0.716  0.6897  0.5827 -0.9281
14476TIP3    H264920   5.134   0.427   0.774  1.3068  0.2981  0.0585
14477TIP3   OH264921   1.355   2.598  16.431  0.4863 -0.2741 -0.3127
14477TIP3    H164922   1.446   2.570  16.423  0.4361 -0.1219 -1.5295
14477TIP3    H264923   1.348   2.675  16.375 -0.2635  0.0471  0.2045
14478TIP3   OH264924   6.125   2.080   1.207  0.2806 -0.3387 -0.0296
14478TIP3    H164925   6.108   2.002   1.259  0.8250  0.6590  1.6631
14478TIP3    H264926   6.185   2.132   1.260  0.3143  1.0061 -1.3624
14479TIP3   OH264927   4.445   4.777  13.420  0.5152  0.1918  0.0368
14479TIP3    H164928   4.366   4.817  13.457 -0.1363  0.1796 -1.3053
14479TIP3    H264929   4.420   4.753  13.331  1.7816 -0.5993 -0.1158
14480TIP3   OH264930   2.726   4.172   5.793  0.0148 -0.2343  0.4719
14480TIP3    H164931   2.649   4.210   5.836  0.1489  0.9142 -0.2823
14480TIP3    H264932   2.702   4.081   5.776 -1.9178  0.6010 -1.4827
14481TIP3   OH264933   4.999   4.199  10.230  0.1877  0.4569  0.3461
14481TIP3    H164934   5.000   4.117  10.279 -1.1812 -0.3027 -0.8479
14481TIP3    H264935   5.073   4.191  10.169  0.2240  0.2145  0.4203
14482TIP3   OH264936   2.279   2.485  14.011  0.9564 -0.5612 -0.1897
14482TIP3    H164937   2.261   2.577  13.990  1.6402 -0.2742  0.4425
14482TIP3    H264938   2.280   2.441  13.927 -0.3190 -0.1634 -0.4296
14483TIP3   OH264939   5.545   1.834  12.621  0.1271 -0.1209  0.5560
14483TIP3    H164940   5.454   1.824  12.593  0.4229 -0.9928 -0.1528
14483TIP3    H264941   5.560   1.929  12.623 -0.2645 -0.0054 -1.1379
14484TIP3   OH264942   4.741   0.432  15.015 -0.8689 -0.1886 -0.5504
14484TIP3    H164943   4.687   0.412  14.938 -3.8395 -1.1589  1.7101
14484TIP3    H264944   4.778   0.348  15.041 -1.1342 -0.1317  0.0087
14485TIP3   OH264945   0.447   3.530   1.699 -0.1818  0.1609  0.2296
14485TIP3    H164946   0.489   3.451   1.664 -0.9263 -0.9355  1.7562
14485TIP3    H264947   0.520   3.590   1.717  0.2415  0.6656 -2.8883
14486TIP3   OH264948   2.141   2.768   5.790  0.2873 -0.2357 -0.2984
14486TIP3    H164949   2.174   2.855   5.813  0.6010 -0.0417 -1.4359
14486TIP3    H264950   2.153   2.762   5.695 -0.2094 -1.3230 -0.3049
14487TIP3   OH264951   5.360   0.186   3.560  0.0714  1.0307  0.5335
14487TIP3    H164952   5.269   0.174   3.590 -0.5804 -0.1697 -1.7893
14487TIP3    H264953   5.413   0.139   3.624 -1.0699  0.6890  1.2400
14488TIP3   OH264954   4.350   3.300  16.278 -0.5083 -0.1170 -0.1509
14488TIP3    H164955   4.442   3.276  16.268 -0.8371 -1.2636 -0.4878
14488TIP3    H264956   4.324   3.331  16.192 -1.0977 -2.1676 -0.7467
14489TIP3   OH264957   1.155   3.448  11.030 -0.1076  0.4226 -0.0806
14489TIP3    H164958   1.087   3.468  11.094  0.9987  0.9380  0.9436
14489TIP3    H264959   1.111   3.392  10.965 -1.1400 -0.4334  1.3276
14490TIP3   OH264960   3.546   1.042   4.217  0.1870  0.0739  0.4015
14490TIP3    H164961   3.503   1.049   4.132  1.5688  1.7403 -0.1915
14490TIP3    H264962   3.534   1.128   4.258 -0.5308 -0.7369  1.9271
14491TIP3   OH264963   2.571   0.074  13.522 -0.0804  0.2673 -0.7260
14491TIP3    H164964   2.589  -0.018  13.501  2.6265  0.6239 -0.0709
14491TIP3    H264965   2.492   0.071  13.576 -0.0941 -1.6661 -0.8145
14492TIP3   OH264966   3.235   5.858  15.010 -0.8344 -0.2561  0.4598
14492TIP3    H164967   3.162   5.915  14.986  1.3567  1.7905 -1.5788
14492TIP3    H264968   3.219   5.836  15.102 -1.6902  3.7119  1.3323
14493TIP3   OH264969   0.136   5.021   0.392 -0.8745 -0.8338  0.0569
14493TIP3    H164970   0.178   4.935   0.395  0.1875 -0.3558 -0.5018
14493TIP3    H264971   0.127   5.046   0.483  0.6975 -0.6637  0.1820
14494TIP3   OH264972   4.659   0.153  13.977 -0.4260 -0.0353  0.3408
14494TIP3    H164973   4.707   0.177  14.056  0.4355  2.1316 -0.7806
14494TIP3    H264974   4.574   0.197  13.987  0.3347  1.7346 -0.7039
14495TIP3   OH264975   1.030   6.738   4.007 -0.2093  0.3237  0.2083
14495TIP3    H164976   1.068   6.650   4.012 -1.1367 -0.0407  0.9145
14495TIP3    H264977   1.082   6.782   3.940  1.1619 -0.3146  0.8272
14496TIP3   OH264978   2.794   0.004   4.061 -0.2570  0.0321 -0.0368
14496TIP3    H164979   2.775  -0.089   4.074  0.9474 -0.0713  1.0728
14496TIP3    H264980   2.888   0.008   4.042 -0.2569  1.0350  0.1083
14497TIP3   OH264981   6.185   3.524  12.037 -0.1119 -0.1379  0.0988
14497TIP3    H164982   6.122   3.590  12.066  0.5850  0.5071  0.1548
14497TIP3    H264983   6.197   3.541  11.944 -1.9748 -1.8986 -0.5015
14498TIP3   OH264984   4.942   1.449   1.149  0.2522 -0.2446  0.5254
14498TIP3    H164985   4.958   1.505   1.073 -0.2672 -0.3154  0.3603
14498TIP3    H264986   4.849   1.429   1.145  0.3104 -0.6129  0.9345
14499TIP3   OH264987   2.852   1.954   4.200 -0.1585  0.0360  0.8421
14499TIP3    H164988   2.945   1.944   4.181 -0.2351 -1.2310  1.0896
14499TIP3    H264989   2.808   1.907   4.129 -0.6940  2.6394 -0.6066
14500TIP3   OH264990   0.655   0.585   0.582 -0.0793 -0.4768 -0.1530
14500TIP3    H164991   0.713   0.624   0.517 -0.2465  2.9115  1.6513
14500TIP3    H264992   0.567   0.602   0.550 -0.1465 -0.8347 -0.1657
14501TIP3   OH264993   5.749   3.384   1.054 -0.7827 -0.1286 -0.1338
14501TIP3    H164994   5.675   3.350   1.103 -1.1633  0.3070 -0.3962
14501TIP3    H264995   5.821   3.386   1.116 -1.0740 -0.2656  0.2062
14502TIP3   OH264996   5.041   1.681  16.239  0.0658 -0.5853  0.2572
14502TIP3    H164997   5.083   1.691  16.324  1.3866 -2.7781 -0.0844
14502TIP3    H264998   5.102   1.627  16.188 -1.1064 -0.0520 -1.7732
14503TIP3   OH264999   4.369   4.323   5.987  0.9663  0.7745  0.2407
14503TIP3    H165000   4.285   4.328   5.941  1.0822  0.8737  0.0389
14503TIP3    H265001   4.351   4.360   6.073  1.2532  2.5608 -0.4389
14504TIP3   OH265002   0.322   0.360  14.907  0.1110  0.0578 -0.8512
14504TIP3    H165003   0.350   0.439  14.862  0.1165  0.0246 -0.9069
14504TIP3    H265004   0.271   0.391  14.982  1.1257  0.1362 -0.1944
14505TIP3   OH265005   1.460   5.608   2.458  0.4975 -0.0435 -0.5297
14505TIP3    H165006   1.478   5.649   2.543 -1.7656 -0.9918  0.4380
14505TIP3    H265007   1.431   5.681   2.403  0.3231  0.2994  0.0084
14506TIP3   OH265008   2.684   6.703  15.447 -0.3598  0.3513  0.1029
14506TIP3    H165009   2.729   6.787  15.446 -1.1656  0.7902 -0.7030
14506TIP3    H265010   2.656   6.691  15.538  2.1273 -0.3580  0.8070
14507TIP3   OH265011   4.243   1.195   0.556 -0.5361  0.1434 -0.1351
14507TIP3    H165012   4.324   1.145   0.541 -0.7843 -0.4005  0.3136
14507TIP3    H265013   4.196   1.189   0.473 -0.4829 -0.2212 -0.1415
14508TIP3   OH265014   2.412   2.193  11.119 -0.2179 -0.0294  0.2339
14508TIP3    H165015   2.322   2.224  11.127 -0.3044  0.1012 -1.1230
14508TIP3    H265016   2.404   2.105  11.082  0.2054 -0.0874  0.2786
14509TIP3   OH265017   4.749   0.277   5.207 -0.3408 -0.3612 -0.5178
14509TIP3    H165018   4.686   0.245   5.271  1.1344  0.0673  1.1829
14509TIP3    H265019   4.738   0.372   5.208  0.0178 -0.3179 -0.5476
14510TIP3   OH265020   6.195   1.706   6.046  0.0791 -0.2704  0.4076
14510TIP3    H165021   6.204   1.719   6.140  0.5379 -1.5097  0.5397
14510TIP3    H265022   6.140   1.628   6.038 -0.5853  0.2678 -0.3571
14511TIP3   OH265023   5.464   1.188   2.252  0.3019  0.8655  0.4867
14511TIP3    H165024   5.433   1.277   2.270 -0.5928  0.8978 -1.0996
14511TIP3    H265025   5.403   1.154   2.187 -1.6220 -2.2582  3.7120
14512TIP3   OH265026   0.914   0.714   2.614 -0.0020 -0.0534  0.4378
14512TIP3    H165027   0.832   0.743   2.577 -1.2288 -2.1321  1.4065
14512TIP3    H265028   0.957   0.664   2.544 -0.4128 -0.4868  0.4916
14513TIP3   OH265029   3.555   3.334  12.956  0.1058  0.0531 -0.0669
14513TIP3    H165030   3.634   3.302  12.998  1.4829  2.6013 -0.5828
14513TIP3    H265031   3.562   3.304  12.865  0.1821 -0.2315  0.0322
14514TIP3   OH265032   5.413   4.619   4.899 -0.0573  0.1997  0.1295
14514TIP3    H165033   5.345   4.566   4.940 -0.6691  0.8658 -0.0033
14514TIP3    H265034   5.491   4.603   4.952 -1.0620  1.7701  2.1560
14515TIP3   OH265035   3.021   5.472   3.539  0.4515 -0.4153 -0.8737
14515TIP3    H165036   2.944   5.509   3.495 -0.9454 -1.1642  0.8991
14515TIP3    H265037   3.095   5.508   3.491 -1.0029  0.3617 -2.5834
14516TIP3   OH265038   6.397   3.730   0.346  0.4435  0.2034  0.2504
14516TIP3    H165039   6.355   3.749   0.429  0.3596  3.0807 -0.3967
14516TIP3    H265040   6.491   3.738   0.363  0.4761 -0.2563  0.3006
14517TIP3   OH265041   4.898   3.474  13.487  0.1170  0.4172  0.4159
14517TIP3    H165042   4.947   3.472  13.569 -0.1218 -1.1054  0.5308
14517TIP3    H265043   4.896   3.383  13.458 -0.1749  0.8853 -1.0580
14518TIP3   OH265044   6.399   2.381  13.872 -0.3025 -0.0594 -0.0614
14518TIP3    H165045   6.460   2.314  13.902 -1.7823 -0.8910  1.1949
14518TIP3    H265046   6.424   2.398  13.781  1.5577 -0.6169  0.3105
14519TIP3   OH265047   2.675   4.878   5.324 -0.2852 -0.9599 -0.2333
14519TIP3    H165048   2.644   4.833   5.403  0.6059 -0.1419  0.6057
14519TIP3    H265049   2.666   4.971   5.345  1.2504 -0.7206 -0.5561
14520TIP3   OH265050   2.943   3.097  15.034 -0.1235  0.3085 -0.3851
14520TIP3    H165051   3.035   3.087  15.010 -0.1628 -0.6143 -0.1419
14520TIP3    H265052   2.930   3.192  15.037  0.4363  0.4424 -1.8402
14521TIP3   OH265053   3.587   1.296   1.600  0.2041  0.4912  0.8659
14521TIP3    H165054   3.545   1.213   1.622 -1.9582  1.3609  0.1081
14521TIP3    H265055   3.515   1.358   1.592  1.8131  2.5135  1.6550
14522TIP3   OH265056   5.045   5.956   4.682  0.1561  0.8944  0.6660
14522TIP3    H165057   5.064   6.036   4.730  0.9405  1.0035  0.1806
14522TIP3    H265058   4.949   5.953   4.678  0.1229  2.3783 -0.2257
14523TIP3   OH265059   6.130   5.934   3.691 -0.1469  0.0282 -0.2330
14523TIP3    H165060   6.081   5.904   3.767  0.7535 -0.4225  0.1808
14523TIP3    H265061   6.063   5.957   3.627 -0.8994 -2.2560 -0.3294
14524TIP3   OH265062   2.465   5.953   3.962 -0.3207 -0.3955 -0.2387
14524TIP3    H165063   2.512   5.993   4.035 -2.1550 -1.3049  1.4856
14524TIP3    H265064   2.411   6.023   3.926  0.1194 -0.1020 -0.3297
14525TIP3   OH265065   4.290   3.739  11.861  0.6162  0.1144  0.7540
14525TIP3    H165066   4.283   3.650  11.827  1.8910  0.8128 -1.4462
14525TIP3    H265067   4.201   3.762  11.888  0.1953 -1.6282  0.8928
14526TIP3   OH265068   1.285   2.236   1.359 -0.6141  0.5953 -0.5710
14526TIP3    H165069   1.252   2.174   1.425 -0.4586  1.7948  0.6514
14526TIP3    H265070   1.212   2.296   1.344 -0.3404  0.8620 -0.8336
14527TIP3   OH265071   3.086   0.978  12.774  0.1770  0.0290 -0.2171
14527TIP3    H165072   3.001   1.008  12.806  1.2867  1.4314  1.5296
14527TIP3    H265073   3.146   0.995  12.846  2.2558  0.5863 -2.0158
14528TIP3   OH265074   0.096   4.155   0.895 -0.3045 -0.7232  0.2370
14528TIP3    H165075   0.005   4.164   0.866 -0.2810 -2.0261 -0.2709
14528TIP3    H265076   0.089   4.107   0.978 -0.2815  1.8753  1.7974
14529TIP3   OH265077   3.701   4.827   2.640 -0.4017  0.5348  0.5490
14529TIP3    H165078   3.608   4.843   2.622 -0.7175 -1.0857  0.6361
14529TIP3    H265079   3.732   4.909   2.678 -1.6599  1.2873  0.0121
14530TIP3   OH265080   4.868   3.344  16.409 -0.1909 -0.2695 -0.0826
14530TIP3    H165081   4.879   3.274  16.473  1.5244 -0.3693 -0.4371
14530TIP3    H265082   4.925   3.319  16.337 -0.8281  0.6733 -0.9261
14531TIP3   OH265083   3.958   4.850  10.927  0.1580 -0.1877  0.4520
14531TIP3    H165084   4.007   4.929  10.947 -0.1584  0.5982 -1.6853
14531TIP3    H265085   4.025   4.782  10.917  0.4102 -0.2919  2.5876
14532TIP3   OH265086   2.095   6.068   0.660  0.0008  0.2396 -0.2513
14532TIP3    H165087   2.143   6.080   0.578  0.5557  1.3063  0.2250
14532TIP3    H265088   2.059   6.154   0.680 -0.9476 -0.2353  0.1371
14533TIP3   OH265089   0.821   5.532   0.786  0.0418  0.3915  0.3294
14533TIP3    H165090   0.747   5.587   0.759 -1.6570 -0.9113  2.1522
14533TIP3    H265091   0.858   5.576   0.862 -0.1581 -0.0090  0.6621
14534TIP3   OH265092   6.603   4.040   1.135 -0.4834  0.4930 -0.2462
14534TIP3    H165093   6.588   4.126   1.097  0.3648  0.1598 -1.3415
14534TIP3    H265094   6.521   3.993   1.120  0.2503 -0.0428 -2.7869
14535TIP3   OH265095   0.941   5.301  10.352  0.0819 -0.7885  0.6005
14535TIP3    H165096   1.009   5.298  10.419  1.6995 -2.4087 -1.0252
14535TIP3    H265097   0.861   5.271  10.397  1.4172 -3.1386  1.5030
14536TIP3   OH265098   6.294   5.499  10.902 -0.6681  0.0250 -0.0402
14536TIP3    H165099   6.316   5.592  10.893  0.3303 -0.4091 -2.5430
14536TIP3    H265100   6.209   5.491  10.858 -0.1816 -0.4486 -0.9060
14537TIP3   OH265101   0.981   5.969   4.746  0.6483  0.4396 -0.3405
14537TIP3    H165102   1.001   5.890   4.696  0.9721  1.7829 -2.3986
14537TIP3    H265103   0.888   5.961   4.768  0.4832 -0.1294 -1.2405
14538TIP3   OH265104   6.676   0.375  14.542 -0.3453 -0.4321 -0.5569
14538TIP3    H165105   6.603   0.315  14.530 -0.8221 -0.0936  0.5805
14538TIP3    H265106   6.746   0.320  14.579 -1.7640  0.2570  3.3684
14539TIP3   OH265107   1.934   5.626   4.257 -0.0499  0.3721  0.1787
14539TIP3    H165108   1.965   5.558   4.316  0.3089  0.4310  0.0620
14539TIP3    H265109   1.859   5.588   4.213  0.6596 -0.2541 -0.5032
14540TIP3   OH265110   4.678   3.294  12.342  0.2797 -0.3625  0.7364
14540TIP3    H165111   4.674   3.287  12.438  0.3668  2.2216  0.9612
14540TIP3    H265112   4.770   3.314  12.324  0.4330 -1.6299  0.0143
14541TIP3   OH265113   0.278   3.124   1.621 -0.0437  0.3131 -0.7126
14541TIP3    H165114   0.353   3.082   1.663  1.1022  2.4171 -0.5751
14541TIP3    H265115   0.317   3.193   1.566 -1.8536  1.2740 -0.8305
14542TIP3   OH265116   0.981   4.204  13.236 -0.4913 -0.3753 -0.6004
14542TIP3    H165117   1.018   4.116  13.231 -0.4152 -0.3765 -0.0045
14542TIP3    H265118   0.967   4.229  13.145 -0.1525 -0.8540 -0.7859
14543TIP3   OH265119   1.225   1.430  11.327 -0.3130 -0.1176  0.3816
14543TIP3    H165120   1.154   1.436  11.263  0.7033  0.5997 -0.7133
14543TIP3    H265121   1.247   1.337  11.331 -0.1857 -0.1324 -0.5500
14544TIP3   OH265122   6.007   1.063  12.950  0.0288 -0.1149  0.1840
14544TIP3    H165123   6.038   0.982  12.990  0.3950 -0.4794 -0.8379
14544TIP3    H265124   6.084   1.100  12.907 -0.4536  0.0935 -0.4993
14545TIP3   OH265125   4.723   0.491  12.349 -0.5478 -0.0962  0.3650
14545TIP3    H165126   4.691   0.492  12.259 -1.2653  0.3025  0.6186
14545TIP3    H265127   4.669   0.426  12.393  0.2954 -0.8191  0.3315
14546TIP3   OH265128   3.048   6.548   1.395  0.1603 -0.0854  0.0146
14546TIP3    H165129   3.024   6.573   1.484 -2.5060  0.0528 -0.6871
14546TIP3    H265130   3.105   6.619   1.365 -2.3890  2.1144  0.1631
14547TIP3   OH265131   0.958   4.123   4.280 -0.1524 -0.2073 -0.3599
14547TIP3    H165132   0.944   4.045   4.226 -1.3766 -0.2319 -0.0346
14547TIP3    H265133   0.992   4.189   4.220  0.8971 -0.9892 -0.6361
14548TIP3   OH265134   0.564   3.182  16.043  0.6833 -0.2685  0.3344
14548TIP3    H165135   0.616   3.216  16.116  0.2898  0.9290  0.0679
14548TIP3    H265136   0.541   3.092  16.069 -0.2385  0.4579  2.1063
14549TIP3   OH265137   2.439   4.415  15.085 -0.4087  1.2726 -0.0495
14549TIP3    H165138   2.465   4.417  14.992  1.4135 -0.1719  0.3903
14549TIP3    H265139   2.469   4.500  15.119 -0.3189  1.4597 -0.5809
14550TIP3   OH265140   5.243   4.508   3.275 -0.5465  0.2020  0.1200
14550TIP3    H165141   5.179   4.467   3.333 -0.6549 -0.1258 -0.2335
14550TIP3    H265142   5.248   4.599   3.306 -0.4518 -0.0200  0.7723
14551TIP3   OH265143   1.482   1.915  13.879  0.2718 -0.0270  0.0191
14551TIP3    H165144   1.393   1.908  13.916 -0.6526  1.6773 -1.8032
14551TIP3    H265145   1.523   1.984  13.930  0.7076 -1.0639  1.1070
14552TIP3   OH265146   2.185   1.103   4.068  0.2291  0.4747 -0.0797
14552TIP3    H165147   2.223   1.113   4.155  0.5646 -1.1231 -0.0334
14552TIP3    H265148   2.256   1.069   4.014 -0.2784  0.4144 -0.7231
14553TIP3   OH265149   1.958   6.277  10.505 -0.5191  0.1484 -0.4318
14553TIP3    H165150   2.010   6.200  10.529 -0.0345  0.6251  0.0725
14553TIP3    H265151   1.868   6.254  10.527 -0.4679 -0.5214 -0.9021
14554TIP3   OH265152   6.749   2.419   0.079 -0.4527  0.2679 -0.3003
14554TIP3    H165153   6.670   2.436   0.130  0.9022  1.6487  1.4121
14554TIP3    H265154   6.759   2.497   0.024 -0.4718 -0.0388 -0.7320
14555TIP3   OH265155   1.879   0.576   4.853  0.0748 -0.2800  0.7046
14555TIP3    H165156   1.880   0.546   4.944  1.3486  0.1295  0.8446
14555TIP3    H265157   1.888   0.496   4.802 -0.6944 -0.5170  0.9303
14556TIP3   OH265158   6.601   5.613  14.224  0.2946  0.2904  0.0586
14556TIP3    H165159   6.514   5.583  14.249  0.3135  1.3269  1.4404
14556TIP3    H265160   6.598   5.708  14.234  1.6528  0.3172  0.3924
14557TIP3   OH265161   1.912   4.734  14.713 -0.0118  0.2376  0.3965
14557TIP3    H165162   1.829   4.771  14.743 -0.3645 -0.3586  0.1586
14557TIP3    H265163   1.950   4.801  14.657 -0.4388  0.4166  0.3262
14558TIP3   OH265164   0.225   6.359  11.543 -0.4494  0.5644  0.4273
14558TIP3    H165165   0.303   6.356  11.598 -0.5767 -0.9026  0.5500
14558TIP3    H265166   0.259   6.355  11.454 -0.3220  1.3451  0.4370
14559TIP3   OH265167   6.595   3.171  12.425  0.4860  0.3254  0.5417
14559TIP3    H165168   6.534   3.194  12.354 -0.3086  0.0614  1.1336
14559TIP3    H265169   6.562   3.088  12.459  2.3468 -0.8340 -0.4412
14560TIP3   OH265170   4.422   3.076   1.635 -0.3001 -0.3309 -0.0596
14560TIP3    H165171   4.350   3.081   1.699 -2.5973 -1.6177 -2.4486
14560TIP3    H265172   4.465   3.162   1.641 -1.3866  0.1098  2.1114
14561TIP3   OH265173   0.620   5.142  17.254 -0.3990  0.0066 -0.1964
14561TIP3    H165174   0.602   5.092  17.174  0.2695  0.8843 -0.9159
14561TIP3    H265175   0.596   5.084  17.325 -0.0525 -1.1670 -1.0238
14562TIP3   OH265176   5.937   0.376  14.476  0.2811 -0.1526 -0.3319
14562TIP3    H165177   5.989   0.410  14.403 -1.1022  1.1957 -0.7143
14562TIP3    H265178   5.848   0.367  14.440 -0.0605 -1.0605  0.7166
14563TIP3   OH265179   4.560   5.151  15.331  0.1054 -0.3298 -0.2298
14563TIP3    H165180   4.607   5.226  15.368  0.5722 -0.9800  0.5061
14563TIP3    H265181   4.629   5.091  15.304 -0.2973 -1.0935  0.4399
14564TIP3   OH265182   2.094   4.415  14.446  0.4449  0.4334  0.0445
14564TIP3    H165183   2.004   4.443  14.430  0.6552  1.3764  0.5052
14564TIP3    H265184   2.115   4.446  14.534  1.1571  0.0452  0.0227
14565TIP3   OH265185   3.172   4.538   4.830 -0.9023 -0.2508  0.5493
14565TIP3    H165186   3.242   4.599   4.806 -1.8165  1.9317  3.1638
14565TIP3    H265187   3.207   4.451   4.809  1.8396  0.9250  0.0685
14566TIP3   OH265188   4.131   4.821  10.413  0.4394  0.3477  0.2935
14566TIP3    H165189   4.064   4.889  10.417 -0.5328 -0.5473 -0.5242
14566TIP3    H265190   4.084   4.739  10.429  1.4359 -0.2378  0.3040
14567TIP3   OH265191   5.259   6.780   0.500  0.1660  0.3249 -0.3028
14567TIP3    H165192   5.215   6.754   0.419  0.6850 -0.2552 -0.4055
14567TIP3    H265193   5.211   6.857   0.530 -0.2331  0.3488 -0.9912
14568TIP3   OH265194   0.468   2.372  12.951  0.3542 -0.1823  0.4839
14568TIP3    H165195   0.516   2.299  12.991  1.6881 -0.2234 -1.1343
14568TIP3    H265196   0.484   2.363  12.858  1.2833  2.6910  0.3014
14569TIP3   OH265197   4.550   0.352   1.195 -0.2187 -0.3145  0.3680
14569TIP3    H165198   4.597   0.374   1.275  0.3080 -1.3653  0.3455
14569TIP3    H265199   4.464   0.323   1.225  0.1054 -1.0576  0.5680
14570TIP3   OH265200   5.481   6.210   4.830 -0.4036  0.4104  0.3685
14570TIP3    H165201   5.468   6.285   4.772 -1.2669 -1.0164 -1.3327
14570TIP3    H265202   5.415   6.221   4.899 -2.5137 -0.2889 -1.4759
14571TIP3   OH265203   5.387   3.366  16.277  0.0951  0.3353 -0.0622
14571TIP3    H165204   5.374   3.350  16.371 -0.5508 -0.3894 -0.2683
14571TIP3    H265205   5.443   3.295  16.247 -1.5025 -0.7086 -0.6604
14572TIP3   OH265206   2.672   6.751   3.687 -0.0408  0.1718 -0.4517
14572TIP3    H165207   2.643   6.740   3.596  1.0224  0.3468 -0.8228
14572TIP3    H265208   2.733   6.680   3.702 -0.0235  0.2880  0.0536
14573TIP3   OH265209   1.586   2.030  12.177  0.1728  1.2371  0.6401
14573TIP3    H165210   1.601   1.945  12.136  0.5072  0.9887  1.2642
14573TIP3    H265211   1.552   2.008  12.264  1.3035  1.7253  1.2099
14574TIP3   OH265212   0.414   5.888   0.177 -0.4069 -0.3689  0.1121
14574TIP3    H165213   0.498   5.861   0.140 -0.2222  0.5487 -0.1447
14574TIP3    H265214   0.398   5.975   0.140 -2.1336 -1.0987 -0.9238
14575TIP3   OH265215   3.781   0.115  11.669  0.1603  0.0811  0.2901
14575TIP3    H165216   3.742   0.105  11.582  1.3684 -0.4568 -0.1955
14575TIP3    H265217   3.844   0.187  11.658 -0.6458  0.9143  1.0601
14576TIP3   OH265218   4.687   4.548   2.630  0.4774 -0.1881 -0.1961
14576TIP3    H165219   4.612   4.570   2.686 -0.0276 -2.2108 -0.0452
14576TIP3    H265220   4.729   4.632   2.614  0.5823  0.5019  3.1716
14577TIP3   OH265221   2.667   2.509   6.431 -0.1445  0.3318 -0.2359
14577TIP3    H165222   2.756   2.544   6.424 -0.5498  1.0102 -2.3018
14577TIP3    H265223   2.679   2.423   6.472  1.6049 -0.1279 -1.6314
14578TIP3   OH265224   1.322   5.950   2.777  0.3947  0.1740 -0.1272
14578TIP3    H165225   1.314   5.965   2.683 -0.3174 -1.3591 -0.3353
14578TIP3    H265226   1.407   5.907   2.787  0.1258 -0.3698 -0.1677
14579TIP3   OH265227   1.893   6.111   5.303  0.1776  0.2292 -0.0662
14579TIP3    H165228   1.893   6.132   5.210 -0.0389 -0.6696 -0.2673
14579TIP3    H265229   1.968   6.160   5.338 -0.7660  1.9375 -0.3958
14580TIP3   OH265230   4.177   0.017   3.530  0.5158 -0.5666 -0.2681
14580TIP3    H165231   4.140  -0.071   3.519  0.0104 -0.4939  0.7742
14580TIP3    H265232   4.218   0.015   3.616 -0.4654  0.5608  0.2374
14581TIP3   OH265233   4.759   6.252   4.664  0.9101 -0.0532  0.4370
14581TIP3    H165234   4.754   6.299   4.581 -0.9873  1.5095  1.4238
14581TIP3    H265235   4.814   6.307   4.720 -0.2639  0.3709  1.1776
14582TIP3   OH265236   3.526   1.738   2.447 -0.0113  0.0541  0.6357
14582TIP3    H165237   3.477   1.815   2.421  0.9237  0.4088 -0.0907
14582TIP3    H265238   3.606   1.772   2.488  0.5302 -0.5157  0.0843
14583TIP3   OH265239   1.933   1.986  15.298 -0.2434  0.5198 -0.6892
14583TIP3    H165240   1.988   2.026  15.365 -2.6123  0.5727  1.2805
14583TIP3    H265241   1.932   2.050  15.227  0.0831  1.6876  0.3303
14584TIP3   OH265242   4.933   6.727  14.645 -0.1728  0.1622  0.3177
14584TIP3    H165243   4.962   6.639  14.622 -0.7934 -0.6441  2.4620
14584TIP3    H265244   4.845   6.734  14.606  0.2688  0.2025 -0.6771
14585TIP3   OH265245   1.623   3.448  16.190 -0.4195  0.2709 -0.6265
14585TIP3    H165246   1.666   3.532  16.178  3.4973 -0.9297  3.2998
14585TIP3    H265247   1.561   3.463  16.261 -1.7737  0.4742 -1.8432
14586TIP3   OH265248   6.599   3.666  14.321 -0.2267  0.4556  0.1408
14586TIP3    H165249   6.694   3.673  14.321 -0.2595  0.9203  0.1242
14586TIP3    H265250   6.578   3.614  14.399 -0.1211  2.6814  1.7050
14587TIP3   OH265251   0.747   1.615  14.455 -0.5793 -0.7692 -0.1234
14587TIP3    H165252   0.794   1.637  14.375 -1.9370 -1.8851 -1.2636
14587TIP3    H265253   0.813   1.578  14.513  0.6498  1.2092 -0.2480
14588TIP3   OH265254   0.018   3.106  13.670 -0.4709  0.1013  0.1693
14588TIP3    H165255  -0.076   3.119  13.660 -0.5030  0.1488  0.5238
14588TIP3    H265256   0.027   3.017  13.701 -0.2923 -0.4978 -1.5248
14589TIP3   OH265257   5.152   5.622  11.380 -0.3047 -0.7987 -0.3488
14589TIP3    H165258   5.137   5.528  11.387  1.5841 -1.0038  1.1989
14589TIP3    H265259   5.201   5.632  11.298 -2.4277 -0.8873 -1.6738
14590TIP3   OH265260   5.191   6.049   2.424  0.1424  0.0826  0.6502
14590TIP3    H165261   5.127   6.032   2.494 -0.6883 -3.0170 -0.8088
14590TIP3    H265262   5.276   6.048   2.468 -0.3679 -1.8851  1.6164
14591TIP3   OH265263   5.076   1.602   1.430  0.5418  0.3676 -0.0887
14591TIP3    H165264   5.104   1.541   1.362  0.9071 -0.2533  0.6200
14591TIP3    H265265   5.047   1.546   1.502 -2.3808  0.9490 -0.7100
14592TIP3   OH265266   2.840   6.037   3.339 -0.1387 -0.2407  0.3700
14592TIP3    H165267   2.929   6.027   3.304  0.2306  0.1960  1.1848
14592TIP3    H265268   2.842   5.991   3.423 -0.5408  0.2114  0.6264
14593TIP3   OH265269   4.567   4.132   0.986  0.6113  0.2712 -0.1920
14593TIP3    H165270   4.581   4.043   1.020 -0.1597  0.3848  0.4234
14593TIP3    H265271   4.492   4.124   0.928 -1.5473  1.1380  2.3923
14594TIP3   OH265272   1.718   1.556   5.036  0.3514  0.4340 -0.5323
14594TIP3    H165273   1.700   1.614   5.110  0.8313  0.4919 -0.4588
14594TIP3    H265274   1.808   1.528   5.049  0.3300  0.1792 -0.9185
14595TIP3   OH265275   5.408   1.060  12.812  0.1283  0.6794  0.8093
14595TIP3    H165276   5.380   1.044  12.722  1.4817 -0.7889  0.6269
14595TIP3    H265277   5.393   1.154  12.825  1.5111  1.2640 -1.5162
14596TIP3   OH265278   1.423   0.528   0.031  0.0430 -0.1070 -0.3054
14596TIP3    H165279   1.445   0.468  -0.040  1.4871  0.0912 -0.0374
14596TIP3    H265280   1.498   0.586   0.038 -1.9437  2.7095 -1.5343
14597TIP3   OH265281   4.985   4.518   4.342 -1.1097  0.4969  0.1277
14597TIP3    H165282   5.003   4.605   4.379 -1.4316  0.0944  1.2423
14597TIP3    H265283   4.896   4.525   4.308 -1.1417  0.5881  0.2313
14598TIP3   OH265284   0.885   2.025  13.975 -0.4300 -0.3264 -0.1575
14598TIP3    H165285   0.896   2.057  13.886 -1.9508 -0.0118 -0.2270
14598TIP3    H265286   0.829   2.089  14.018  1.1196  0.0606  1.3321
14599TIP3   OH265287   3.309   1.570   0.951  0.3607 -0.0984  0.2115
14599TIP3    H165288   3.249   1.638   0.921  1.3975  1.6702  2.0758
14599TIP3    H265289   3.384   1.576   0.892 -0.3322 -0.8630 -0.7614
14600TIP3   OH265290   2.832   6.548  10.960 -0.5042 -0.3173  0.0196
14600TIP3    H165291   2.761   6.535  10.897  0.5116  0.4213 -1.3150
14600TIP3    H265292   2.850   6.642  10.957  2.3031 -0.8476 -1.6974
14601TIP3   OH265293   6.597   1.601  10.622  0.0923  0.2317 -0.0167
14601TIP3    H165294   6.509   1.611  10.587  0.1534 -0.2986 -0.3211
14601TIP3    H265295   6.608   1.675  10.682 -0.2148  0.8346 -0.7004
14602TIP3   OH265296   3.151   6.706   0.558 -0.0346  0.4386  0.1314
14602TIP3    H165297   3.099   6.764   0.502 -1.6555  0.7151  1.8632
14602TIP3    H265298   3.108   6.621   0.551 -0.8242  0.6891  1.6475
14603TIP3   OH265299   3.127   2.666  11.942  0.0556  0.3471 -0.0407
14603TIP3    H165300   3.211   2.699  11.976  0.8545  0.6387 -2.2378
14603TIP3    H265301   3.124   2.697  11.852 -2.1556 -0.1891 -0.1691
14604TIP3   OH265302   0.845   4.850  12.552  0.4263  0.0464  0.8203
14604TIP3    H165303   0.773   4.889  12.504  1.3929  2.7170  1.4333
14604TIP3    H265304   0.822   4.861  12.644  1.8454  1.5112  1.0383
14605TIP3   OH265305   3.557   2.457  14.586 -0.0817 -0.1524 -0.5178
14605TIP3    H165306   3.478   2.477  14.636  0.3848 -0.0598  0.1920
14605TIP3    H265307   3.617   2.419  14.651  1.4766  2.3083 -0.4515
14606TIP3   OH265308   0.305   3.892   0.020  0.1299 -0.0599 -0.2938
14606TIP3    H165309   0.218   3.857   0.039 -0.3870  0.7332 -1.1438
14606TIP3    H265310   0.289   3.983  -0.003  1.2982  0.3364  0.4486
14607TIP3   OH265311   0.866   6.114   5.830 -0.0515  0.1729 -0.5692
14607TIP3    H165312   0.861   6.095   5.924  4.7343 -0.0617 -0.2472
14607TIP3    H265313   0.849   6.030   5.788  0.9592 -0.4317  0.2121
14608TIP3   OH265314   5.752   6.634   4.991 -0.3112 -0.1922 -0.0347
14608TIP3    H165315   5.726   6.542   4.999 -0.4806 -0.2263 -0.9769
14608TIP3    H265316   5.726   6.659   4.903 -1.2524  1.0814  0.5835
14609TIP3   OH265317   4.241   6.309  11.376 -0.0769 -0.8096  0.0754
14609TIP3    H165318   4.336   6.298  11.386  0.2767  1.2091 -0.7621
14609TIP3    H265319   4.216   6.243  11.311  1.3710  0.8248 -2.2500
14610TIP3   OH265320   2.669   4.252   1.809 -0.1287 -0.3584 -0.1017
14610TIP3    H165321   2.758   4.276   1.783 -0.1455 -0.1564  0.0309
14610TIP3    H265322   2.657   4.165   1.772  0.4404 -0.7556  0.6141
14611TIP3   OH265323   6.772   5.305  14.524  0.0968 -0.5787  0.4066
14611TIP3    H165324   6.698   5.346  14.569 -0.3442 -1.6491  0.6627
14611TIP3    H265325   6.762   5.211  14.541  1.0111 -0.8135 -0.3101
14612TIP3   OH265326   4.019   1.926  11.477 -0.8949  0.3651 -0.4790
14612TIP3    H165327   4.006   1.962  11.389 -0.6798 -2.5086 -1.7134
14612TIP3    H265328   3.938   1.879  11.497  0.6141 -2.4671 -0.8589
14613TIP3   OH265329   2.881   4.673  16.986 -0.1782 -0.0246 -0.0970
14613TIP3    H165330   2.865   4.767  16.985 -0.7617 -0.1240 -1.5335
14613TIP3    H265331   2.975   4.665  17.006 -0.5656  0.7711  2.1466
14614TIP3   OH265332   0.213   5.316  14.448  0.2937 -0.1360  0.1652
14614TIP3    H165333   0.129   5.294  14.488  2.2891 -1.5386  3.7871
14614TIP3    H265334   0.230   5.244  14.388 -0.7935 -0.1071 -0.1979
14615TIP3   OH265335   5.313   1.623   0.546 -0.1604 -0.0287 -0.2419
14615TIP3    H165336   5.274   1.536   0.537 -1.9078  0.8847 -1.8606
14615TIP3    H265337   5.290   1.651   0.634  1.3654 -1.6142  0.7102
14616TIP3   OH265338   2.995   6.218  12.997 -0.2660 -0.1201  0.5950
14616TIP3    H165339   3.079   6.173  13.010 -0.4518 -0.1067  1.8625
14616TIP3    H265340   2.968   6.192  12.909  1.2171  0.1226  0.0521
14617TIP3   OH265341   3.864   0.638  12.226 -0.0731 -0.2939  0.3756
14617TIP3    H165342   3.889   0.681  12.145  0.1967  0.2069  0.7164
14617TIP3    H265343   3.814   0.561  12.199 -1.2478  0.6639 -0.2364
14618TIP3   OH265344   1.162   4.533  16.488  0.5217  0.0364  0.8606
14618TIP3    H165345   1.206   4.571  16.412 -1.5926  0.3425 -0.2421
14618TIP3    H265346   1.075   4.509  16.456 -0.0604 -0.7185  2.9364
14619TIP3   OH265347   0.835   6.629   2.563 -0.0494  0.0183  0.6054
14619TIP3    H165348   0.809   6.541   2.537  2.1388 -1.2490  2.6365
14619TIP3    H265349   0.760   6.662   2.612 -0.5011 -1.0468  0.6500
14620TIP3   OH265350   1.349   1.371  13.790 -0.1695  0.0155 -0.1687
14620TIP3    H165351   1.274   1.428  13.804 -0.8088 -1.1406  1.1942
14620TIP3    H265352   1.338   1.338  13.701 -2.2841 -1.5563  0.6278
14621TIP3   OH265353   2.252   0.346   6.333  0.4016 -0.4883 -0.5321
14621TIP3    H165354   2.206   0.262   6.327  0.3772 -0.4673 -0.6267
14621TIP3    H265355   2.200   0.397   6.395 -1.0616  0.4270 -2.4926
14622TIP3   OH265356   1.156   5.863  13.598 -0.5532  0.3377  0.3875
14622TIP3    H165357   1.133   5.778  13.634  0.4101 -0.6583 -1.2880
14622TIP3    H265358   1.163   5.849  13.503  0.2365  2.1279  0.1478
14623TIP3   OH265359   0.835   3.586   1.642 -0.0770 -0.2740 -0.2351
14623TIP3    H165360   0.843   3.541   1.558  1.1515 -0.8143  0.1716
14623TIP3    H265361   0.844   3.679   1.620  1.9179 -0.5105 -0.5081
14624TIP3   OH265362   0.136   3.944  16.457  0.2564 -0.0936  0.1144
14624TIP3    H165363   0.116   4.036  16.474  1.6687  0.4284 -0.9131
14624TIP3    H265364   0.099   3.928  16.370  1.6748  0.0594 -0.5329
14625TIP3   OH265365   0.740   6.600   0.272  0.0470 -0.0431 -0.5592
14625TIP3    H165366   0.824   6.643   0.286 -0.9971  2.8405 -2.5075
14625TIP3    H265367   0.747   6.560   0.185 -0.9809  1.3259 -1.2981
14626TIP3   OH265368   0.637   5.017   2.101  0.0606  0.3103 -0.7659
14626TIP3    H165369   0.607   4.956   2.034 -0.4722 -1.0605  0.6944
14626TIP3    H265370   0.559   5.035   2.154  0.5797  1.0070 -0.2330
14627TIP3   OH265371   5.804   1.677  15.131 -0.6320 -0.3229 -0.2618
14627TIP3    H165372   5.753   1.603  15.097 -4.1631  2.8040 -2.1691
14627TIP3    H265373   5.774   1.688  15.221 -0.7453 -0.6905 -0.2559
14628TIP3   OH265374   1.863   5.565  11.149  0.0301 -0.3954  0.3642
14628TIP3    H165375   1.915   5.615  11.086  1.5669 -1.0263  1.0944
14628TIP3    H265376   1.772   5.587  11.128  0.6143  1.6004 -0.2204
14629TIP3   OH265377   3.095   4.861   0.277  0.2388  0.5083 -0.1014
14629TIP3    H165378   3.053   4.780   0.306 -0.6271  0.8776 -0.2856
14629TIP3    H265379   3.180   4.834   0.243 -0.1128 -0.3427 -0.3106
14630TIP3   OH265380   3.363   3.275   0.843 -0.5163  0.1355 -0.3560
14630TIP3    H165381   3.381   3.367   0.827 -0.3261  0.3700  1.1558
14630TIP3    H265382   3.445   3.240   0.878 -0.3700 -0.7732 -1.5880
14631TIP3   OH265383   2.392   1.373   5.136  0.5760  0.6585  0.4649
14631TIP3    H165384   2.469   1.389   5.083 -0.0453 -0.3182 -0.7520
14631TIP3    H265385   2.324   1.429   5.099  0.0624 -0.2355  0.0486
14632TIP3   OH265386   4.633   3.180  11.222 -0.0834 -0.0270  0.4441
14632TIP3    H165387   4.657   3.221  11.305 -1.2735  1.0470  0.2751
14632TIP3    H265388   4.686   3.226  11.157 -2.3239  2.1544  0.1043
14633TIP3   OH265389   6.257   0.869   3.541 -0.1075  0.2208 -0.4349
14633TIP3    H165390   6.262   0.910   3.628 -3.0830  0.2871 -0.2167
14633TIP3    H265391   6.204   0.791   3.555 -1.2304  0.6121 -2.2883
14634TIP3   OH265392   4.166   2.176   2.231 -0.3843 -0.1738 -0.5803
14634TIP3    H165393   4.184   2.270   2.232 -1.5380  0.0663  2.0393
14634TIP3    H265394   4.230   2.138   2.291 -0.9225 -0.8546 -0.4267
14635TIP3   OH265395   0.022   5.948   3.791  0.0606 -0.9483  0.2030
14635TIP3    H165396   0.113   5.954   3.821  0.9683 -0.2868 -2.5302
14635TIP3    H265397   0.016   5.861   3.752  0.3418  0.0102 -2.0564
14636TIP3   OH265398   0.199   6.564   4.304 -0.6850  0.0155  0.0431
14636TIP3    H165399   0.104   6.549   4.305 -0.5814 -0.7070 -0.4619
14636TIP3    H265400   0.232   6.518   4.381 -0.7133  0.0565  0.0799
14637TIP3   OH265401   1.406   3.910  11.176 -0.3993  0.4133  0.1675
14637TIP3    H165402   1.352   3.873  11.106  0.2482  1.0701 -0.6966
14637TIP3    H265403   1.496   3.904  11.143 -0.1476  1.3202  0.6605
14638TIP3   OH265404   6.339   5.443  16.112 -0.1912  0.2185 -0.3761
14638TIP3    H165405   6.268   5.478  16.058  0.8812  3.6169  0.3323
14638TIP3    H265406   6.296   5.420  16.195 -1.1285 -1.3686 -1.2834
14639TIP3   OH265407   0.551   4.587  11.544  0.6153  0.0928  0.0305
14639TIP3    H165408   0.548   4.577  11.639 -0.6351 -1.3491 -0.1378
14639TIP3    H265409   0.527   4.678  11.528 -1.1692 -0.1868  1.0120
14640TIP3   OH265410   5.347   5.812  15.967  0.6184 -0.1036 -0.1600
14640TIP3    H165411   5.367   5.759  15.890  3.8485 -1.6191  1.5952
14640TIP3    H265412   5.303   5.753  16.027 -1.3474  0.9105 -0.5689
14641TIP3   OH265413   5.053   5.176   1.385 -0.1712  0.0379  0.5815
14641TIP3    H165414   5.012   5.117   1.321  1.5699  2.1039 -2.5670
14641TIP3    H265415   5.001   5.256   1.380 -0.6836 -0.1206  2.6417
14642TIP3   OH265416   1.886   5.530   2.052 -0.2834  0.0246 -0.0683
14642TIP3    H165417   1.804   5.549   2.007 -0.3037 -0.3869 -0.2090
14642TIP3    H265418   1.878   5.438   2.077 -0.7666  0.5597  1.8151
14643TIP3   OH265419   2.848   2.117   5.953 -0.5708  0.0453  0.3656
14643TIP3    H165420   2.907   2.168   6.009 -1.2676  0.7907  0.4326
14643TIP3    H265421   2.906   2.077   5.888  0.0468  0.5584  0.5912
14644TIP3   OH265422   4.639   5.525  16.097  0.0762  0.4450  0.7803
14644TIP3    H165423   4.557   5.521  16.144 -0.0677  0.8646  0.5745
14644TIP3    H265424   4.705   5.492  16.158 -0.5513 -1.9532  0.1913
14645TIP3   OH265425   4.904   5.245   5.943  0.3776  0.1180 -0.1484
14645TIP3    H165426   4.865   5.231   6.030  1.9868  1.3907  0.7901
14645TIP3    H265427   4.964   5.171   5.932  0.9611  0.5208  0.2851
14646TIP3   OH265428   4.852   1.359  12.123 -0.9011  0.4543 -0.1369
14646TIP3    H165429   4.855   1.452  12.144 -0.6108 -0.0351  2.0426
14646TIP3    H265430   4.944   1.334  12.115 -0.9547  0.1517  0.2066
14647TIP3   OH265431   2.730   3.050  12.714 -0.1052  0.4390 -0.7234
14647TIP3    H165432   2.783   3.128  12.698  1.6242 -0.4252  0.5590
14647TIP3    H265433   2.726   3.043  12.809  0.3933 -1.4248 -0.8105
14648TIP3   OH265434   3.176   1.094   2.133 -0.6595  0.6987 -0.6090
14648TIP3    H165435   3.238   1.051   2.192 -1.3492  0.9202  0.2968
14648TIP3    H265436   3.168   1.183   2.169 -1.7456  0.5716 -0.5183
14649TIP3   OH265437   2.303   4.571   4.019 -0.3656 -0.0786  0.1055
14649TIP3    H165438   2.392   4.582   4.054 -1.1407  2.7769  1.3416
14649TIP3    H265439   2.261   4.510   4.079  1.1783 -2.6280 -1.3413
14650TIP3   OH265440   5.894   6.671  16.120 -0.3887  0.2428  0.2604
14650TIP3    H165441   5.962   6.713  16.172 -0.2111  0.2193  0.0461
14650TIP3    H265442   5.941   6.607  16.065 -0.5646  0.3215  0.0178
14651TIP3   OH265443   1.788   1.578  15.268  0.1598 -0.1695 -0.5558
14651TIP3    H165444   1.731   1.646  15.304 -0.3244 -0.5893 -0.5177
14651TIP3    H265445   1.854   1.564  15.336 -0.2914 -0.4021 -0.1595
14652TIP3   OH265446   1.260   1.111  16.783 -0.2546  0.2926  0.5684
14652TIP3    H165447   1.178   1.154  16.759 -0.6939  0.4432  2.2699
14652TIP3    H265448   1.256   1.103  16.878  1.9426  0.7789  0.7326
14653TIP3   OH265449   4.990   1.196   4.090  0.0377 -0.6195 -0.1724
14653TIP3    H165450   5.027   1.204   4.177  0.3343  0.3805 -0.3852
14653TIP3    H265451   4.940   1.114   4.092  1.9081 -1.7640  0.2419
14654TIP3   OH265452   3.516   2.268   1.594 -0.3844 -0.3843  0.3626
14654TIP3    H165453   3.561   2.338   1.641  0.3013  0.3958 -1.3877
14654TIP3    H265454   3.423   2.282   1.613 -0.0540 -0.7741  2.3638
14655TIP3   OH265455   4.796   4.658  12.321 -0.3550  0.5709  0.1678
14655TIP3    H165456   4.734   4.618  12.382 -0.4329 -1.2500 -1.0526
14655TIP3    H265457   4.817   4.588  12.259  2.0404  1.5068 -0.1237
14656TIP3   OH265458   5.312   0.690  14.855 -0.1193 -0.2667  0.1183
14656TIP3    H165459   5.324   0.718  14.946  1.6039  0.5885 -0.3501
14656TIP3    H265460   5.377   0.619  14.844  0.5684  0.4984 -0.8025
14657TIP3   OH265461   2.112   1.278  15.209  0.0345 -0.1181  0.4029
14657TIP3    H165462   2.021   1.306  15.212  0.4521  1.5245 -1.3033
14657TIP3    H265463   2.158   1.342  15.264  0.5581  0.7730 -1.0531
14658TIP3   OH265464   6.044   4.157  14.840  0.2009 -0.5659  0.4277
14658TIP3    H165465   5.973   4.217  14.820 -0.0409 -0.1787  2.3794
14658TIP3    H265466   6.114   4.182  14.780 -0.9136 -0.2521 -0.7562
14659TIP3   OH265467   1.466   4.591  12.396  0.0777  0.0918  0.0876
14659TIP3    H165468   1.533   4.640  12.443  1.6400 -0.4234 -1.5615
14659TIP3    H265469   1.452   4.641  12.315 -0.5441 -0.5517 -0.2097
14660TIP3   OH265470   0.608   5.781  14.055  0.1282 -0.6439  0.1191
14660TIP3    H165471   0.623   5.848  13.988  2.6559 -0.0159  1.2685
14660TIP3    H265472   0.543   5.722  14.016  1.9170 -0.5918 -3.0925
14661TIP3   OH265473   1.005   2.600  16.132 -0.0455 -0.4751  0.2170
14661TIP3    H165474   0.930   2.542  16.144  0.5315 -0.9681  1.5288
14661TIP3    H265475   1.082   2.544  16.141  0.5343  0.5806  2.1753
14662TIP3   OH265476   5.031   3.824   1.555  0.4271 -0.3720 -0.2369
14662TIP3    H165477   4.967   3.856   1.618 -1.0531 -2.6132 -0.5861
14662TIP3    H265478   4.980   3.797   1.479  2.1279  1.7746 -2.2519
14663TIP3   OH265479   2.135   6.333  11.493  0.5886 -0.2576  0.3912
14663TIP3    H165480   2.118   6.415  11.540  2.2598  2.2263 -3.0814
14663TIP3    H265481   2.226   6.340  11.465  0.3423 -2.7037 -1.1770
14664TIP3   OH265482   4.309   6.664   3.976  0.1153 -0.4285  0.2440
14664TIP3    H165483   4.255   6.722   4.029 -0.0238 -0.7158  0.4208
14664TIP3    H265484   4.336   6.717   3.902 -1.1954 -0.5427 -0.3460
14665TIP3   OH265485   5.514   2.608  12.108  0.3381  0.2634  0.0822
14665TIP3    H165486   5.422   2.626  12.129  0.1249 -0.4163 -0.2574
14665TIP3    H265487   5.510   2.553  12.030  1.0566  0.8279 -0.3555
14666TIP3   OH265488   4.011   3.897  12.984  0.1982 -0.5973 -0.1670
14666TIP3    H165489   4.002   3.874  12.892  3.6826 -2.9739 -0.0236
14666TIP3    H265490   3.955   3.834  13.030 -0.7184 -0.0850 -0.5689
14667TIP3   OH265491   5.376   4.776  13.897  0.2961 -0.0721 -0.2123
14667TIP3    H165492   5.421   4.730  13.968  1.8949 -1.7191 -2.2406
14667TIP3    H265493   5.284   4.780  13.926  0.8592 -0.9493  1.8047
14668TIP3   OH265494   1.501   1.020  13.104  0.1848  0.1182  0.7803
14668TIP3    H165495   1.585   1.038  13.062  1.2833 -0.5033  2.6240
14668TIP3    H265496   1.438   1.017  13.032  1.3750  2.6136 -0.4336
14669TIP3   OH265497   2.855   0.813  13.364 -0.4400 -0.4485 -0.4576
14669TIP3    H165498   2.822   0.856  13.285 -0.7974  2.3176  1.1590
14669TIP3    H265499   2.945   0.846  13.374 -0.3163 -0.9686  0.1703
14670TIP3   OH265500   3.301   2.499  15.136 -0.2468  0.6001  0.0580
14670TIP3    H165501   3.383   2.481  15.089 -0.4687 -0.3725  0.0297
14670TIP3    H265502   3.291   2.594  15.131  2.2748  1.0440  2.3848
14671TIP3   OH265503   2.018   0.330  16.492 -0.1972  0.1415 -0.0059
14671TIP3    H165504   2.045   0.376  16.412 -1.7136  0.7121 -0.2100
14671TIP3    H265505   2.085   0.351  16.556  1.3020 -0.7088 -1.2520
14672TIP3   OH265506   1.093   2.726  16.677 -0.6217  0.3893  0.1245
14672TIP3    H165507   1.154   2.652  16.679 -0.5170  0.5032  1.5346
14672TIP3    H265508   1.083   2.747  16.584 -0.4617 -1.2334 -0.2622
14673TIP3   OH265509   6.534   3.361   1.330  0.4777  0.3349  0.7108
14673TIP3    H165510   6.593   3.430   1.299  0.4583  0.5978  1.2412
14673TIP3    H265511   6.562   3.282   1.285  0.2918  0.7604 -0.1506
14674TIP3   OH265512   4.702   4.133   5.265  0.3009 -0.8208  0.0747
14674TIP3    H165513   4.757   4.210   5.250  0.7591 -1.2325 -0.3852
14674TIP3    H265514   4.726   4.072   5.195 -0.1393 -1.3393  0.3677
14675TIP3   OH265515   0.477   1.634   6.092  0.0480 -0.1672 -0.3872
14675TIP3    H165516   0.403   1.691   6.111 -0.1434  0.0035 -1.6026
14675TIP3    H265517   0.460   1.554   6.142 -1.2804 -0.3728 -1.1600
14676TIP3   OH265518   6.729   4.618   2.969 -0.0404 -0.3103 -0.2984
14676TIP3    H165519   6.697   4.639   2.881  0.2175 -0.8555 -0.5297
14676TIP3    H265520   6.693   4.531   2.987  1.2150 -0.8893 -0.5256
14677TIP3   OH265521   5.739   1.201   6.141  0.1068  0.4792 -0.4346
14677TIP3    H165522   5.707   1.199   6.232  0.6331 -2.6521 -0.2591
14677TIP3    H265523   5.827   1.238   6.147  1.5333 -2.9130  0.8800
14678TIP3   OH265524   4.356   1.486   2.128  0.0914 -0.1330 -0.7767
14678TIP3    H165525   4.446   1.456   2.117  0.1665 -0.9271  1.7142
14678TIP3    H265526   4.302   1.410   2.107  0.1079 -0.5242  0.5775
14679TIP3   OH265527   2.531   0.006  11.560 -0.1146  0.5638 -0.0090
14679TIP3    H165528   2.531  -0.045  11.479  0.0697 -0.0862  0.3958
14679TIP3    H265529   2.463   0.072  11.546  1.0398  1.5175 -1.3475
14680TIP3   OH265530   0.735   3.586   3.312  0.3672  0.3816  0.3659
14680TIP3    H165531   0.668   3.645   3.275  0.1847  0.1464  0.3184
14680TIP3    H265532   0.753   3.524   3.242  0.7890  0.5722  0.3080
14681TIP3   OH265533   2.741   3.372   4.052  0.5129 -0.4934  0.3161
14681TIP3    H165534   2.708   3.318   4.124  0.3303 -1.4133 -0.4411
14681TIP3    H265535   2.713   3.325   3.973  1.8325 -0.1701 -0.3479
14682TIP3   OH265536   6.322   6.234   6.376  0.4915  0.4509  0.6268
14682TIP3    H165537   6.403   6.238   6.426  1.9497 -1.5199 -1.4917
14682TIP3    H265538   6.320   6.316   6.327  1.8054  0.0070 -0.1896
14683TIP3   OH265539   5.587   1.135   6.716 -0.2392  0.1337 -0.1240
14683TIP3    H165540   5.500   1.173   6.702 -0.8789 -1.5846 -0.9894
14683TIP3    H265541   5.570   1.054   6.763  0.8580 -0.3796 -0.6001
14684TIP3   OH265542   5.282   1.880   2.162  0.1071  0.3832 -0.8113
14684TIP3    H165543   5.188   1.868   2.148 -0.3874 -0.4057  2.6585
14684TIP3    H265544   5.317   1.792   2.167  1.5377  0.6494 -4.5901
14685TIP3   OH265545   1.323   1.702   6.698  0.3919  0.5007  0.1244
14685TIP3    H165546   1.242   1.742   6.665  0.2669  1.9967  2.1189
14685TIP3    H265547   1.294   1.644   6.769  0.7161 -2.1227 -1.8188
14686TIP3   OH265548   3.724   2.211  14.194 -0.1260 -0.4192 -0.1355
14686TIP3    H165549   3.745   2.281  14.256 -0.9659  0.0100 -0.3305
14686TIP3    H265550   3.772   2.235  14.115 -1.1774  0.4717 -0.5218
14687TIP3   OH265551   2.652   5.004  15.333  0.1462 -0.1383  0.1421
14687TIP3    H165552   2.635   5.051  15.251 -2.2181 -2.3042 -0.6892
14687TIP3    H265553   2.700   5.067  15.387  0.7168  1.7541 -2.4467
14688TIP3   OH265554   0.246   1.172  16.685 -0.1844 -0.1103 -0.1520
14688TIP3    H165555   0.338   1.191  16.703  0.9233 -2.1600 -3.1473
14688TIP3    H265556   0.247   1.083  16.648 -2.8968  1.1283 -3.4919
14689TIP3   OH265557   2.278   0.283   4.382  0.2340 -0.3782 -0.1360
14689TIP3    H165558   2.252   0.210   4.326  0.1664 -1.0652  0.7861
14689TIP3    H265559   2.203   0.343   4.378 -0.4288 -1.1697  0.4920
14690TIP3   OH265560   4.663   1.272  16.212  0.0746  0.6056  0.4111
14690TIP3    H165561   4.731   1.284  16.145  0.7079  0.1211  0.9627
14690TIP3    H265562   4.653   1.359  16.252 -0.4962  0.9632 -0.4780
14691TIP3   OH265563   3.887   0.332  11.250  0.1165 -0.1990  0.3421
14691TIP3    H165564   3.815   0.346  11.189 -0.2421 -0.8763  0.6044
14691TIP3    H265565   3.854   0.267  11.312  0.5241  0.3883  1.1838
14692TIP3   OH265566   0.824   1.700  12.415  0.6277  0.6716  0.2101
14692TIP3    H165567   0.883   1.633  12.378 -0.8277  0.3071 -1.4996
14692TIP3    H265568   0.766   1.651  12.474 -0.1382  0.4987 -0.6868
14693TIP3   OH265569   5.383   6.347   5.608  0.9583 -0.7544  0.6471
14693TIP3    H165570   5.313   6.283   5.595  0.0029  0.1625  1.3176
14693TIP3    H265571   5.377   6.372   5.700  2.1609 -0.6703  0.7073
14694TIP3   OH265572   3.129   5.276   5.642 -0.2254  0.5924 -0.2419
14694TIP3    H165573   3.117   5.183   5.623  1.1747  0.8449 -2.5759
14694TIP3    H265574   3.128   5.281   5.738 -1.2996 -1.6671 -0.0941
14695TIP3   OH265575   0.961   4.370  11.012 -0.2365 -0.4084 -0.2134
14695TIP3    H165576   0.911   4.288  11.015 -0.6941 -0.1432 -0.4634
14695TIP3    H265577   0.959   4.395  10.920 -0.9794  0.4186  0.0238
14696TIP3   OH265578   4.669   1.204  13.440 -0.5151  0.3678 -0.6830
14696TIP3    H165579   4.745   1.160  13.403 -1.3016 -0.3721 -1.4208
14696TIP3    H265580   4.706   1.276  13.491  0.8662 -1.7056  1.3736
14697TIP3   OH265581   5.790   4.029  11.640 -0.0384  0.1248  0.5965
14697TIP3    H165582   5.807   4.097  11.704 -0.1071 -0.2080  0.9671
14697TIP3    H265583   5.797   3.947  11.689  1.6319 -0.2264 -0.1678
14698TIP3   OH265584   5.179   2.815   4.627 -0.1003 -0.0166  0.0748
14698TIP3    H165585   5.120   2.740   4.623 -0.9813  0.6242  0.9301
14698TIP3    H265586   5.262   2.782   4.591 -0.8589 -1.0180 -0.7759
14699TIP3   OH265587   5.609   0.409   4.276  0.6784  0.4131  0.5282
14699TIP3    H165588   5.698   0.444   4.273  1.0604 -0.4384  1.3102
14699TIP3    H265589   5.581   0.407   4.185  1.6571  0.2054  0.2181
14700TIP3   OH265590   0.698   0.408   4.860  0.0821 -0.0345 -0.0828
14700TIP3    H165591   0.764   0.467   4.895  0.0598 -0.0640  0.0111
14700TIP3    H265592   0.614   0.454   4.873 -0.1897 -1.0814  2.1992
14701TIP3   OH265593   0.581   3.075   6.254  0.0485  0.3724  0.2849
14701TIP3    H165594   0.617   3.162   6.237  1.0216 -0.1284 -0.2634
14701TIP3    H265595   0.583   3.030   6.169  0.9565 -0.6955  0.8511
14702TIP3   OH265596   6.090   1.194  16.689 -0.1878  0.4623 -0.1533
14702TIP3    H165597   6.110   1.157  16.604  0.9635  0.3398  0.1558
14702TIP3    H265598   6.125   1.283  16.685  1.5050 -0.1290  0.7889
14703TIP3   OH265599   6.575   3.537  11.318 -0.4386  0.0015  0.0711
14703TIP3    H165600   6.576   3.569  11.228 -1.7497 -1.3904 -0.4521
14703TIP3    H265601   6.614   3.608  11.369  2.0901  0.0341 -1.8179
14704TIP3   OH265602   6.590   4.219  11.473 -0.1152  0.5869 -0.2630
14704TIP3    H165603   6.661   4.283  11.479  1.4875 -1.1494 -0.3152
14704TIP3    H265604   6.604   4.176  11.389 -2.3071  1.4183 -1.1065
14705TIP3   OH265605   2.288   4.959   0.412 -0.0415 -0.1762  0.0955
14705TIP3    H165606   2.295   4.913   0.329  0.3881  0.0352  0.0140
14705TIP3    H265607   2.263   5.048   0.388 -0.9993 -0.3949  0.2585
14706TIP3   OH265608   1.492   2.974  10.458 -0.0402 -0.1919  0.0414
14706TIP3    H165609   1.404   2.936  10.452 -0.1269 -0.4742  2.5266
14706TIP3    H265610   1.546   2.916  10.406 -1.1760 -0.5200 -0.7993
14707TIP3   OH265611   3.781   5.313   6.698  0.3459 -0.2857 -0.2862
14707TIP3    H165612   3.798   5.257   6.622  2.5633 -1.6484  1.1524
14707TIP3    H265613   3.723   5.261   6.754 -0.0500  0.0874 -0.3532
14708TIP3   OH265614   4.196   0.077   6.310  0.0770 -0.0857 -0.0512
14708TIP3    H165615   4.225  -0.002   6.264  1.1526  0.6803 -0.7356
14708TIP3    H265616   4.214   0.059   6.402 -0.4497 -0.9552 -0.1130
14709TIP3   OH265617   5.841   0.514   3.911  0.6523  0.3621 -0.2008
14709TIP3    H165618   5.811   0.451   3.846 -0.3442  0.5760  0.0446
14709TIP3    H265619   5.906   0.466   3.963 -1.0247 -0.8941  0.8061
14710TIP3   OH265620   5.452   1.459   0.295 -0.3867  0.4447 -0.0651
14710TIP3    H165621   5.365   1.428   0.270 -1.0837 -0.3494  3.1428
14710TIP3    H265622   5.435   1.532   0.354  1.1062  0.0793  0.8376
14711TIP3   OH265623   0.261   6.812   3.350  0.2442 -0.1971 -0.6458
14711TIP3    H165624   0.333   6.863   3.388 -0.1158 -0.5511  0.5466
14711TIP3    H265625   0.182   6.845   3.393 -0.3910  0.6448 -2.4395
14712TIP3   OH265626   4.469   5.508   5.389 -0.1941  0.2053  0.0451
14712TIP3    H165627   4.538   5.544   5.446  1.6835  0.6094 -2.4296
14712TIP3    H265628   4.465   5.569   5.316 -1.4404 -1.2154 -1.0787
14713TIP3   OH265629   1.009   6.531   2.844 -0.4556 -0.2355  0.3854
14713TIP3    H165630   0.934   6.555   2.897 -0.6824  2.3411 -1.0338
14713TIP3    H265631   1.015   6.436   2.852 -2.7885 -0.2756  1.9222
14714TIP3   OH265632   3.801   5.031  11.886 -0.6839 -0.6166 -0.0592
14714TIP3    H165633   3.798   5.092  11.959  2.3917 -0.1861 -0.2196
14714TIP3    H265634   3.832   4.949  11.924 -0.7287 -0.8811 -0.5888
14715TIP3   OH265635   1.469   4.817  16.590  0.2268 -0.1625  0.1622
14715TIP3    H165636   1.540   4.753  16.577  0.1327 -0.1932 -0.1963
14715TIP3    H265637   1.402   4.792  16.526  0.2875  0.4377 -0.1387
14716TIP3   OH265638   3.021   2.806  13.275 -0.0040 -0.3071 -0.1635
14716TIP3    H165639   3.088   2.806  13.206 -0.5643  0.9027 -0.7283
14716TIP3    H265640   3.061   2.856  13.347 -0.2130  0.2280 -0.4179
14717TIP3   OH265641   4.380   6.430  12.366 -0.3724 -0.2136 -0.3960
14717TIP3    H165642   4.400   6.362  12.301 -0.6178 -0.9373  0.2709
14717TIP3    H265643   4.286   6.419  12.383 -0.5055  0.5970 -0.6298
14718TIP3   OH265644   4.848   3.498  16.858 -0.3519  0.3930 -0.3848
14718TIP3    H165645   4.842   3.589  16.887 -0.2588 -0.5051  2.5617
14718TIP3    H265646   4.934   3.468  16.886 -0.9463 -1.0478 -0.0211
14719TIP3   OH265647   5.117   1.171  14.114 -0.2110  0.0850  0.5100
14719TIP3    H165648   5.206   1.172  14.149 -0.3596  2.3930  0.8796
14719TIP3    H265649   5.106   1.257  14.075 -1.1829 -1.3023 -2.4086
14720TIP3   OH265650   1.402   2.677  15.676 -0.4789 -0.3512 -0.5184
14720TIP3    H165651   1.340   2.745  15.703 -0.0332  0.5240 -1.6986
14720TIP3    H265652   1.346   2.605  15.646 -0.9367 -0.1812 -0.0876
14721TIP3   OH265653   4.844   4.845  16.510  0.6987 -0.6215 -0.3569
14721TIP3    H165654   4.884   4.894  16.582  1.2951 -1.4387 -0.1319
14721TIP3    H265655   4.803   4.769  16.551 -3.0597  1.3046 -0.2577
14722TIP3   OH265656   5.747   4.847  15.511  0.4933 -0.1831  0.3728
14722TIP3    H165657   5.706   4.802  15.437 -1.8639 -0.3231  1.6939
14722TIP3    H265658   5.717   4.799  15.588 -0.3244  2.2867  1.6807
14723TIP3   OH265659   0.235   6.214  14.094 -0.0080  0.5928  0.3045
14723TIP3    H165660   0.267   6.294  14.053  0.1519  0.4763  0.2040
14723TIP3    H265661   0.311   6.155  14.095  0.0334  0.6544  0.9103
14724TIP3   OH265662   4.194   6.113   2.477  0.0903  0.2297 -0.3329
14724TIP3    H165663   4.208   6.199   2.516  1.3810  1.3003 -3.0121
14724TIP3    H265664   4.257   6.056   2.520  1.2242  1.2986 -0.5372
14725TIP3   OH265665   5.737   4.920   0.807 -0.0510 -0.5281  0.3858
14725TIP3    H165666   5.677   4.851   0.778  0.4473 -1.0311  0.5490
14725TIP3    H265667   5.759   4.968   0.727 -2.1743  0.8617  0.5990
14726TIP3   OH265668   1.381   5.365  17.260 -0.1298 -0.5139 -0.1215
14726TIP3    H165669   1.430   5.446  17.245 -1.2372  0.7365  2.7516
14726TIP3    H265670   1.448   5.299  17.279  0.6296  0.3477  0.2022
14727TIP3   OH265671   3.651   5.523  17.228  0.7332  0.0152 -0.4656
14727TIP3    H165672   3.593   5.449  17.209  3.5752 -1.9223 -1.9729
14727TIP3    H265673   3.667   5.563  17.142  1.7470  0.4095 -0.1019
14728TIP3   OH265674   2.600   6.664  13.733 -0.0526  0.1366  0.9241
14728TIP3    H165675   2.601   6.646  13.638 -0.6156  1.4765  0.6567
14728TIP3    H265676   2.521   6.620  13.764  1.5478 -2.6315  1.2678
14729TIP3   OH265677   4.907   1.832   1.372 -0.1755 -0.0774  0.4245
14729TIP3    H165678   4.899   1.737   1.383 -1.4302  0.1011  1.2036
14729TIP3    H265679   4.997   1.852   1.396  0.2583 -1.1485 -0.2968
14730TIP3   OH265680   3.758   5.184  15.551  0.4878  0.8886 -0.1109
14730TIP3    H165681   3.798   5.175  15.465 -2.0188  1.5415 -1.3956
14730TIP3    H265682   3.772   5.100  15.594  1.9187  0.6212 -1.0934
14731TIP3   OH265683   6.099   4.456  14.424 -0.1995 -0.1681 -0.4051
14731TIP3    H165684   6.071   4.523  14.361 -0.6847  0.3488  0.3584
14731TIP3    H265685   6.174   4.414  14.382  2.4319  3.2617  0.5886
14732TIP3   OH265686   1.773   2.729  16.978  0.0265  0.0938 -0.2745
14732TIP3    H165687   1.724   2.663  17.028 -1.3479 -0.2429 -2.0330
14732TIP3    H265688   1.862   2.693  16.974 -0.2953 -0.8034  0.2627
14733TIP3   OH265689   3.211   2.953   2.436  0.2028  0.0453 -0.4220
14733TIP3    H165690   3.255   3.034   2.463  0.5304 -0.6542  1.2241
14733TIP3    H265691   3.119   2.977   2.430 -0.0810 -0.0793  2.7447
14734TIP3   OH265692   1.609   6.030   3.269 -0.1332 -0.1018  0.2462
14734TIP3    H165693   1.607   6.125   3.260 -1.6584  0.0117  1.3486
14734TIP3    H265694   1.638   6.015   3.359 -0.9639 -0.6261  0.4425
14735TIP3   OH265695   3.005   5.931  10.888 -0.4877 -0.4667  0.1567
14735TIP3    H165696   3.002   5.844  10.849  0.8370 -1.0419  1.3082
14735TIP3    H265697   2.950   5.926  10.965  0.6863 -0.6959  0.9963
14736TIP3   OH265698   5.130   1.473  10.499 -0.2525  0.0807 -0.0220
14736TIP3    H165699   5.098   1.529  10.428 -1.5599  0.6392  1.0080
14736TIP3    H265700   5.222   1.499  10.510 -0.5660  1.3019 -0.2505
14737TIP3   OH265701   1.951   6.363   4.540 -0.5292  0.2720  0.2352
14737TIP3    H165702   1.918   6.350   4.451 -0.3220  0.3491  0.1462
14737TIP3    H265703   1.940   6.456   4.556 -1.0413  0.1700  0.4812
14738TIP3   OH265704   5.470   1.650   1.576  0.3399 -0.5939  0.2823
14738TIP3    H165705   5.377   1.650   1.553  0.5131 -2.6911 -0.5092
14738TIP3    H265706   5.513   1.611   1.500  2.0849  2.0611 -0.1301
14739TIP3   OH265707   3.334   0.117  16.099 -0.0611  0.2696 -0.1394
14739TIP3    H165708   3.386   0.102  16.178 -3.1540  0.2185  1.9658
14739TIP3    H265709   3.347   0.038  16.047  3.2110  0.9456 -0.4419
14740TIP3   OH265710   5.336   0.198   6.173  0.0599  0.1032 -0.2886
14740TIP3    H165711   5.392   0.275   6.179  1.9728 -1.2468 -0.1086
14740TIP3    H265712   5.302   0.200   6.084  1.2214  0.4333 -0.7457
14741TIP3   OH265713   0.195   5.776  12.174  0.2219 -0.2085 -0.0172
14741TIP3    H165714   0.237   5.857  12.146  0.7090 -0.6974 -0.7097
14741TIP3    H265715   0.101   5.795  12.166  0.3407 -0.0541 -1.1791
14742TIP3   OH265716   0.208   0.428   4.718 -0.0965 -0.8170 -0.1065
14742TIP3    H165717   0.183   0.357   4.778 -1.2049 -0.1792  0.1950
14742TIP3    H265718   0.125   0.469   4.693  0.6335  1.4499  1.0569
14743TIP3   OH265719   1.624   5.483  12.913  0.2274 -0.0961  0.5421
14743TIP3    H165720   1.696   5.506  12.973 -0.2208 -0.6054  1.2844
14743TIP3    H265721   1.590   5.401  12.947 -1.8986  1.0530  1.2696
14744TIP3   OH265722   0.608   3.155   5.727  0.2560  0.7297  0.5726
14744TIP3    H165723   0.607   3.214   5.652  0.0030 -1.1452 -0.9212
14744TIP3    H265724   0.566   3.206   5.797 -0.7725  1.9965 -0.9154
14745TIP3   OH265725   2.081   4.758  11.993 -0.4611 -0.3940  0.0973
14745TIP3    H165726   2.021   4.821  11.953 -0.5078 -0.2354  0.4180
14745TIP3    H265727   2.033   4.723  12.068 -1.3916 -2.5825 -1.4377
14746TIP3   OH265728   5.392   5.188  13.843 -0.5081  0.0427 -0.3530
14746TIP3    H165729   5.477   5.148  13.862  0.7536  2.2278 -1.1518
14746TIP3    H265730   5.343   5.180  13.925  0.8633 -0.2967  0.4510
14747TIP3   OH265731   2.450   6.760  17.270 -0.3348  0.4869 -0.0551
14747TIP3    H165732   2.447   6.814  17.349 -2.1229 -0.9953  0.9250
14747TIP3    H265733   2.435   6.671  17.301 -0.3013 -0.2188 -1.9938
14748TIP3   OH265734   1.893   6.614  16.512 -0.1590 -0.4993 -0.3192
14748TIP3    H165735   1.850   6.634  16.595 -0.1482 -3.9720  0.6310
14748TIP3    H265736   1.985   6.605  16.534  0.2055  0.9203 -1.1945
14749TIP3   OH265737   1.425   3.678   4.902 -0.8505 -0.1265 -0.4751
14749TIP3    H165738   1.332   3.688   4.881 -0.9771 -1.5555 -0.6407
14749TIP3    H265739   1.441   3.584   4.897  0.1162 -0.1044  1.6417
14750TIP3   OH265740   3.685   2.988   0.688 -0.1292  0.2388  0.1245
14750TIP3    H165741   3.720   3.018   0.604 -0.1304  0.2305  0.1210
14750TIP3    H265742   3.652   3.068   0.730 -1.0015  0.1085 -0.2985
14751TIP3   OH265743   2.462   2.343   1.287  0.7592  0.2991  0.2064
14751TIP3    H165744   2.525   2.415   1.281  0.0214  1.0099  0.8256
14751TIP3    H265745   2.383   2.378   1.248  0.7190 -0.5556 -0.4712
14752TIP3   OH265746   4.318   4.640   3.177  0.5427 -0.0060  0.1395
14752TIP3    H165747   4.376   4.713   3.197  1.1616 -0.3440 -0.3870
14752TIP3    H265748   4.236   4.661   3.221  0.7340  0.9839  0.0284
14753TIP3   OH265749   0.102   2.255   0.189 -0.4672 -0.0049  0.6416
14753TIP3    H165750   0.154   2.285   0.264 -0.1123 -1.7388  1.1094
14753TIP3    H265751   0.039   2.325   0.175 -0.3713  0.4741  2.4134
14754TIP3   OH265752   3.079   5.517   0.489  0.0082 -0.6130  0.4583
14754TIP3    H165753   3.144   5.575   0.529 -1.6867  1.6884 -0.0441
14754TIP3    H265754   3.021   5.493   0.561 -1.8013  1.8188 -0.1518
14755TIP3   OH265755   3.407   2.695   1.418 -0.6865 -0.3414 -0.0661
14755TIP3    H165756   3.341   2.675   1.351  0.7104 -0.5982 -1.3693
14755TIP3    H265757   3.470   2.624   1.412 -0.7345 -0.5662  1.7865
14756TIP3   OH265758   0.966   4.318   0.692 -0.2118  0.0380 -0.3027
14756TIP3    H165759   0.946   4.301   0.784 -0.9078  0.3168 -0.4019
14756TIP3    H265760   1.060   4.298   0.684  0.4733  2.4298  1.0552
14757TIP3   OH265761   1.310   6.736  17.224  0.4538 -0.8820 -0.1637
14757TIP3    H165762   1.379   6.797  17.251 -1.4743  0.4407  2.0131
14757TIP3    H265763   1.354   6.652  17.216  2.5815  0.1988 -0.1882
14758TIP3   OH265764   5.261   1.544  14.880  0.3568 -0.0172  0.5337
14758TIP3    H165765   5.220   1.589  14.954  0.0733  0.4482  0.0955
14758TIP3    H265766   5.229   1.454  14.886 -0.7476  0.3456  0.1862
14759TIP3   OH265767   5.510   0.026   2.176 -0.3515 -0.4042  0.2752
14759TIP3    H165768   5.578   0.083   2.142  0.8036 -1.9290 -0.0088
14759TIP3    H265769   5.551  -0.021   2.249 -0.8388 -1.9044 -0.3975
14760TIP3   OH265770   4.827   5.376  15.922 -0.4076  0.5756 -0.3649
14760TIP3    H165771   4.785   5.356  15.838 -1.5381  0.4702  0.2265
14760TIP3    H265772   4.772   5.444  15.960 -0.9470 -0.6984  1.1488
14761TIP3   OH265773   5.696   4.548   3.949 -0.0275  0.0676  0.0953
14761TIP3    H165774   5.664   4.607   3.881 -2.4913  0.1768  1.2838
14761TIP3    H265775   5.700   4.462   3.907  0.1085  0.4403 -0.6595
14762TIP3   OH265776   3.318   1.355  15.538  0.0819 -0.1883  0.1888
14762TIP3    H165777   3.398   1.304  15.525  0.0548  0.1838 -1.6583
14762TIP3    H265778   3.283   1.324  15.622  2.1217 -0.3754  0.9956
14763TIP3   OH265779   4.683   4.702  11.230  0.4398 -0.8223  0.5829
14763TIP3    H165780   4.687   4.607  11.240  0.7671 -0.7830  0.8285
14763TIP3    H265781   4.761   4.735  11.275 -0.6466 -0.3135  2.1370
14764TIP3   OH265782   1.036   0.040   5.950  0.2195 -0.4916 -0.0299
14764TIP3    H165783   0.963  -0.020   5.959  0.8276 -1.6370 -2.3998
14764TIP3    H265784   0.997   0.127   5.959 -1.1552 -1.1243  0.2410
14765TIP3   OH265785   0.262   5.470   1.940 -0.4018  0.1375  0.0161
14765TIP3    H165786   0.264   5.509   2.028 -0.7874  1.2022 -0.4327
14765TIP3    H265787   0.300   5.383   1.951  0.1881  0.5262  1.1109
14766TIP3   OH265788   2.386   0.990   2.117 -0.1519  0.7193 -0.5593
14766TIP3    H165789   2.380   0.968   2.024 -2.1133 -0.2052 -0.2241
14766TIP3    H265790   2.464   0.943   2.147 -0.9330 -1.0186 -1.1800
14767TIP3   OH265791   5.790   1.014  16.442 -0.4002  0.2403 -0.7518
14767TIP3    H165792   5.804   1.020  16.536 -1.5089 -1.0016 -0.5127
14767TIP3    H265793   5.831   1.093  16.407  1.0002  0.1610  0.6547
14768TIP3   OH265794   4.529   2.217   0.363  0.1656  0.1316 -0.3686
14768TIP3    H165795   4.523   2.142   0.422  1.8593 -1.1481 -1.7568
14768TIP3    H265796   4.440   2.231   0.332 -0.4073 -0.3916  1.0030
14769TIP3   OH265797   4.606   0.674  16.104  0.2754  0.1552  0.2997
14769TIP3    H165798   4.702   0.676  16.097  0.3736 -1.7223  0.7051
14769TIP3    H265799   4.587   0.706  16.192  0.4956  1.0014  0.0424
14770TIP3   OH265800   1.041   2.332   0.659  0.1738 -0.8384  0.2238
14770TIP3    H165801   1.057   2.425   0.641  2.1929 -0.7131  2.4000
14770TIP3    H265802   0.946   2.327   0.674  0.1514  1.0381  0.8887
14771TIP3   OH265803   3.805   0.137   5.737 -0.2558  0.2970  0.0150
14771TIP3    H165804   3.818   0.100   5.649  0.3147 -0.2063  0.3120
14771TIP3    H265805   3.843   0.072   5.796 -1.4600  0.2041  0.7007
14772TIP3   OH265806   5.352   0.032  15.108  0.4386  0.1014  0.1062
14772TIP3    H165807   5.302  -0.049  15.116 -0.5221  0.6738  0.0135
14772TIP3    H265808   5.399   0.039  15.191 -1.5936  0.8242  1.2505
14773TIP3   OH265809   3.500   5.302  12.501 -0.6085  0.7559 -0.0201
14773TIP3    H165810   3.518   5.393  12.528 -0.5441  1.2275 -1.6175
14773TIP3    H265811   3.414   5.306  12.460 -0.5931  0.0875 -0.1111
14774TIP3   OH265812   3.422   3.458  14.361 -0.3646 -0.2717 -0.4592
14774TIP3    H165813   3.411   3.553  14.361 -0.1178 -0.2387  0.2809
14774TIP3    H265814   3.464   3.439  14.445  1.8816 -0.7719 -1.6481
14775TIP3   OH265815   0.688   5.282  14.448  0.8294 -0.3317 -0.1902
14775TIP3    H165816   0.650   5.369  14.464  2.4105 -0.0145  2.1687
14775TIP3    H265817   0.751   5.296  14.377  1.8064  0.6947  0.8467
14776TIP3   OH265818   6.027   2.555   0.003 -0.0113 -0.1807 -0.6498
14776TIP3    H165819   6.078   2.597   0.072 -0.3325  0.0723 -0.5601
14776TIP3    H265820   6.063   2.467  -0.004  0.9799  0.2661 -1.1687
14777TIP3   OH265821   5.921   6.686  15.804 -0.2056  0.3599 -0.6099
14777TIP3    H165822   5.952   6.612  15.857  0.4415 -0.1906 -1.7345
14777TIP3    H265823   5.917   6.759  15.865  1.7135  0.0382 -0.0455
14778TIP3   OH265824   5.223   5.101  15.525 -0.3844  0.5304  0.3910
14778TIP3    H165825   5.263   5.015  15.510 -1.4763  0.3982 -1.9882
14778TIP3    H265826   5.290   5.150  15.573  0.7617 -1.2277  0.6419
14779TIP3   OH265827   3.523   3.015  12.927  0.1329  0.2950  0.6511
14779TIP3    H165828   3.548   2.954  12.858 -1.2625 -1.5704  1.7667
14779TIP3    H265829   3.493   2.960  12.999  0.1435  2.2561  2.1966
14780TIP3   OH265830   4.933   3.465   0.443  0.4686 -0.2690 -0.7404
14780TIP3    H165831   4.900   3.427   0.362  0.3266 -1.1854 -0.2636
14780TIP3    H265832   4.855   3.499   0.487  0.4712 -0.2892 -0.7197
14781TIP3   OH265833   0.085   0.540   1.854 -0.6700  0.5191 -0.0383
14781TIP3    H165834   0.156   0.573   1.909  1.1188 -1.3784 -1.1421
14781TIP3    H265835   0.036   0.618   1.829  1.0838  1.8805  0.6657
14782TIP3   OH265836   5.970   3.894  13.158 -0.1679 -0.0828  0.2746
14782TIP3    H165837   5.926   3.979  13.165 -0.1078  0.1391 -1.8356
14782TIP3    H265838   6.063   3.914  13.171 -0.2353  0.0631  0.5401
14783TIP3   OH265839   3.950   0.887  12.029  0.1867  0.1241 -0.0297
14783TIP3    H165840   3.989   0.961  11.982  1.6338 -0.3332  0.4339
14783TIP3    H265841   3.935   0.821  11.962 -0.2222  0.4645 -0.2809
14784TIP3   OH265842   2.729   6.167  12.282 -0.3025 -0.2410 -0.0490
14784TIP3    H165843   2.662   6.195  12.220 -1.3134  0.8468  1.5041
14784TIP3    H265844   2.682   6.114  12.346  0.5846 -0.6565  0.2660
14785TIP3   OH265845   0.196   5.716   1.660  0.3726 -0.9825  0.3889
14785TIP3    H165846   0.169   5.741   1.572  0.1248  2.0892  1.2749
14785TIP3    H265847   0.114   5.703   1.708  0.5050 -2.9623  0.1116
14786TIP3   OH265848   2.552   3.380   1.314 -0.4946  0.4399  0.2281
14786TIP3    H165849   2.614   3.318   1.352 -0.4791 -0.5798 -1.4407
14786TIP3    H265850   2.505   3.330   1.247 -1.8323  1.7045  0.1995
14787TIP3   OH265851   3.463   0.998  16.131  0.6868 -0.0501 -0.1370
14787TIP3    H165852   3.400   0.969  16.065  1.6979 -0.4684 -0.9354
14787TIP3    H265853   3.503   0.917  16.163  1.1532  0.2471  0.0263
14788TIP3   OH265854   5.846   1.352  16.262 -0.2421 -0.0314 -0.0690
14788TIP3    H165855   5.796   1.383  16.338  0.2893 -2.2828  1.2351
14788TIP3    H265856   5.926   1.315  16.299 -0.8913 -3.0028 -1.5267
14789TIP3   OH265857   5.239   5.189  16.731  0.2593  0.7085  0.0688
14789TIP3    H165858   5.239   5.167  16.638 -1.2343 -0.0391  0.2265
14789TIP3    H265859   5.317   5.242  16.744  0.9166  0.1174 -1.4500
14790TIP3   OH265860   5.665   5.303  14.193  0.2772 -0.2315  0.4339
14790TIP3    H165861   5.680   5.211  14.171  0.4601 -0.1286  0.1281
14790TIP3    H265862   5.634   5.301  14.284  0.2643 -0.5948  0.4230
14791TIP3   OH265863   3.650   4.245   6.122  0.2120  0.3642 -0.0514
14791TIP3    H165864   3.689   4.236   6.209 -1.8652  0.9489  0.9559
14791TIP3    H265865   3.604   4.162   6.107 -0.8863  0.9307  0.1518
14792TIP3   OH265866   3.285   3.650  11.044 -0.7208  0.2869  0.0125
14792TIP3    H165867   3.296   3.745  11.036 -0.1690  0.2278  0.1086
14792TIP3    H265868   3.367   3.613  11.013 -0.7170 -0.1421  0.5305
14793TIP3   OH265869   3.504   0.586   3.321  0.6336 -0.4098  0.5384
14793TIP3    H165870   3.452   0.538   3.255  1.4762 -0.1320 -0.3312
14793TIP3    H265871   3.562   0.520   3.359  1.0401 -0.3040  0.1011
14794TIP3   OH265872   6.403   2.252  12.035  0.2994  0.0715  0.5127
14794TIP3    H165873   6.460   2.274  12.109  0.8966 -0.0229  0.0871
14794TIP3    H265874   6.363   2.169  12.060 -0.7205  0.8285  1.4195
14795TIP3   OH265875   1.749   3.564   5.335  0.0124  0.1782  0.8718
14795TIP3    H165876   1.675   3.615   5.302  0.1480 -0.2899 -0.1697
14795TIP3    H265877   1.824   3.593   5.282  0.2117 -0.6555  0.6889
14796TIP3   OH265878   5.582   5.476   1.044 -1.0977 -0.2118 -0.3909
14796TIP3    H165879   5.588   5.444   1.134 -2.1271  1.0764  0.1358
14796TIP3    H265880   5.674   5.485   1.017 -0.7377  0.9802  1.1052
14797TIP3   OH265881   2.745   4.919   0.409  0.0891  0.3668  0.1361
14797TIP3    H165882   2.666   4.888   0.454 -0.2728 -0.8881 -1.3221
14797TIP3    H265883   2.718   4.929   0.318  1.1407  1.6962 -0.0519
14798TIP3   OH265884   1.594   2.745   6.254 -0.5661  0.2988  0.3880
14798TIP3    H165885   1.588   2.819   6.193  0.5120 -0.1326 -0.2409
14798TIP3    H265886   1.507   2.741   6.295 -1.2251  0.7328 -0.9429
14799TIP3   OH265887   3.745   5.407   4.993 -0.6873  0.6397 -0.1509
14799TIP3    H165888   3.782   5.492   4.972 -0.5068  0.3707 -0.9090
14799TIP3    H265889   3.772   5.391   5.084 -2.2529  2.2058  0.6210
14800TIP3   OH265890   3.991   2.084  16.636  0.3310  0.3212  0.5227
14800TIP3    H165891   3.956   1.999  16.610  0.1274  0.5344  0.1019
14800TIP3    H265892   3.928   2.119  16.699 -1.0837  1.4366 -1.4726
14801TIP3   OH265893   0.748   4.312  14.517 -0.0363  0.0361 -0.0413
14801TIP3    H165894   0.834   4.279  14.492  0.7880  0.7772  1.7929
14801TIP3    H265895   0.703   4.236  14.555  0.2736 -0.0255  0.1986
14802TIP3   OH265896   0.400   1.331   1.221 -0.5989  0.2097 -0.2302
14802TIP3    H165897   0.398   1.275   1.144 -0.3172  0.4492 -0.4110
14802TIP3    H265898   0.445   1.410   1.192 -2.0010  1.0081 -0.3121
14803TIP3   OH265899   5.289   6.043  16.997 -0.2344  0.1973  0.1427
14803TIP3    H165900   5.223   5.980  16.968 -2.7957  2.2532  1.2991
14803TIP3    H265901   5.331   6.072  16.916 -0.9022 -0.9808 -0.6452
14804TIP3   OH265902   1.470   6.661  12.366  0.3369  0.1264  0.1438
14804TIP3    H165903   1.548   6.692  12.320 -0.3038  0.0902 -0.9726
14804TIP3    H265904   1.503   6.635  12.452  1.4139  0.9243 -0.0055
14805TIP3   OH265905   2.179   3.405  16.122 -0.2773  0.7608 -0.5857
14805TIP3    H165906   2.174   3.486  16.070  2.1662  0.9695 -0.5411
14805TIP3    H265907   2.088   3.384  16.141 -1.1815  1.4552 -3.7812
14806TIP3   OH265908   3.937   5.538   5.542  0.2006  0.2131  0.2309
14806TIP3    H165909   3.884   5.479   5.489 -0.8455  1.3767 -0.0120
14806TIP3    H265910   4.025   5.499   5.539 -0.0911 -0.3630 -1.3949
14807TIP3   OH265911   4.289   4.961  14.924  0.0417  0.2148  0.2590
14807TIP3    H165912   4.226   4.998  14.985 -1.1870 -1.6553  0.1255
14807TIP3    H265913   4.295   5.027  14.854  2.1796  2.8218  2.7703
14808TIP3   OH265914   6.320   2.215   4.943  0.2948  0.1891  0.1528
14808TIP3    H165915   6.392   2.174   4.991  1.0300  0.4339 -0.7304
14808TIP3    H265916   6.354   2.227   4.855  0.3775  3.4447  0.5923
14809TIP3   OH265917   1.108   6.242  16.512 -0.0902  0.7549  0.7436
14809TIP3    H165918   1.144   6.296  16.442 -1.5908  0.3204 -0.3751
14809TIP3    H265919   1.148   6.277  16.592 -0.1304  2.7548 -0.0826
14810TIP3   OH265920   5.132   3.897   2.872  0.2509 -0.5878 -0.2547
14810TIP3    H165921   5.140   3.804   2.893  0.2881 -0.5678 -0.1795
14810TIP3    H265922   5.155   3.942   2.954  0.6916 -0.5038 -0.4225
14811TIP3   OH265923   6.451   3.995  15.545  0.2677  0.5958 -0.0217
14811TIP3    H165924   6.419   3.914  15.507  0.0864  0.6408  0.0352
14811TIP3    H265925   6.541   4.003  15.513 -0.0196  0.8453 -0.7871
14812TIP3   OH265926   1.641   2.112  14.370  0.3261  0.5482 -0.3098
14812TIP3    H165927   1.692   2.071  14.299  0.2215  0.5307 -0.3751
14812TIP3    H265928   1.682   2.197  14.382 -0.3854  1.0160 -1.1847
14813TIP3   OH265929   6.419   1.016   5.916  0.3396 -0.2032  0.4035
14813TIP3    H165930   6.363   0.978   5.848  1.0347 -0.5128 -0.0001
14813TIP3    H265931   6.506   1.019   5.877  0.8881 -1.0036  1.5016
14814TIP3   OH265932   2.966   2.345  12.725 -0.1408  0.1745 -0.0011
14814TIP3    H165933   2.877   2.318  12.746  0.1708  0.3364  1.6210
14814TIP3    H265934   2.979   2.428  12.772 -0.3048  2.0051 -3.0843
14815TIP3   OH265935   5.231   0.450   3.260 -0.0899  0.0882  0.1054
14815TIP3    H165936   5.211   0.533   3.217 -0.8511 -1.1685 -2.0899
14815TIP3    H265937   5.209   0.464   3.352  0.0214  2.3607 -0.1776
14816TIP3   OH265938   1.245   6.047  16.899  0.0057  0.2071  0.4658
14816TIP3    H165939   1.321   6.103  16.883 -0.8294  1.4180  0.6582
14816TIP3    H265940   1.241   5.989  16.823  1.0726  0.1778  0.4294
14817TIP3   OH265941   4.208   4.788  12.904 -0.1554  0.1756 -0.3625
14817TIP3    H165942   4.203   4.721  12.836  0.0892  2.4935 -2.7110
14817TIP3    H265943   4.124   4.782  12.950  0.1360 -2.1774 -0.0686
14818TIP3   OH265944   3.811   2.746   5.213 -0.1734  0.0845 -0.1678
14818TIP3    H165945   3.779   2.659   5.237  0.6555  0.2520  1.5886
14818TIP3    H265946   3.764   2.767   5.132 -0.2807 -2.0394 -0.6733
14819TIP3   OH265947   3.334   0.494   2.230 -0.0796 -0.2263  0.5708
14819TIP3    H165948   3.327   0.492   2.326  2.2620 -0.4089  0.7762
14819TIP3    H265949   3.401   0.428   2.210 -0.2352  0.1243 -1.1626
14820TIP3   OH265950   4.643   3.306  11.471 -0.6923 -0.0482 -0.7906
14820TIP3    H165951   4.625   3.386  11.521 -3.2027 -0.5107 -0.9081
14820TIP3    H265952   4.571   3.247  11.494  1.9606 -2.8715  0.4843
14821TIP3   OH265953   6.494   2.202   0.099  0.1362  0.2622  0.0729
14821TIP3    H165954   6.407   2.163   0.092 -0.3955  1.3683  0.3306
14821TIP3    H265955   6.553   2.129   0.115 -0.7886 -0.4652  0.1492
14822TIP3   OH265956   2.580   6.540   4.743 -0.3293  0.0116  0.2171
14822TIP3    H165957   2.535   6.491   4.812  0.5065 -2.1087 -0.6885
14822TIP3    H265958   2.629   6.473   4.695 -0.3390  1.5484 -1.9864
14823TIP3   OH265959   1.483   2.546   1.666  0.1173 -0.1899  0.1171
14823TIP3    H165960   1.569   2.566   1.631  1.4619 -2.6036  1.9248
14823TIP3    H265961   1.497   2.532   1.760 -2.3993  0.2496  0.6206
14824TIP3   OH265962   4.113   2.881  11.725  0.3615 -0.1522 -0.3685
14824TIP3    H165963   4.160   2.863  11.644  2.4903  0.0737  0.7656
14824TIP3    H265964   4.083   2.795  11.755 -0.6159 -0.2089 -1.4843
14825TIP3   OH265965   1.275   2.366   4.914 -0.2217 -0.5405  0.0989
14825TIP3    H165966   1.259   2.366   5.008  0.6264 -0.2043  0.2462
14825TIP3    H265967   1.366   2.340   4.905 -0.1504 -0.0490 -0.6071
14826TIP3   OH265968   3.180   1.287  11.649 -0.5616 -0.5959 -0.8026
14826TIP3    H165969   3.088   1.264  11.644 -0.7708  0.6141 -3.0125
14826TIP3    H265970   3.181   1.382  11.658  0.4620 -0.6824  0.1502
14827TIP3   OH265971   3.787   5.863  16.572  0.2088 -0.2347 -0.5461
14827TIP3    H165972   3.812   5.815  16.493 -0.0932  0.0810 -0.8350
14827TIP3    H265973   3.869   5.874  16.620  0.3312 -0.7587 -0.6287
14828TIP3   OH265974   5.194   5.853  16.589  0.6204  0.2128  0.1558
14828TIP3    H165975   5.219   5.924  16.530 -0.2518 -0.7048 -1.3545
14828TIP3    H265976   5.102   5.836  16.568  0.7871 -1.2752  0.5878
14829TIP3   OH265977   0.878   2.569  11.471  0.4610 -0.0629  0.4608
14829TIP3    H165978   0.837   2.637  11.418  1.2255  1.4855  1.8046
14829TIP3    H265979   0.972   2.581  11.458  0.6106 -3.3566 -2.3240
14830TIP3   OH265980   6.584   5.761  17.100 -0.1065  0.0298 -0.5671
14830TIP3    H165981   6.620   5.673  17.089 -1.4209 -0.3251 -2.1102
14830TIP3    H265982   6.636   5.816  17.042  0.6075  0.2710  0.2779
14831TIP3   OH265983   2.398   5.820  15.504 -0.4020  0.1006  0.3809
14831TIP3    H165984   2.316   5.866  15.486 -0.8786 -0.0078  2.1269
14831TIP3    H265985   2.427   5.788  15.419 -1.0572  1.9742 -0.5846
14832TIP3   OH265986   6.592   1.109   1.991  0.3066  0.3130  0.3273
14832TIP3    H165987   6.603   1.155   1.908  0.4992  1.3423  0.9153
14832TIP3    H265988   6.575   1.018   1.966  1.4961  0.3897 -0.8086
14833TIP3   OH265989   1.478   4.078   1.999 -1.0387 -0.2803 -0.0288
14833TIP3    H165990   1.432   4.160   2.019  1.6077  0.5750  3.0451
14833TIP3    H265991   1.497   4.040   2.085  3.5897 -0.7512 -1.1501
14834TIP3   OH265992   1.124   0.389   1.387  0.5925  0.4170  0.0898
14834TIP3    H165993   1.163   0.437   1.314  2.0781  0.0010  0.5945
14834TIP3    H265994   1.163   0.428   1.465 -0.4853  0.4100  0.6520
14835TIP3   OH265995   1.833   0.895  13.778  0.1151  0.1170 -0.4792
14835TIP3    H165996   1.824   0.907  13.872 -3.5913  1.6289 -0.9298
14835TIP3    H265997   1.860   0.981  13.745 -1.2243  0.3514 -1.0241
14836TIP3   OH265998   1.610   0.415   0.235 -0.3914  0.1333  0.0479
14836TIP3    H165999   1.576   0.470   0.164  0.0159 -1.3203 -1.2950
14836TIP3    H266000   1.675   0.471   0.278 -2.2040  1.8072  0.6904
14837TIP3   OH266001   4.263   1.976  12.518  0.0777 -0.2542 -0.0924
14837TIP3    H166002   4.287   1.956  12.427  0.8398 -2.4224  0.5615
14837TIP3    H266003   4.173   2.007  12.513  0.1355 -0.2996 -1.6047
14838TIP3   OH266004   1.368   5.949  14.318 -0.2872  0.2776 -0.5011
14838TIP3    H166005   1.434   6.018  14.315 -0.8839  0.7993 -3.7115
14838TIP3    H266006   1.401   5.882  14.258  0.0642 -2.0855  2.2325
14839TIP3   OH266007   4.820   0.086  13.764  0.4105 -0.2761 -0.0952
14839TIP3    H166008   4.758   0.115  13.830 -1.7312  1.7707 -2.9131
14839TIP3    H266009   4.789  -0.001  13.738  2.0875 -1.7273  2.4838
14840TIP3   OH266010   1.726   2.678  13.058 -0.1061 -0.2191  0.7465
14840TIP3    H166011   1.701   2.742  13.125 -0.4488 -0.8227  1.1972
14840TIP3    H266012   1.820   2.692  13.044 -0.2045  0.4650  0.7514
14841TIP3   OH266013   6.803   3.011  13.069  0.1391  0.5582 -0.2571
14841TIP3    H166014   6.740   3.030  13.000 -0.1841  2.4894  0.5631
14841TIP3    H266015   6.886   3.044  13.036  0.3980 -0.3721 -0.5701
14842TIP3   OH266016   5.903   2.698  13.640 -0.4057 -0.3023 -0.3980
14842TIP3    H166017   5.843   2.666  13.573 -0.4391 -0.8698 -0.0935
14842TIP3    H266018   5.969   2.629  13.648 -1.3457 -1.0198  1.3859
14843TIP3   OH266019   0.750   5.381  17.195  0.3102  0.2400 -0.5154
14843TIP3    H166020   0.808   5.397  17.270 -1.5529  0.5543  0.9127
14843TIP3    H266021   0.690   5.313  17.226  0.0189 -0.2002 -2.0116
14844TIP3   OH266022   1.739   6.338   5.429  0.4671  0.0398 -0.3080
14844TIP3    H166023   1.706   6.400   5.495 -2.4542 -1.3730 -0.3489
14844TIP3    H266024   1.828   6.318   5.458  0.6888  2.5480  0.9184
14845TIP3   OH266025   0.364   3.945  14.347 -0.0656  0.2581 -0.3206
14845TIP3    H166026   0.306   4.021  14.354  0.9348  1.1839 -1.7577
14845TIP3    H266027   0.440   3.977  14.298  0.1090 -1.8163 -1.4802
14846TIP3   OH266028   5.499   2.913   0.808  0.4715 -0.0576 -0.0009
14846TIP3    H166029   5.593   2.918   0.829  0.3903 -0.3156  0.4398
14846TIP3    H266030   5.461   2.987   0.856  0.3761 -0.2683  0.2504
14847TIP3   OH266031   6.042   4.432  12.416  0.1686  0.0319 -0.3066
14847TIP3    H166032   6.083   4.518  12.414 -0.1788  0.2703  1.6589
14847TIP3    H266033   6.100   4.379  12.471 -0.9188 -0.2665  0.5811
14848TIP3   OH266034   0.177   2.795  11.198  0.4119 -0.0906  0.3475
14848TIP3    H166035   0.193   2.766  11.288  0.4414 -1.1149  0.0207
14848TIP3    H266036   0.255   2.766  11.150 -1.2050 -2.8680 -0.7549
14849TIP3   OH266037   0.427   3.994  13.402 -0.2201 -0.0187 -0.1119
14849TIP3    H166038   0.393   3.992  13.312 -1.9478 -0.1192  0.5214
14849TIP3    H266039   0.443   3.902  13.424  1.9233  0.1310 -0.9230
14850TIP3   OH266040   6.077   0.193   5.808 -0.1650 -0.3035  0.1867
14850TIP3    H166041   6.153   0.138   5.831  1.1542  0.9838 -0.9621
14850TIP3    H266042   6.066   0.251   5.883  1.5450  1.1263 -0.6170
14851TIP3   OH266043   6.349   4.712  11.864 -0.1244 -0.0051  0.4696
14851TIP3    H166044   6.393   4.645  11.917 -2.1538 -2.4387 -0.8140
14851TIP3    H266045   6.387   4.702  11.777 -1.2543 -0.3167 -0.0027
14852TIP3   OH266046   1.791   2.658   4.395  0.6096 -0.2634 -0.2450
14852TIP3    H166047   1.873   2.701   4.368  0.5637  0.2074  0.3763
14852TIP3    H266048   1.794   2.573   4.350  3.9830 -2.5134  3.8424
14853TIP3   OH266049   4.509   2.492  14.549 -0.1447 -0.2186 -0.1326
14853TIP3    H166050   4.459   2.502  14.630  1.4497 -0.2720  0.8993
14853TIP3    H266051   4.573   2.423  14.569  0.1688 -0.3348 -1.4945
14854TIP3   OH266052   5.955   4.971  13.084 -0.6262  0.3132 -0.5453
14854TIP3    H166053   6.026   4.965  13.021  0.4476  0.4367  0.6477
14854TIP3    H266054   5.947   5.064  13.103  0.5217  0.0745  1.1583
14855TIP3   OH266055   4.955   3.084   4.834 -0.1068 -0.2481  0.1489
14855TIP3    H166056   4.931   3.109   4.923  1.5290  1.8518  0.0500
14855TIP3    H266057   4.874   3.054   4.794 -1.1444  0.1955  1.8832
14856TIP3   OH266058   4.096   6.070   5.411  0.3523 -0.4590 -0.3552
14856TIP3    H166059   4.011   6.029   5.425  0.6886 -0.8350  0.7040
14856TIP3    H266060   4.097   6.094   5.319 -0.6764 -0.9638 -0.5048
14857TIP3   OH266061   2.799   0.631   2.174  1.0884 -0.0942  0.1459
14857TIP3    H166062   2.742   0.615   2.099 -0.0137  2.8665  0.2952
14857TIP3    H266063   2.882   0.589   2.150 -0.5495 -2.9474 -0.8290
14858TIP3   OH266064   2.841   3.934   0.336  0.2985 -0.1400 -0.5313
14858TIP3    H166065   2.905   3.868   0.309  0.6003  0.1942 -0.6492
14858TIP3    H266066   2.759   3.886   0.347  0.5201 -0.5361 -0.5921
14859TIP3   OH266067   4.563   4.313  12.146 -0.9697 -0.1982  0.2038
14859TIP3    H166068   4.641   4.351  12.185 -1.3750  2.2685 -1.2477
14859TIP3    H266069   4.490   4.351  12.195 -1.3343 -0.5398 -0.0572
14860TIP3   OH266070   0.827   0.776   0.910  0.4111 -0.4765 -0.4073
14860TIP3    H166071   0.862   0.765   0.822 -0.9427  0.5510 -1.0783
14860TIP3    H266072   0.891   0.732   0.967  2.1563  0.3365 -1.7223
14861TIP3   OH266073   3.658   6.623  16.120 -0.2476  0.1839 -0.0350
14861TIP3    H166074   3.718   6.550  16.135  2.4407  2.4427  0.7169
14861TIP3    H266075   3.668   6.644  16.027  0.3075  0.6852  0.1326
14862TIP3   OH266076   2.997   6.165   0.115  0.5243 -0.2748  0.1570
14862TIP3    H166077   3.011   6.240   0.057 -0.6803 -1.0322 -1.1518
14862TIP3    H266078   3.085   6.144   0.148  0.8217  1.9001  0.8078
14863TIP3   OH266079   2.404   5.332   0.799  0.3067 -1.1794 -0.4445
14863TIP3    H166080   2.340   5.394   0.834  2.7304  1.3193 -0.2438
14863TIP3    H266081   2.415   5.358   0.707  2.7310  0.0172  0.1265
14864TIP3   OH266082   3.600   3.217  11.948 -0.0476  0.8551 -0.3024
14864TIP3    H166083   3.660   3.266  12.005  0.5042  1.1671 -1.1269
14864TIP3    H266084   3.619   3.251  11.860 -0.5504  0.0496 -0.7248
14865TIP3   OH266085   5.311   4.855  14.693  0.1836  0.1002 -0.4601
14865TIP3    H166086   5.308   4.892  14.604  0.7909  0.4475 -0.3414
14865TIP3    H266087   5.404   4.861  14.718 -0.2923  1.9109  0.9887
14866TIP3   OH266088   3.384   4.119   2.602 -0.2109  0.2475  0.4035
14866TIP3    H166089   3.372   4.202   2.648  0.6767  0.8086 -0.3443
14866TIP3    H266090   3.368   4.052   2.668  0.1519  1.0259  1.2938
14867TIP3   OH266091   5.343   2.486  13.532  0.5007 -0.0224  0.1076
14867TIP3    H166092   5.422   2.446  13.568 -0.3790 -0.4569  1.5743
14867TIP3    H266093   5.341   2.456  13.440  2.3581  0.5075 -0.1178
14868TIP3   OH266094   4.483   6.698   4.978  0.3085  0.1414  0.1504
14868TIP3    H166095   4.505   6.676   5.068  0.9143 -0.5477 -0.1616
14868TIP3    H266096   4.466   6.793   4.980 -0.4404  0.0036  1.1279
14869TIP3   OH266097   3.964   3.515   4.448  0.3835 -0.4535  0.1387
14869TIP3    H166098   3.875   3.480   4.450  0.4700 -0.6296  1.6655
14869TIP3    H266099   4.019   3.444   4.482  1.2350 -0.6584 -1.6136
14870TIP3   OH266100   5.735   6.203   4.635  0.2826 -0.1386  0.5037
14870TIP3    H166101   5.656   6.244   4.671 -0.4881 -0.3847 -0.9102
14870TIP3    H266102   5.717   6.191   4.542  1.5083 -1.3295  0.3960
14871TIP3   OH266103   2.782   1.826   0.194 -0.6083  0.3330 -0.1025
14871TIP3    H166104   2.790   1.894   0.126  0.9892  0.4645  0.2112
14871TIP3    H266105   2.798   1.873   0.276  1.0646 -0.5198  0.0744
14872TIP3   OH266106   0.465   5.803  16.826 -0.0516  0.1656  0.9699
14872TIP3    H166107   0.429   5.848  16.903  1.7856  0.1810  1.8492
14872TIP3    H266108   0.540   5.754  16.860  0.3213 -0.4447 -0.6893
14873TIP3   OH266109   0.224   6.643   3.140  0.8102  1.1593  0.3004
14873TIP3    H166110   0.130   6.642   3.158  0.4555  0.3917 -1.4701
14873TIP3    H266111   0.259   6.712   3.196 -0.4670 -0.0267  2.6280
14874TIP3   OH266112   1.592   1.373  16.639 -0.3077 -0.1008 -0.0367
14874TIP3    H166113   1.605   1.428  16.561  0.6487  0.1698  0.3134
14874TIP3    H266114   1.518   1.317  16.616 -0.9313  0.9378 -0.6116
14875TIP3   OH266115   6.247   0.036  16.797 -0.2011 -0.4975  0.6268
14875TIP3    H166116   6.296  -0.047  16.795 -0.8173 -0.8312 -1.9506
14875TIP3    H266117   6.177   0.020  16.860 -1.5455 -2.7105 -1.3218
14876TIP3   OH266118   1.061   4.327   5.276  0.3455  0.5673 -0.1156
14876TIP3    H166119   1.146   4.305   5.238  0.2503 -2.9777  1.5052
14876TIP3    H266120   1.009   4.247   5.266 -2.2458  2.1102  0.4952
14877TIP3   OH266121   5.052   4.423   2.051  0.1097 -0.0986 -0.2656
14877TIP3    H166122   5.046   4.444   2.144  0.2357 -1.7937  0.1476
14877TIP3    H266123   4.962   4.426   2.020 -0.0108 -0.2012  0.0719
14878TIP3   OH266124   5.769   4.048  10.801  0.3649  0.4886  0.5621
14878TIP3    H166125   5.720   3.974  10.764 -1.0453  1.5406  0.2461
14878TIP3    H266126   5.776   4.028  10.894  0.2249 -0.1674  0.4340
14879TIP3   OH266127   1.389   4.206  16.958 -0.5716  0.2217  0.3266
14879TIP3    H166128   1.306   4.160  16.942 -1.3575  0.8662  2.3178
14879TIP3    H266129   1.439   4.147  17.014  0.3544 -0.1945 -0.9341
14880TIP3   OH266130   1.881   6.436  15.260 -0.2256 -0.4342 -1.1029
14880TIP3    H166131   1.921   6.352  15.237  0.2021 -0.3332 -0.7442
14880TIP3    H266132   1.790   6.427  15.235  0.1930 -0.3911 -2.6553
14881TIP3   OH266133   3.790   0.690   0.231  0.0715 -0.0867 -0.4171
14881TIP3    H166134   3.786   0.634   0.154 -0.1242 -0.0794 -0.4111
14881TIP3    H266135   3.823   0.774   0.199 -2.5263  0.7749 -0.9652
14882TIP3   OH266136   4.836   6.090   5.166 -0.2137  0.7159  0.2923
14882TIP3    H166137   4.783   6.040   5.228 -1.7184  2.3427  0.3521
14882TIP3    H266138   4.786   6.089   5.085 -0.1376  1.9239  0.2298
14883TIP3   OH266139   1.552   6.231   2.308  0.4778  0.0733  0.7850
14883TIP3    H166140   1.643   6.214   2.281  0.2456  1.5624 -0.9938
14883TIP3    H266141   1.560   6.292   2.382  0.9124  0.2317  0.6072
14884TIP3   OH266142   5.596   6.671  12.898 -0.0919  0.1911  0.1791
14884TIP3    H166143   5.572   6.615  12.824  0.4213 -1.0287  0.9140
14884TIP3    H266144   5.534   6.743  12.895 -0.4992 -0.2022 -1.0445
14885TIP3   OH266145   3.838   1.863   4.439  0.6094  0.3015 -0.3071
14885TIP3    H166146   3.868   1.895   4.353  0.0883 -0.4687 -0.7771
14885TIP3    H266147   3.918   1.852   4.490  0.9777  0.0585 -0.9372
14886TIP3   OH266148   0.257   2.256  16.184  0.2486 -0.4941 -0.0153
14886TIP3    H166149   0.187   2.291  16.239 -0.1073 -1.0631 -0.0980
14886TIP3    H266150   0.214   2.235  16.101  0.7557  0.2346 -0.4640
14887TIP3   OH266151   4.028   0.099  15.768  0.2298  0.6804  0.0207
14887TIP3    H166152   4.091   0.034  15.737  0.3037  1.4392 -1.4786
14887TIP3    H266153   3.962   0.049  15.816  1.7385 -0.1774  1.2495
14888TIP3   OH266154   4.120   4.298   3.742 -0.0515  0.0323 -0.1438
14888TIP3    H166155   4.166   4.261   3.817 -1.3550 -0.2725  0.5215
14888TIP3    H266156   4.079   4.223   3.699  1.2125  0.1266 -1.5340
14889TIP3   OH266157   3.856   5.255  15.859  0.2052 -0.1294  0.4060
14889TIP3    H166158   3.947   5.284  15.857  0.9412 -2.3740 -0.4187
14889TIP3    H266159   3.817   5.290  15.780  0.8019 -0.5167 -0.0626
14890TIP3   OH266160   4.122   3.913   4.447 -0.0405 -0.5994 -0.6308
14890TIP3    H166161   4.053   3.955   4.498  1.1509  0.1402  0.3775
14890TIP3    H266162   4.080   3.893   4.363 -0.7949  2.1707 -0.9805
14891TIP3   OH266163   6.461   0.777   0.096 -1.2487  0.3152 -0.1851
14891TIP3    H166164   6.496   0.709   0.038  1.3676  0.1860  1.4317
14891TIP3    H266165   6.395   0.732   0.149 -3.2322  0.2991 -2.6171
14892TIP3   OH266166   3.561   1.042  11.691  0.4439 -0.2094 -0.5807
14892TIP3    H166167   3.587   1.035  11.783  1.3363  0.8820 -0.7290
14892TIP3    H266168   3.644   1.060  11.645 -0.1330  0.2068 -1.4665
14893TIP3   OH266169   4.303   3.037   2.111 -1.4173  0.2006  0.1781
14893TIP3    H166170   4.254   3.105   2.156  0.6784 -0.3959  3.5392
14893TIP3    H266171   4.255   2.957   2.129 -0.9690  0.0656  0.8151
14894TIP3   OH266172   2.369   6.149   0.504 -0.1735 -0.1704  0.0650
14894TIP3    H166173   2.353   6.101   0.423  0.0130 -1.3077  0.6974
14894TIP3    H266174   2.452   6.116   0.537  0.1801  0.9074  0.2802
14895TIP3   OH266175   3.409   1.655   2.701 -0.1965 -0.2169  0.2350
14895TIP3    H166176   3.358   1.645   2.621  0.7218  0.1300 -0.3971
14895TIP3    H266177   3.472   1.724   2.682 -0.6882  0.6620  1.6306
14896TIP3   OH266178   1.834   4.818  17.240 -0.1277  0.0311 -0.1495
14896TIP3    H166179   1.872   4.903  17.263  0.6484 -0.4676  0.4166
14896TIP3    H266180   1.827   4.820  17.145  1.4473  0.0744 -0.2731
14897TIP3   OH266181   2.635   3.319  12.668 -0.0540 -0.3444 -0.3369
14897TIP3    H166182   2.666   3.374  12.740  1.6880 -1.1861 -0.4001
14897TIP3    H266183   2.656   3.369  12.589 -3.2383  1.2070 -0.2582
14898TIP3   OH266184   6.666   0.078  15.974  0.5015 -0.1212  0.4801
14898TIP3    H166185   6.755   0.090  16.009  0.7511  2.1246 -0.8054
14898TIP3    H266186   6.609   0.097  16.048  1.0859  0.1999  0.8596
14899TIP3   OH266187   1.022   4.319  17.057 -0.4231  0.6506  0.2081
14899TIP3    H166188   0.982   4.266  17.125  0.4673  0.0790  0.3003
14899TIP3    H266189   1.013   4.267  16.977  1.0820  0.0309  0.4266
14900TIP3   OH266190   2.990   2.257   0.838  0.3505 -0.1646  0.3970
14900TIP3    H166191   2.943   2.234   0.918  0.0601 -0.7369  0.0658
14900TIP3    H266192   3.082   2.249   0.861  0.2713  0.3808  0.8832
14901TIP3   OH266193   1.861   5.205  14.322 -0.3819  0.0945  0.3190
14901TIP3    H166194   1.901   5.190  14.237  0.9382 -0.4976  1.0270
14901TIP3    H266195   1.876   5.298  14.340  0.3020 -0.0286  0.3896
14902TIP3   OH266196   4.743   3.422   0.270 -0.2715 -0.1807  0.7461
14902TIP3    H166197   4.728   3.516   0.262  2.5516  0.3292  0.9676
14902TIP3    H266198   4.665   3.389   0.314 -1.9905  1.8004 -0.6903
14903TIP3   OH266199   0.373   5.050   1.360  0.0159 -0.7213  0.5914
14903TIP3    H166200   0.403   5.090   1.441 -2.5285  1.7476  0.3892
14903TIP3    H266201   0.426   4.971   1.351  0.4513 -0.9619  4.5400
14904TIP3   OH266202   3.772   0.447  15.739 -0.2238 -0.1438 -0.0883
14904TIP3    H166203   3.684   0.447  15.701 -0.6860  0.9408  0.9284
14904TIP3    H266204   3.828   0.413  15.669 -1.1903  0.8407 -1.3895
14905TIP3   OH266205   1.054   0.088  13.724  0.4752 -0.2263 -0.0923
14905TIP3    H166206   1.031   0.011  13.673  0.1290  1.2738 -2.2752
14905TIP3    H266207   1.090   0.149  13.660  2.6030  0.6930  1.9191
14906TIP3   OH266208   1.383   2.171   4.279  0.0121  0.0727 -0.2996
14906TIP3    H166209   1.391   2.075   4.273 -1.4432 -0.1724  1.3644
14906TIP3    H266210   1.452   2.197   4.340 -0.0398  0.0259 -0.2224
14907TIP3   OH266211   4.994   6.357   1.301  0.3810 -0.2317  0.5235
14907TIP3    H166212   5.054   6.283   1.309  0.1406 -0.4081  0.7133
14907TIP3    H266213   4.981   6.368   1.207 -0.7155 -1.3504  0.5261
14908TIP3   OH266214   3.764   4.627  15.907 -0.3985  0.2255  0.0589
14908TIP3    H166215   3.833   4.651  15.845 -1.7140  0.9741 -1.1437
14908TIP3    H266216   3.757   4.702  15.965  0.2403 -0.1213  0.5917
14909TIP3   OH266217   5.702   3.521  14.103 -0.0617 -0.3040  0.0202
14909TIP3    H166218   5.692   3.473  14.021 -1.6977  0.8577 -0.4878
14909TIP3    H266219   5.731   3.455  14.166  0.2504 -1.4111 -1.2579
14910TIP3   OH266220   0.317   5.502   1.400 -0.1354 -0.2735  0.1240
14910TIP3    H166221   0.264   5.469   1.472 -1.3918  1.0394 -0.1541
14910TIP3    H266222   0.253   5.543   1.341  1.0891  0.4746 -0.7119
14911TIP3   OH266223   6.657   2.375  14.106 -0.2738  0.2567  0.2401
14911TIP3    H166224   6.706   2.317  14.165 -0.4845  0.6840  0.8435
14911TIP3    H266225   6.659   2.331  14.021  1.7004  0.5697  0.1012
14912TIP3   OH266226   2.935   4.474   4.504 -0.2245  0.2047  0.8703
14912TIP3    H166227   2.978   4.388   4.510  0.4065  0.3691 -0.9649
14912TIP3    H266228   2.850   4.455   4.466 -0.1910  0.3642  0.7179
14913TIP3   OH266229   1.448   0.837   2.931  0.3862 -0.2701 -0.4753
14913TIP3    H166230   1.500   0.819   3.009  0.0446 -0.2581 -0.2436
14913TIP3    H266231   1.512   0.862   2.864  0.6136  0.4024 -0.0048
14914TIP3   OH266232   1.703   2.990  17.060  0.1817  0.3781 -0.7682
14914TIP3    H166233   1.685   2.908  17.014  0.3387  0.2138 -0.5357
14914TIP3    H266234   1.793   3.013  17.034  0.4658  0.0054 -0.1195
14915TIP3   OH266235   3.881   4.424  16.261  0.4539  0.4913  0.3237
14915TIP3    H166236   3.936   4.457  16.332 -0.6415  0.0307  1.4165
14915TIP3    H266237   3.795   4.412  16.301 -0.9725  3.0701 -1.8359
14916TIP3   OH266238   3.955   2.331  16.225 -0.6033  0.3228 -0.2770
14916TIP3    H166239   3.890   2.380  16.274  0.2421 -0.2843  1.4914
14916TIP3    H266240   4.028   2.392  16.213 -0.4107  0.1693  0.0922
14917TIP3   OH266241   3.706   1.524  13.011 -0.4671  0.7629  0.0441
14917TIP3    H166242   3.678   1.604  13.055 -0.3579  1.2804 -0.8208
14917TIP3    H266243   3.764   1.554  12.940 -0.8843 -0.0409 -0.6447
14918TIP3   OH266244   2.346   5.445  12.510  0.1677  0.5054 -0.2363
14918TIP3    H166245   2.406   5.520  12.507 -0.3517  0.9174 -0.4757
14918TIP3    H266246   2.294   5.459  12.589  0.6715 -0.0709  0.1944
14919TIP3   OH266247   0.396   0.578  14.734  0.5745 -0.2297 -0.1973
14919TIP3    H166248   0.342   0.613  14.663 -1.5282 -1.9930  0.4824
14919TIP3    H266249   0.443   0.654  14.769 -1.4333  1.3324 -0.8501
14920TIP3   OH266250   0.592   0.235   3.385 -0.0658 -0.6311  0.4744
14920TIP3    H166251   0.686   0.231   3.367 -0.0645  0.4547  0.1761
14920TIP3    H266252   0.586   0.259   3.477 -0.0406 -0.1420  0.3518
14921TIP3   OH266253   2.423   0.537  14.148  0.0577  0.4492 -0.2983
14921TIP3    H166254   2.367   0.465  14.177  1.1146 -1.2073 -2.1913
14921TIP3    H266255   2.511   0.511  14.177  0.4373  1.0313 -0.9160
14922TIP3   OH266256   1.209   0.407  14.688  0.3080 -0.3854 -0.2548
14922TIP3    H166257   1.173   0.380  14.772  2.2188 -2.2023  0.0328
14922TIP3    H266258   1.244   0.495  14.704 -4.0504  1.5039 -0.6145
14923TIP3   OH266259   0.816   1.249  10.994  0.1831 -0.0313  0.0650
14923TIP3    H166260   0.731   1.290  11.007  0.3192  0.4234 -0.4518
14923TIP3    H266261   0.830   1.252  10.899  1.3853  1.1370  0.2599
14924TIP3   OH266262   1.284   3.592   2.133  0.2826  0.0403 -0.5041
14924TIP3    H166263   1.367   3.576   2.177 -0.0567  0.4135  0.2726
14924TIP3    H266264   1.298   3.672   2.083 -0.1414  1.0833  1.0090
14925TIP3   OH266265   3.590   1.452  13.668 -0.2027  0.6501 -0.1952
14925TIP3    H166266   3.673   1.487  13.635 -0.5186  1.2195 -0.3896
14925TIP3    H266267   3.535   1.529  13.681 -1.4413  0.1327 -2.0888
14926TIP3   OH266268   1.121   4.837  11.099  0.0715 -0.3644 -0.1269
14926TIP3    H166269   1.216   4.836  11.113  0.2981  0.1187 -1.5308
14926TIP3    H266270   1.107   4.772  11.030 -0.4869  0.3576 -0.6961
14927TIP3   OH266271   4.012   4.183  13.006 -0.1660 -0.2715 -0.4621
14927TIP3    H166272   3.952   4.218  13.072 -0.5712 -1.8474  0.0233
14927TIP3    H266273   4.007   4.088  13.017  2.7464 -0.4384 -0.1249
14928TIP3   OH266274   3.654   6.289  14.006 -0.0471 -0.3030 -0.2634
14928TIP3    H166275   3.571   6.289  14.054 -0.4689  1.5485 -0.9358
14928TIP3    H266276   3.637   6.240  13.926 -0.5121  0.0751 -0.3984
14929TIP3   OH266277   2.912   0.120  17.083  0.1115  0.0517 -0.2822
14929TIP3    H166278   2.918   0.208  17.119 -0.6823  0.0484 -0.1313
14929TIP3    H266279   2.957   0.125  16.998 -0.0719  0.6409 -0.3445
14930TIP3   OH266280   1.606   2.443  14.552 -0.2796  0.1117  0.6492
14930TIP3    H166281   1.667   2.417  14.483 -1.8987 -3.4412  0.4389
14930TIP3    H266282   1.658   2.443  14.632  0.8722  1.0821 -0.0825
14931TIP3   OH266283   6.349   5.994  11.245  0.6400 -0.2046  0.0325
14931TIP3    H166284   6.312   6.044  11.173 -1.8560 -0.7214  0.9120
14931TIP3    H266285   6.443   6.009  11.239  0.0675  3.5557 -0.4550
14932TIP3   OH266286   1.099   3.227   3.197  0.0939 -0.0586  0.0863
14932TIP3    H166287   1.149   3.215   3.117  2.0063 -2.5128  1.5781
14932TIP3    H266288   1.038   3.153   3.198 -0.0505  0.0671  0.7932
14933TIP3   OH266289   3.851   5.010   2.414  0.3495  0.3961  0.2933
14933TIP3    H166290   3.859   4.953   2.489 -0.7409 -0.2800 -0.0962
14933TIP3    H266291   3.873   5.097   2.447 -0.2495  0.1226  1.4175
14934TIP3   OH266292   1.648   6.663   1.738  0.4570  0.1361 -0.0433
14934TIP3    H166293   1.729   6.711   1.756  0.6644 -0.3749  0.3792
14934TIP3    H266294   1.593   6.680   1.814  0.5989 -0.4443  0.1891
14935TIP3   OH266295   5.955   3.092  16.983  0.0723  0.3625  0.5777
14935TIP3    H166296   5.924   3.083  17.073 -1.8515  2.1805  0.1361
14935TIP3    H266297   5.973   3.003  16.954  0.6849 -0.2308  2.7434
14936TIP3   OH266298   6.521   1.180   4.444  0.3514  0.1275 -0.0295
14936TIP3    H166299   6.574   1.159   4.521  1.1788  2.7436  0.1583
14936TIP3    H266300   6.440   1.216   4.481 -0.4959 -1.4071 -0.3593
14937TIP3   OH266301   4.699   6.722  11.366  0.2415  0.4545  0.1412
14937TIP3    H166302   4.787   6.694  11.342  0.5567  2.8649 -1.6387
14937TIP3    H266303   4.712   6.803  11.415 -1.0616  1.6505 -1.4627
14938TIP3   OH266304   1.954   0.557  15.531  0.1160  0.1868 -0.3831
14938TIP3    H166305   1.973   0.633  15.476  0.3704 -1.2330 -2.3082
14938TIP3    H266306   1.861   0.563  15.550 -0.5672 -0.7332 -3.2391
14939TIP3   OH266307   6.753   0.822  14.453 -0.1080 -0.1040  0.5864
14939TIP3    H166308   6.717   0.745  14.499 -0.2081  0.0563  0.7765
14939TIP3    H266309   6.822   0.786  14.398 -3.7143 -1.1507 -3.5515
14940TIP3   OH266310   2.408   2.506   5.318 -0.2614  0.1008  0.4652
14940TIP3    H166311   2.347   2.435   5.297  0.8152 -0.5958 -0.3265
14940TIP3    H266312   2.446   2.480   5.403 -2.8424  1.7448  2.2029
14941TIP3   OH266313   2.387   0.275   4.762  0.0619  0.6867 -0.0703
14941TIP3    H166314   2.333   0.347   4.794  0.1897  0.4134  0.7655
14941TIP3    H266315   2.426   0.237   4.840  0.8386  0.3739 -0.5997
14942TIP3   OH266316   0.851   2.251  11.687  0.7713 -0.1915 -0.0006
14942TIP3    H166317   0.888   2.240  11.775  0.8264 -1.7618 -0.2026
14942TIP3    H266318   0.802   2.333  11.691  0.0291 -0.7073  1.7651
14943TIP3   OH266319   5.107   3.590  16.639  0.1450  0.3187  0.3391
14943TIP3    H166320   5.182   3.587  16.580 -0.4240  0.5754 -0.4052
14943TIP3    H266321   5.135   3.647  16.711  1.0198 -0.4109  0.5772
14944TIP3   OH266322   1.005   0.037  15.444 -0.2650  0.2693 -0.1740
14944TIP3    H166323   1.081   0.076  15.400 -1.1300  0.4162 -1.5696
14944TIP3    H266324   0.936   0.102  15.437 -0.4883  0.2122  1.2577
14945TIP3   OH266325   3.007   2.952   5.436  0.1969 -0.4094 -0.0293
14945TIP3    H166326   3.037   2.988   5.520  0.7189  1.0750 -0.8460
14945TIP3    H266327   3.001   2.858   5.452  0.4484 -0.1625  1.6347
14946TIP3   OH266328   5.905   3.332   3.085  0.4227 -0.1324 -0.4659
14946TIP3    H166329   5.911   3.249   3.132  3.5315  1.2214  1.7045
14946TIP3    H266330   5.870   3.394   3.149  1.3958  0.9851 -0.9883
14947TIP3   OH266331   1.839   3.209   1.204 -0.3402 -0.0374 -0.0068
14947TIP3    H166332   1.815   3.264   1.129 -0.1297  0.3543  0.2177
14947TIP3    H266333   1.800   3.124   1.183  2.1065 -0.7402 -1.9207
14948TIP3   OH266334   2.101   5.115  16.932 -0.2349 -0.0946  0.2851
14948TIP3    H166335   2.131   5.177  16.864 -2.8033  0.3643 -0.4745
14948TIP3    H266336   2.182   5.081  16.970  1.2936 -0.1107 -2.7837
14949TIP3   OH266337   2.036   0.453  14.935 -0.1352 -0.2063  0.8431
14949TIP3    H166338   2.075   0.507  14.867 -0.7101 -0.6508  0.1514
14949TIP3    H266339   2.077   0.367  14.925  1.1372  0.2144  2.2561
14950TIP3   OH266340   0.965   2.571  15.179  0.1820 -0.3222  0.3070
14950TIP3    H166341   0.947   2.568  15.085 -0.7172  0.1483  0.4528
14950TIP3    H266342   0.957   2.664  15.202  1.1986 -0.3269  0.6996
14951TIP3   OH266343   4.463   6.087   4.836  0.0425 -0.1443 -0.4551
14951TIP3    H166344   4.530   6.028   4.869  1.3382  1.7047  0.3285
14951TIP3    H266345   4.380   6.047   4.863  0.9506 -0.6729  1.6444
14952TIP3   OH266346   2.193   1.535   2.995 -0.0001  0.0509  0.1344
14952TIP3    H166347   2.244   1.613   2.973  1.2302 -0.2363  1.8949
14952TIP3    H266348   2.151   1.556   3.078  2.0788 -1.9338  1.7420
14953TIP3   OH266349   0.476   4.374   3.976 -0.1769  0.2794 -0.3144
14953TIP3    H166350   0.384   4.348   3.971  0.3450 -1.6618 -0.1710
14953TIP3    H266351   0.491   4.424   3.895 -1.5156  1.2156 -0.0070
14954TIP3   OH266352   4.223   5.711  14.317  0.3676 -0.6818  1.1575
14954TIP3    H166353   4.288   5.779  14.303 -2.0328  1.6976  1.1462
14954TIP3    H266354   4.190   5.727  14.405  0.4021 -2.4176  1.5101
14955TIP3   OH266355   2.275   3.751   3.984  0.4666  0.0256  0.0966
14955TIP3    H166356   2.343   3.731   4.048  1.3912  0.5025 -0.7159
14955TIP3    H266357   2.322   3.797   3.913 -0.3883 -1.1508 -1.2590
14956TIP3   OH266358   0.820   2.049  16.699  0.0762 -0.1749 -0.3555
14956TIP3    H166359   0.795   2.048  16.607 -1.0778  0.8743 -0.0650
14956TIP3    H266360   0.838   1.957  16.720  1.7791 -0.2349 -1.9871
14957TIP3   OH266361   3.384   5.112  13.044 -0.9201 -0.4095 -0.5366
14957TIP3    H166362   3.367   5.188  12.988  1.7456  0.3920 -0.3426
14957TIP3    H266363   3.413   5.150  13.127  1.2035 -1.6228 -0.6840
14958TIP3   OH266364   4.432   4.316  13.318  0.0087  0.1832 -0.0112
14958TIP3    H166365   4.426   4.383  13.250  0.9510 -0.7792 -1.0620
14958TIP3    H266366   4.401   4.236  13.276 -0.4449 -0.1932  1.0269
14959TIP3   OH266367   0.681   2.189   2.686 -0.3644  0.6676 -0.1835
14959TIP3    H166368   0.601   2.177   2.738 -0.2056  0.8038  0.0961
14959TIP3    H266369   0.672   2.277   2.648 -0.8539  0.2459 -1.0444
14960TIP3   OH266370   4.297   0.481   3.257  0.5454  0.5881  0.0808
14960TIP3    H166371   4.232   0.423   3.297 -1.5014  1.5167 -1.7945
14960TIP3    H266372   4.363   0.421   3.222  0.4679 -0.3964  1.5433
14961TIP3   OH266373   1.164   3.603   5.736  0.2065 -0.5909 -0.3174
14961TIP3    H166374   1.249   3.566   5.711  0.4368 -0.8130  0.7850
14961TIP3    H266375   1.139   3.555   5.814  1.1840  2.5130  2.0293
14962TIP3   OH266376   1.852   5.913   4.907  0.3589 -0.3006 -0.0463
14962TIP3    H166377   1.936   5.901   4.951 -0.5161  1.9889  2.3846
14962TIP3    H266378   1.793   5.850   4.949  0.1900  0.0473  0.2513
14963TIP3   OH266379   5.534   6.721  14.479 -0.1806  0.0161 -0.1197
14963TIP3    H166380   5.619   6.755  14.450  0.6496 -1.3422  0.6135
14963TIP3    H266381   5.552   6.629  14.499 -2.0478 -0.5135 -0.8125
14964TIP3   OH266382   6.463   3.790   2.781  0.0803  0.2433  0.6529
14964TIP3    H166383   6.373   3.824   2.774  0.2952  1.1220  1.8708
14964TIP3    H266384   6.452   3.697   2.803 -0.5323  0.1320 -0.1244
14965TIP3   OH266385   4.385   2.133  10.875 -0.0632 -0.1683  0.4191
14965TIP3    H166386   4.449   2.177  10.819 -0.4142 -0.6332 -0.3566
14965TIP3    H266387   4.364   2.197  10.943  1.0839  0.0602  0.5751
14966TIP3   OH266388   2.263   0.477   5.184 -0.0363  0.1226  0.1938
14966TIP3    H166389   2.204   0.451   5.254 -0.0933  0.3690  0.2396
14966TIP3    H266390   2.239   0.568   5.165  0.2517  0.1872  0.1358
14967TIP3   OH266391   6.169   3.336   1.655  0.2795 -0.6713 -0.0765
14967TIP3    H166392   6.202   3.318   1.744  3.7291 -0.6282 -1.2800
14967TIP3    H266393   6.186   3.256   1.607  1.1496  0.3109 -1.4326
14968TIP3   OH266394   4.107   1.049   2.007  0.1779  0.4235 -0.1260
14968TIP3    H166395   4.139   0.965   2.041  0.6050  0.4305 -0.5053
14968TIP3    H266396   4.061   1.026   1.927 -2.1170  0.2332  1.1964
14969TIP3   OH266397   0.862   5.100   5.244  0.0523 -0.4258  0.4618
14969TIP3    H166398   0.890   5.011   5.224  1.1845  0.0927 -0.3217
14969TIP3    H266399   0.881   5.111   5.337 -0.9392 -1.3030  0.7734
14970TIP3   OH266400   2.134   0.058   0.156 -0.2339 -0.9879 -0.2049
14970TIP3    H166401   2.193   0.038   0.229 -0.9925 -0.8276  0.4565
14970TIP3    H266402   2.153   0.149   0.135  0.5732 -1.2756 -0.7597
14971TIP3   OH266403   6.115   0.645   3.955  0.1684 -0.7890 -0.4979
14971TIP3    H166404   6.152   0.561   3.927 -1.0239 -0.9516 -1.5884
14971TIP3    H266405   6.072   0.680   3.877  2.2396  1.7297 -0.5785
14972TIP3   OH266406   0.624   2.165  13.068  0.1606  0.5662 -0.4764
14972TIP3    H166407   0.559   2.153  13.137 -0.8942 -1.0467 -1.7227
14972TIP3    H266408   0.708   2.148  13.110 -0.2649  1.9807  0.9804
14973TIP3   OH266409   4.127   2.138   4.612  0.0904  0.1868 -0.1652
14973TIP3    H166410   4.092   2.182   4.535  1.0402  1.2146 -0.0221
14973TIP3    H266411   4.207   2.186   4.632 -0.1545 -0.0708  1.4649
14974TIP3   OH266412   5.968   2.949  14.780 -0.3784 -0.2685  0.0157
14974TIP3    H166413   5.956   2.885  14.850 -2.7373 -0.8051 -0.8365
14974TIP3    H266414   5.948   2.900  14.700 -1.2804  1.2902 -0.7251
14975TIP3   OH266415   3.817   0.754   4.124 -0.2466  0.0061  0.0354
14975TIP3    H166416   3.781   0.716   4.204 -1.0929 -2.2389 -1.3681
14975TIP3    H266417   3.751   0.735   4.057  1.0291  0.7396 -1.4508
14976TIP3   OH266418   3.331   4.166  14.815  0.0232 -0.3430  0.5743
14976TIP3    H166419   3.286   4.138  14.894  3.5417 -2.1910  2.0421
14976TIP3    H266420   3.390   4.236  14.843  1.8809 -1.5444 -0.1862
14977TIP3   OH266421   5.238   1.454  11.386 -0.0893  0.2263 -0.8150
14977TIP3    H166422   5.180   1.438  11.461  0.5049 -0.6275 -0.5315
14977TIP3    H266423   5.183   1.435  11.309  0.2707 -2.1872 -0.5142
14978TIP3   OH266424   2.670   5.666   0.909  0.7540 -0.3684  0.3549
14978TIP3    H166425   2.647   5.758   0.922 -0.8623 -0.8046  0.7215
14978TIP3    H266426   2.634   5.621   0.986 -1.0904 -1.7278 -1.2526
14979TIP3   OH266427   3.394   4.240  11.535  0.1946  0.0965  0.4157
14979TIP3    H166428   3.363   4.218  11.447  0.3663  0.3526  0.2912
14979TIP3    H266429   3.456   4.312  11.522 -0.6755  0.9559  0.8490
14980TIP3   OH266430   3.823   2.468  12.977  0.7080  0.4329  0.4155
14980TIP3    H166431   3.887   2.537  12.957  1.5867  0.0628  1.8988
14980TIP3    H266432   3.793   2.489  13.066 -1.5251  0.8144 -0.3955
14981TIP3   OH266433   3.146   4.888   0.670  0.6280  0.1223  0.5937
14981TIP3    H166434   3.154   4.812   0.613  2.0997 -0.4415  1.5002
14981TIP3    H266435   3.056   4.885   0.702  0.3305 -0.5591 -0.2984
14982TIP3   OH266436   1.798   4.708   0.316  0.1422 -0.7635 -0.2330
14982TIP3    H166437   1.827   4.646   0.249 -0.3973  0.2286 -1.3939
14982TIP3    H266438   1.875   4.762   0.333  0.7222 -1.9538  1.0429
14983TIP3   OH266439   3.986   1.629  10.607 -0.4728 -0.0099  0.2130
14983TIP3    H166440   4.002   1.567  10.535 -1.8965  0.1362 -0.2518
14983TIP3    H266441   4.073   1.660  10.631  0.0644 -0.4043 -1.1535
14984TIP3   OH266442   6.627   4.996  16.845 -0.7210 -0.2434 -0.4168
14984TIP3    H166443   6.607   4.922  16.902 -1.4505  0.5717  0.4034
14984TIP3    H266444   6.543   5.020  16.806 -0.0095 -1.6891 -2.9648
14985TIP3   OH266445   0.607   3.118   2.301  0.4507 -0.6886 -0.7582
14985TIP3    H166446   0.576   3.053   2.239 -0.5708  0.2654 -1.2704
14985TIP3    H266447   0.575   3.089   2.386 -2.0411  0.3675 -1.3010
14986TIP3   OH266448   3.190   0.041  15.146  0.0324 -0.3261 -0.0068
14986TIP3    H166449   3.179   0.136  15.139  0.1265 -0.4681 -2.2900
14986TIP3    H266450   3.114   0.013  15.198 -0.8872  0.8016 -0.6958
14987TIP3   OH266451   4.704   5.129  16.684  0.3527  0.5421 -0.0771
14987TIP3    H166452   4.689   5.072  16.608  0.4754  2.1675 -1.3360
14987TIP3    H266453   4.615   5.149  16.716  0.3120 -0.4464  0.4636
14988TIP3   OH266454   5.573   0.404  13.888  0.3574  0.0035  0.6393
14988TIP3    H166455   5.663   0.382  13.864 -0.0142 -0.1201 -0.6997
14988TIP3    H266456   5.567   0.386  13.982  0.7967 -3.1419  0.0963
14989TIP3   OH266457   3.200   4.990   5.243 -1.0097 -0.1803  0.0659
14989TIP3    H166458   3.133   5.023   5.303 -0.0921  0.6253  0.6757
14989TIP3    H266459   3.174   5.022   5.157 -1.4217  0.1072  0.2935
14990TIP3   OH266460   2.112   0.596  14.719  0.7730  0.0577  0.3273
14990TIP3    H166461   2.182   0.628  14.662 -0.7241 -1.9012 -2.7350
14990TIP3    H266462   2.031   0.611  14.669 -0.9358  1.3903  3.3857
14991TIP3   OH266463   0.670   4.794   5.091  0.1327  0.7110 -0.5969
14991TIP3    H166464   0.757   4.807   5.128 -0.7696  1.0625  1.4236
14991TIP3    H266465   0.610   4.812   5.163 -1.5855 -0.6053 -1.6749
14992TIP3   OH266466   4.038   0.929  15.984 -0.1412 -0.2359  0.0419
14992TIP3    H166467   3.963   0.980  16.015 -0.3873  0.7577 -2.0874
14992TIP3    H266468   4.003   0.878  15.910  0.6014 -1.9373  0.8532
14993TIP3   OH266469   5.250   1.512  12.583 -0.4011 -0.3000  0.0558
14993TIP3    H166470   5.191   1.441  12.610 -1.8765  0.2654 -1.6155
14993TIP3    H266471   5.273   1.556  12.665 -2.6749 -0.2457  0.6885
14994TIP3   OH266472   4.289   6.332   2.858  0.1636 -0.2182  0.7716
14994TIP3    H166473   4.258   6.373   2.778 -1.8503  0.1946  1.7356
14994TIP3    H266474   4.254   6.387   2.928  1.4875 -0.8499  1.9467
14995TIP3   OH266475   4.271   5.553  11.802 -0.7040  0.6885 -0.4224
14995TIP3    H166476   4.331   5.611  11.756 -0.9790  1.3807  0.0755
14995TIP3    H266477   4.296   5.465  11.775  0.6664  0.9599 -0.0536
14996TIP3   OH266478   3.886   2.579  15.801 -0.2548  0.0318  0.2844
14996TIP3    H166479   3.955   2.622  15.749  0.5014 -2.9523 -1.2728
14996TIP3    H266480   3.931   2.509  15.847 -1.7665 -0.1238  1.5702
14997TIP3   OH266481   5.262   5.336   3.449  0.1740  0.6383  0.4541
14997TIP3    H166482   5.262   5.248   3.487  0.1024  1.0006  1.3097
14997TIP3    H266483   5.315   5.328   3.370 -1.0968 -0.5218 -0.3046
14998TIP3   OH266484   5.027   0.296   2.103  1.3457 -0.3893 -0.4885
14998TIP3    H166485   5.005   0.387   2.123  1.5821  0.2474 -2.9448
14998TIP3    H266486   5.087   0.270   2.173  3.4930  2.2532 -1.2829
14999TIP3   OH266487   1.960   0.168  15.117 -0.7112 -0.3306 -0.5961
14999TIP3    H166488   2.041   0.169  15.064 -0.8030  1.6072 -0.7225
14999TIP3    H266489   1.895   0.210  15.061 -1.8949 -2.1002 -0.5797
15000TIP3   OH266490   1.829   0.232   5.253  0.2999  0.1996 -0.4182
15000TIP3    H166491   1.840   0.284   5.332  2.6135  0.1797 -0.7095
15000TIP3    H266492   1.739   0.200   5.258  0.4492  0.0956  2.2441
15001TIP3   OH266493   1.884   1.984   5.944 -0.0760  0.0375 -0.1905
15001TIP3    H166494   1.879   2.023   5.857 -0.3330  0.2019 -0.1038
15001TIP3    H266495   1.795   1.993   5.979 -0.1237 -0.5786 -0.1497
15002TIP3   OH266496   2.313   3.215   3.887  0.7723 -0.2099  0.0056
15002TIP3    H166497   2.335   3.189   3.797 -0.6491 -0.5899 -0.2361
15002TIP3    H266498   2.299   3.132   3.933 -0.3087  0.0233  0.1104
15003TIP3   OH266499   0.171   1.331  17.286 -0.2439  0.2852 -0.3515
15003TIP3    H166500   0.112   1.310  17.214 -1.6269 -1.3035  1.2051
15003TIP3    H266501   0.248   1.369  17.244 -0.3194 -2.1995 -2.7909
15004TIP3   OH266502   5.969   0.919  13.927  0.4018  0.3117  0.5639
15004TIP3    H166503   5.989   1.003  13.969  1.8372  0.3592 -0.1641
15004TIP3    H266504   5.936   0.944  13.840 -1.5668  0.1837  1.2538
15005TIP3   OH266505   6.400   0.030  12.139  0.4081  0.0885  0.2995
15005TIP3    H166506   6.493   0.019  12.157  0.2233 -1.8039  0.1305
15005TIP3    H266507   6.367   0.082  12.213  1.5201  0.4619  0.5335
15006TIP3   OH266508   5.257   3.451  13.445 -0.1208  0.1727 -0.4372
15006TIP3    H166509   5.294   3.459  13.357  1.1377  1.2533  0.1762
15006TIP3    H266510   5.278   3.534  13.488 -2.4049  0.4217  0.2727
15007TIP3   OH266511   4.626   4.193   1.878 -0.3981 -0.3608 -0.5957
15007TIP3    H166512   4.598   4.275   1.838 -3.1351  0.7562  3.2749
15007TIP3    H266513   4.549   4.136   1.874  0.7190 -1.8660 -1.0665
15008TIP3   OH266514   1.478   4.346  12.492  0.1585 -0.1496  0.4526
15008TIP3    H166515   1.412   4.353  12.561  0.3968  0.0188  0.6605
15008TIP3    H266516   1.473   4.429  12.446 -0.0109 -0.2671  0.2570
15009TIP3   OH266517   4.323   4.715  11.451  0.4074  0.4562  0.7554
15009TIP3    H166518   4.306   4.728  11.357  2.4895 -0.1307  0.2756
15009TIP3    H266519   4.316   4.620  11.463 -1.4820  0.6717  1.5510
15010TIP3   OH266520   3.764   2.473  17.106 -0.2570 -0.2976 -0.5532
15010TIP3    H166521   3.778   2.384  17.139 -0.1008  0.3910  1.2989
15010TIP3    H266522   3.669   2.485  17.109 -0.1727  0.1138  0.6091
15011TIP3   OH266523   4.938   2.284  12.516 -0.2450 -0.1631  0.0951
15011TIP3    H166524   4.858   2.295  12.567  1.1186  1.0628  2.0609
15011TIP3    H266525   4.966   2.194  12.534  0.1377  0.2059  1.4238
15012TIP3   OH266526   5.515   4.947  13.260 -0.1907 -0.1215 -0.4330
15012TIP3    H166527   5.578   4.892  13.214  0.7008 -3.4380  4.3803
15012TIP3    H266528   5.567   5.017  13.299 -0.4612  0.8001 -1.7093
15013TIP3   OH266529   1.673   4.826  16.999  0.1086 -0.6087 -0.6111
15013TIP3    H166530   1.640   4.752  17.049 -0.2169 -1.1345 -1.5858
15013TIP3    H266531   1.595   4.878  16.980 -0.0544 -1.3974 -2.1762
15014TIP3   OH266532   1.484   0.156  15.193 -0.1332 -0.6393 -0.4918
15014TIP3    H166533   1.514   0.065  15.197 -0.5440 -0.9341 -3.3409
15014TIP3    H266534   1.449   0.166  15.105 -0.8553  2.0654  0.0602
15015TIP3   OH266535   2.133   4.670   4.832 -0.0029  0.5796 -0.1190
15015TIP3    H166536   2.206   4.700   4.778 -0.6382  1.5623 -0.4444
15015TIP3    H266537   2.125   4.736   4.901  0.7256 -0.6002  1.1401
15016TIP3   OH266538   1.885   4.520   4.347  0.4851  0.1723 -0.1825
15016TIP3    H166539   1.887   4.545   4.254  1.2333  0.2333 -0.1588
15016TIP3    H266540   1.861   4.427   4.346  0.3315  0.2136 -0.4318
15017TIP3   OH266541   0.550   0.702  13.568  0.8600  0.1841  0.2147
15017TIP3    H166542   0.513   0.706  13.480  2.4077  1.0543 -0.4189
15017TIP3    H266543   0.609   0.777  13.573  1.6732 -0.5141  1.5802
15018TIP3   OH266544   4.088   2.916   2.486  0.1110 -0.2318 -0.2099
15018TIP3    H166545   4.002   2.955   2.504 -0.1619 -0.6021 -0.6684
15018TIP3    H266546   4.069   2.847   2.421  0.2882 -2.3661  1.9339
15019TIP3   OH266547   5.277   4.269   2.034 -0.1554  0.0963 -0.2593
15019TIP3    H166548   5.193   4.313   2.022 -0.3372 -0.1022  0.2750
15019TIP3    H266549   5.315   4.311   2.111  1.3409  1.8835 -1.9387
15020TIP3   OH266550   3.737   3.062  13.640  0.2910  0.2818 -0.6031
15020TIP3    H166551   3.822   3.047  13.598  0.6716 -3.7313  1.3444
15020TIP3    H266552   3.759   3.102  13.724  0.1236  0.8978 -0.8531
15021TIP3   OH266553   6.606   0.344   2.649 -0.0470  0.1330 -0.2243
15021TIP3    H166554   6.695   0.353   2.616 -0.7566  0.0506 -2.2654
15021TIP3    H266555   6.588   0.250   2.644  0.0921  0.0266  1.1381
15022TIP3   OH266556   3.711   6.795  10.368 -0.1365 -0.1961 -0.4088
15022TIP3    H166557   3.750   6.732  10.308  1.3349 -0.2736  0.6224
15022TIP3    H266558   3.766   6.873  10.361 -1.2555  0.5771 -0.7972
15023TIP3   OH266559   2.005   1.542  15.480  0.2890 -0.0975 -0.0290
15023TIP3    H166560   2.011   1.587  15.565 -1.2886 -1.3381  0.7699
15023TIP3    H266561   2.064   1.467  15.489  0.0670 -0.2690 -0.0027
15024TIP3   OH266562   2.677   4.269   6.351  0.4720  0.3154 -0.2647
15024TIP3    H166563   2.719   4.289   6.435 -1.4584  1.8799  0.3744
15024TIP3    H266564   2.587   4.248   6.375  0.1092  0.0348 -1.8779
15025TIP3   OH266565   4.007   3.611  11.164 -0.1647  0.1258 -0.2549
15025TIP3    H166566   3.925   3.641  11.127 -0.5078  0.9126  1.1135
15025TIP3    H266567   4.073   3.637  11.100 -0.8522  0.5356 -0.8032
15026TIP3   OH266568   0.408   2.192  15.893 -0.1648  0.0169  0.8200
15026TIP3    H166569   0.468   2.204  15.819 -0.1193 -0.6789  0.7337
15026TIP3    H266570   0.463   2.151  15.960 -0.8593 -1.9056  0.2558
15027TIP3   OH266571   0.291   3.511   5.597  0.2919  0.0838 -0.0890
15027TIP3    H166572   0.246   3.535   5.517  0.7881  2.6993  0.3805
15027TIP3    H266573   0.384   3.513   5.575  0.3436 -1.5478 -0.0636
15028TIP3   OH266574   3.995   5.729  15.527  0.0884 -0.2814 -0.3953
15028TIP3    H166575   4.033   5.641  15.520 -0.3989 -0.4390 -1.2200
15028TIP3    H266576   3.993   5.761  15.436 -1.6303 -0.2467 -0.3668
15029TIP3   OH266577   5.037   4.395  13.648 -0.6690 -0.9052  0.0713
15029TIP3    H166578   5.086   4.408  13.567  2.2626 -0.9576  1.7801
15029TIP3    H266579   5.088   4.441  13.715 -2.0268 -2.4185  2.2175
15030TIP3   OH266580   2.424   2.144  15.714  0.1604  0.1878  0.0450
15030TIP3    H166581   2.433   2.237  15.733  1.0982  0.2162 -0.4812
15030TIP3    H266582   2.340   2.120  15.751 -1.2807  1.8326 -2.0489
15031TIP3   OH266583   3.645   0.728   0.892 -0.0557  0.0571 -0.1762
15031TIP3    H166584   3.607   0.765   0.972 -0.5575 -1.9804  0.5720
15031TIP3    H266585   3.647   0.633   0.909  3.2523 -0.0871 -1.1098
15032TIP3   OH266586   4.455   5.673  16.484 -0.6018 -0.9181 -0.1889
15032TIP3    H166587   4.432   5.604  16.421  0.4116 -1.2398 -0.2160
15032TIP3    H266588   4.521   5.725  16.438  1.1125 -1.9206  1.0749
15033TIP3   OH266589   2.377   1.195  10.532 -0.2307  0.1098  0.2204
15033TIP3    H166590   2.400   1.281  10.495  0.3289  0.4071  1.2397
15033TIP3    H266591   2.303   1.214  10.590 -1.9056 -0.5493 -1.6422
15034TIP3   OH266592   5.452   3.974  10.914  0.7825 -0.4598 -0.1857
15034TIP3    H166593   5.374   3.932  10.878  0.3169 -0.4142  0.7492
15034TIP3    H266594   5.496   3.906  10.964 -0.0664  0.1989  1.4759
15035TIP3   OH266595   2.393   4.269   5.714  0.7137 -0.0284  0.4794
15035TIP3    H166596   2.389   4.185   5.759  2.1766 -0.2259  0.2502
15035TIP3    H266597   2.397   4.334   5.784  2.7588 -0.3239  0.6504
15036TIP3   OH266598   0.089   4.423   0.281 -0.3520 -0.6774  0.4197
15036TIP3    H166599   0.003   4.424   0.323 -1.3808 -0.3376 -1.5995
15036TIP3    H266600   0.104   4.330   0.260 -1.8293 -0.3630 -2.2809
15037TIP3   OH266601   4.098   3.622   5.841 -0.5310  0.3192  0.3743
15037TIP3    H166602   4.045   3.695   5.809 -1.2604 -0.3603  0.0135
15037TIP3    H266603   4.117   3.570   5.764  0.0027  0.1343  0.6288
15038TIP3   OH266604   1.791   4.981   1.314 -0.1924 -0.6353  0.3020
15038TIP3    H166605   1.883   4.971   1.337 -0.0396  1.2586  0.5862
15038TIP3    H266606   1.779   4.926   1.237  1.6686  0.6749 -0.9442
15039TIP3   OH266607   0.012   3.855   0.887  0.3286 -0.7092 -0.7106
15039TIP3    H166608  -0.069   3.805   0.876  0.5627 -1.3308  0.2753
15039TIP3    H266609   0.018   3.871   0.982  0.2893  1.1530 -1.0070
15040TIP3   OH266610   0.629   1.324  17.286 -0.2260  0.1435  0.1622
15040TIP3    H166611   0.680   1.323  17.367 -0.3282  0.0113  0.2276
15040TIP3    H266612   0.681   1.376  17.225  1.0257 -1.8110 -0.4702
15041TIP3   OH266613   3.900   6.413  16.768  0.1796  0.2254 -0.4834
15041TIP3    H166614   3.821   6.366  16.795 -0.2673  0.0539 -2.0257
15041TIP3    H266615   3.872   6.467  16.694  1.2551  1.0442 -0.3088
15042TIP3   OH266616   1.871   6.196  17.227  0.6711 -0.2513  0.3389
15042TIP3    H166617   1.844   6.282  17.259  1.1493  0.5376 -1.3105
15042TIP3    H266618   1.942   6.215  17.164  0.6499 -1.8235 -0.1796
15043TIP3   OH266619   1.045   1.615  14.816 -0.6101 -0.0508 -0.0228
15043TIP3    H166620   0.956   1.584  14.799 -0.8116 -0.1176  1.1276
15043TIP3    H266621   1.098   1.536  14.824 -0.1504  0.0124 -2.2119
15044TIP3   OH266622   5.523   4.847   6.042 -0.2270 -0.1824  0.0995
15044TIP3    H166623   5.458   4.806   5.984 -1.3079 -2.8828  3.0535
15044TIP3    H266624   5.606   4.805   6.019 -0.5280 -0.7422  0.0265
15045TIP3   OH266625   0.923   0.598   3.736  0.2490 -0.1868 -0.7719
15045TIP3    H166626   0.885   0.613   3.823  0.9669 -0.4656 -0.4062
15045TIP3    H266627   0.962   0.511   3.741  0.1899 -0.2507 -1.4124
15046TIP3   OH266628   1.210   2.570   0.072 -1.0783  0.0710  0.1120
15046TIP3    H166629   1.171   2.603  -0.010  1.2725  2.3414 -0.1493
15046TIP3    H266630   1.270   2.501   0.043  2.0581  2.9404 -0.4607
15047TIP3   OH266631   2.354   1.488   5.917 -0.0306 -0.3847  0.2175
15047TIP3    H166632   2.300   1.547   5.968  0.2701 -1.0992  1.3815
15047TIP3    H266633   2.435   1.479   5.968  0.8942  0.0945 -1.1362
15048TIP3   OH266634   2.065   0.593   1.758  0.0259  0.0520 -0.0418
15048TIP3    H166635   2.100   0.678   1.732  0.7640  0.2453  1.5313
15048TIP3    H266636   1.998   0.613   1.824  0.0047 -0.5613  0.1299
15049TIP3   OH266637   6.174   4.645  12.336 -0.2840 -0.0143 -0.1925
15049TIP3    H166638   6.202   4.697  12.260 -0.0200  0.3236  0.1376
15049TIP3    H266639   6.255   4.614  12.375 -0.3851  0.5169  0.4462
15050TIP3   OH266640   0.196   5.922   5.419  0.4004  0.0187 -0.2357
15050TIP3    H166641   0.287   5.905   5.392  0.7000 -0.2759  0.9163
15050TIP3    H266642   0.161   5.978   5.351  1.6180  0.5555 -0.4372
15051TIP3   OH266643   6.481   4.460   3.780  0.3896 -0.8455 -0.1427
15051TIP3    H166644   6.567   4.428   3.754 -1.0415 -1.9665 -3.7904
15051TIP3    H266645   6.449   4.397   3.844  1.2792 -1.7489 -0.5873
15052TIP3   OH266646   6.146   2.615  12.230 -0.4273 -0.0798 -0.1988
15052TIP3    H166647   6.065   2.585  12.188 -1.4326  0.5522  1.2406
15052TIP3    H266648   6.126   2.613  12.323  1.2455  0.0616  0.1778
15053TIP3   OH266649   1.834   0.977  14.391 -0.0083 -0.0575 -0.3727
15053TIP3    H166650   1.785   1.037  14.447  2.2111  0.4346  1.0894
15053TIP3    H266651   1.901   1.032  14.350  0.4751 -1.0735 -0.9703
15054TIP3   OH266652   1.720   0.865   0.806  0.0134 -0.5925  0.9839
15054TIP3    H166653   1.628   0.841   0.808 -0.0753 -0.1946  1.4809
15054TIP3    H266654   1.754   0.822   0.727 -0.8917  0.3578  0.0653
15055TIP3   OH266655   1.632   5.845  15.074  0.0812  0.0579  0.4596
15055TIP3    H166656   1.679   5.763  15.061  0.7124  0.5454 -0.4324
15055TIP3    H266657   1.547   5.831  15.033  0.6514  0.2733 -0.8022
15056TIP3   OH266658   2.980   2.643  15.726 -0.4891 -0.1084 -0.0044
15056TIP3    H166659   2.907   2.635  15.664 -2.5571 -1.0653  2.4792
15056TIP3    H266660   3.020   2.556  15.727  0.5815  0.3501 -1.1780
15057TIP3   OH266661   5.795   2.621  12.374  0.5380  0.2977 -0.0346
15057TIP3    H166662   5.809   2.557  12.304 -0.1972  0.4915 -0.3691
15057TIP3    H266663   5.751   2.572  12.443  0.2039  0.3771 -0.1885
15058TIP3   OH266664   4.399   4.066  14.085  0.3277  0.3237  0.4367
15058TIP3    H166665   4.461   3.998  14.059  1.2027  0.9327  0.8953
15058TIP3    H266666   4.413   4.137  14.022 -1.0068 -0.1567 -0.4098
15059TIP3   OH266667   2.100   5.193   5.087 -0.0789  0.5173 -0.6019
15059TIP3    H166668   2.188   5.193   5.051  0.2527  3.2810  0.0868
15059TIP3    H266669   2.063   5.278   5.062 -2.1757 -0.1649 -0.0013
15060TIP3   OH266670   2.838   2.342   2.559 -0.0583 -0.2129  0.3141
15060TIP3    H166671   2.921   2.342   2.606  0.1269 -0.0230 -0.0162
15060TIP3    H266672   2.801   2.255   2.576  0.6631 -0.6591 -0.3526
15061TIP3   OH266673   1.722   5.101  15.728 -0.3668 -0.3742 -0.3303
15061TIP3    H166674   1.681   5.173  15.680  1.6120 -0.2245 -1.8455
15061TIP3    H266675   1.733   5.134  15.817  2.2772  1.9718 -1.4488
15062TIP3   OH266676   0.627   4.111   1.886 -0.1446  0.0688  0.1369
15062TIP3    H166677   0.633   4.168   1.809  4.0921  1.3340  1.2563
15062TIP3    H266678   0.682   4.036   1.864 -0.5543 -0.5313  1.1453
15063TIP3   OH266679   4.040   6.214  14.878 -0.5265  0.3153  0.3635
15063TIP3    H166680   4.100   6.140  14.862  1.0377  1.7303 -0.4358
15063TIP3    H266681   3.953   6.178  14.859  0.3395 -0.9588 -1.3897
15064TIP3   OH266682   5.625   2.802  12.274  0.0016 -0.5859  1.1393
15064TIP3    H166683   5.672   2.723  12.300 -0.8499 -1.0604  1.2586
15064TIP3    H266684   5.545   2.769  12.234 -0.5789  0.2329  1.6241
15065TIP3   OH266685   2.779   3.981  15.008 -0.3879  0.1099  0.0621
15065TIP3    H166686   2.722   3.966  14.932 -1.1225  0.0172  0.6328
15065TIP3    H266687   2.756   3.911  15.069  0.5714 -0.1209  0.1570
15066TIP3   OH266688   2.909   3.428   0.717 -0.2049 -0.1122  0.4248
15066TIP3    H166689   2.893   3.335   0.704  1.0683 -0.2191 -0.3978
15066TIP3    H266690   2.976   3.432   0.785 -0.2174  0.2067  0.4216
15067TIP3   OH266691   5.053   5.487  13.796  0.4822 -0.0420 -0.5503
15067TIP3    H166692   5.055   5.392  13.795  0.5475 -0.0529  0.7326
15067TIP3    H266693   5.138   5.514  13.829  0.3877  0.4604 -0.6972
15068TIP3   OH266694   1.363   2.346  17.264  0.3589  0.2604  0.2897
15068TIP3    H166695   1.299   2.275  17.253  1.4201 -0.4894 -1.1890
15068TIP3    H266696   1.371   2.385  17.177  0.8207  1.3094  0.7913
15069TIP3   OH266697   6.037   6.145   5.283 -0.5882 -0.1066 -0.2064
15069TIP3    H166698   6.076   6.068   5.326  0.0709  0.4638  0.2466
15069TIP3    H266699   5.943   6.134   5.294 -0.4230  0.3674  2.0373
15070TIP3   OH266700   5.212   6.431  12.597 -0.4156  0.0213 -0.2047
15070TIP3    H166701   5.244   6.421  12.508 -0.0530  0.4184 -0.1199
15070TIP3    H266702   5.122   6.462  12.586  0.0348  1.2803 -0.4309
15071TIP3   OH266703   5.385   3.077  13.909 -0.2838  0.6052 -0.6916
15071TIP3    H166704   5.462   3.027  13.935  0.2359  2.2533  1.0657
15071TIP3    H266705   5.332   3.084  13.988 -0.9986  1.6442 -1.2400
15072TIP3   OH266706   5.580   2.790  17.246  0.2022 -0.2748  0.4086
15072TIP3    H166707   5.615   2.789  17.157  0.5231 -0.1805  0.5374
15072TIP3    H266708   5.639   2.734  17.296  1.7315  1.9683  1.2047
15073TIP3   OH266709   3.172   2.779  14.545  0.0439  0.3156  0.1543
15073TIP3    H166710   3.175   2.705  14.605  0.0914 -0.5333 -0.8712
15073TIP3    H266711   3.167   2.739  14.458 -2.4207  1.5097 -0.3057
15074TIP3   OH266712   3.994   2.213  13.520  0.1826 -0.3104  0.3637
15074TIP3    H166713   4.033   2.292  13.557  2.8911 -0.9655 -0.9722
15074TIP3    H266714   3.991   2.230  13.425 -0.5778 -1.2430  0.2061
15075TIP3   OH266715   3.505   5.136   1.645 -0.2884  0.3838 -0.6317
15075TIP3    H166716   3.574   5.117   1.580  0.8151 -0.8754  0.8817
15075TIP3    H266717   3.429   5.162   1.592  0.2744 -1.6006 -2.4764
15076TIP3   OH266718   1.629   3.275  12.680 -0.2260  0.2100 -0.2919
15076TIP3    H166719   1.650   3.356  12.633 -4.2293  1.3255 -0.3447
15076TIP3    H266720   1.616   3.303  12.771  2.5102 -1.1229  0.5538
15077TIP3   OH266721   4.229   0.639   4.875 -0.3907  0.4111  0.0626
15077TIP3    H166722   4.229   0.732   4.898 -1.9804  0.7425 -1.1861
15077TIP3    H266723   4.254   0.637   4.783 -5.4499  0.0890 -1.4585
15078TIP3   OH266724   1.939   5.240  12.885 -0.3411  0.6446 -0.8729
15078TIP3    H166725   1.894   5.158  12.902  0.0937  1.0210  2.3914
15078TIP3    H266726   2.028   5.215  12.860  0.1203  0.1250  1.2193
15079TIP3   OH266727   0.505   4.282   1.109 -0.3256 -0.3606  0.5494
15079TIP3    H166728   0.592   4.260   1.141 -0.0836  1.3463  1.0998
15079TIP3    H266729   0.495   4.375   1.128 -2.1982 -0.4963  0.3239
15080TIP3   OH266730   3.634   4.913  16.032 -0.0561  0.6386 -0.1553
15080TIP3    H166731   3.711   4.941  15.982  1.1165 -0.0922  1.2168
15080TIP3    H266732   3.666   4.901  16.121 -2.1440  2.0215  0.8300
15081TIP3   OH266733   1.592   3.013  14.672 -0.1463  0.6832  0.4023
15081TIP3    H166734   1.640   3.033  14.752  0.6870  1.3266 -0.2332
15081TIP3    H266735   1.559   3.098  14.642 -0.1225  0.5077 -0.1336
15082TIP3   OH266736   4.565   6.038  15.528  0.1831 -0.2966  0.1068
15082TIP3    H166737   4.534   6.029  15.437 -0.7584  1.0659  0.2581
15082TIP3    H266738   4.543   6.129  15.551 -0.7606 -1.0036  2.1261
15083TIP3   OH266739   0.735   5.692  16.220  0.0167  0.2626  0.6282
15083TIP3    H166740   0.752   5.640  16.299 -0.6882 -0.8077  0.0948
15083TIP3    H266741   0.785   5.648  16.151 -1.8635 -0.6838 -0.1633
15084TIP3   OH266742   4.372   5.947  15.095  0.2404  0.3553  0.3285
15084TIP3    H166743   4.394   5.860  15.129 -0.1057  0.5943  1.2023
15084TIP3    H266744   4.430   6.006  15.143 -0.1884  0.6892  0.4371
15085TIP3   OH266745   0.793   3.678   3.628  0.3696  0.0038 -0.6733
15085TIP3    H166746   0.876   3.633   3.641 -0.8718 -1.6623  2.0215
15085TIP3    H266747   0.741   3.619   3.573 -0.3590 -0.7227  0.7736
15086TIP3   OH266748   1.265   1.075   3.178 -0.1118 -0.6926  0.0273
15086TIP3    H166749   1.202   1.038   3.239  0.5750  0.2333  1.3240
15086TIP3    H266750   1.214   1.136   3.125 -0.0003  1.4676  2.3163
15087TIP3   OH266751   3.433   6.061  13.573 -0.6211 -0.1558  0.6700
15087TIP3    H166752   3.447   6.083  13.481  0.6191  0.9102  1.1076
15087TIP3    H266753   3.458   5.969  13.580  3.9989  1.0391  0.9360
15088TIP3   OH266754   4.474   1.160   2.307 -0.3421 -1.0166 -0.6012
15088TIP3    H166755   4.498   1.227   2.243 -0.8667  0.5592  0.8394
15088TIP3    H266756   4.379   1.168   2.315 -0.0661  0.1840  1.8660
15089TIP3   OH266757   1.745   3.566  11.142 -0.3077 -0.1663 -0.3882
15089TIP3    H166758   1.707   3.603  11.062 -0.1979  0.1936 -0.2719
15089TIP3    H266759   1.836   3.596  11.142 -0.3654  0.0131 -0.0175
15090TIP3   OH266760   3.387   3.354  17.016 -0.0714 -0.3060 -0.0627
15090TIP3    H166761   3.420   3.443  17.026  1.0240 -0.9536  2.6766
15090TIP3    H266762   3.340   3.336  17.097 -2.0867 -1.5063 -1.4588
15091TIP3   OH266763   5.288   4.270  13.912  0.0581  0.2656  0.0368
15091TIP3    H166764   5.223   4.203  13.892 -0.6699  0.2306  2.3802
15091TIP3    H266765   5.362   4.250  13.855 -0.4684 -2.0460  0.1472
15092TIP3   OH266766   5.209   5.899   2.864 -0.1615  0.1425 -0.0889
15092TIP3    H166767   5.188   5.855   2.946 -1.4069 -0.0364 -0.4861
15092TIP3    H266768   5.305   5.899   2.860 -0.1134 -2.1766  0.1342
15093TIP3   OH266769   3.148   6.501  16.506 -0.1542 -0.1378  0.9255
15093TIP3    H166770   3.061   6.470  16.481 -0.8798  2.2263  0.3630
15093TIP3    H266771   3.170   6.567  16.440  2.1018 -0.7548  1.0213
15094TIP3   OH266772   4.004   5.420  14.518 -0.2085  0.3103  0.2293
15094TIP3    H166773   4.055   5.382  14.447 -1.3831  0.0795 -0.5164
15094TIP3    H266774   4.035   5.375  14.597  0.2533 -0.3030 -0.2996
15095TIP3   OH266775   3.592   1.798  12.593  0.6341 -0.2237  0.2953
15095TIP3    H166776   3.554   1.875  12.636  2.6982  1.6029 -1.0071
15095TIP3    H266777   3.656   1.765  12.656  1.0501  0.2460  0.1244
15096TIP3   OH266778   1.551   6.003   1.953  0.1037 -0.1270 -0.2628
15096TIP3    H166779   1.466   6.005   1.909 -1.2761 -0.5237  2.2526
15096TIP3    H266780   1.588   6.089   1.938 -1.8945  0.9410  0.7100
15097TIP3   OH266781   3.158   6.567   2.336  0.2919 -0.3742 -0.0722
15097TIP3    H166782   3.146   6.498   2.402  1.3362 -1.2998 -0.8305
15097TIP3    H266783   3.158   6.521   2.253  0.8241  0.5603 -0.6038
15098TIP3   OH266784   4.015   1.776  13.059 -0.2626 -0.6483  0.0382
15098TIP3    H166785   3.938   1.813  13.016 -1.4252 -1.4038  1.4068
15098TIP3    H266786   4.088   1.829  13.027 -1.7598  2.4218  1.3925
15099TIP3   OH266787   4.740   2.801  12.743 -0.1702 -0.1988  0.4450
15099TIP3    H166788   4.801   2.870  12.716  1.4410 -1.9379 -0.4621
15099TIP3    H266789   4.796   2.734  12.783 -1.9122 -0.2283  2.9136
15100TIP3   OH266790   6.295   0.913   5.100  0.2546 -0.4333 -0.4932
15100TIP3    H166791   6.312   0.822   5.076  0.5738  0.1484 -2.5854
15100TIP3    H266792   6.200   0.921   5.099  0.1606 -1.1023  1.1817
15101TIP3   OH266793   3.160   5.063   4.969 -0.1098 -0.4735  0.4303
15101TIP3    H166794   3.075   5.023   4.951  0.6697 -1.3003 -1.6327
15101TIP3    H266795   3.223   5.006   4.925  1.5310  0.0984  1.9609
15102TIP3   OH266796   5.703   5.308  12.426  0.1200  0.0065 -0.4708
15102TIP3    H166797   5.732   5.221  12.399 -0.0837 -0.1494 -0.1951
15102TIP3    H266798   5.617   5.293  12.466  0.3349  0.2561  0.0896
15103TIP3   OH266799   2.959   5.617   4.939 -0.5648 -0.8215  0.3387
15103TIP3    H166800   2.982   5.653   4.853  0.5595  2.1164  1.7739
15103TIP3    H266801   2.998   5.530   4.940  4.3301  1.1974 -0.1231
15104TIP3   OH266802   3.443   3.559   2.878 -0.2196 -0.3196 -0.2460
15104TIP3    H166803   3.399   3.599   2.953  2.4466 -0.4306  1.4815
15104TIP3    H266804   3.438   3.624   2.808  1.0529  1.6666  1.4475
15105TIP3   OH266805   5.591   1.668  17.104 -0.0458  0.1258  0.0937
15105TIP3    H166806   5.504   1.681  17.143  0.3754 -0.3615  1.2115
15105TIP3    H266807   5.611   1.752  17.062 -1.1948  0.1365 -0.4665
15106TIP3   OH266808   1.665   0.123   2.677 -0.1337 -0.2364 -0.2940
15106TIP3    H166809   1.672   0.218   2.671 -1.0872 -0.1663 -0.3928
15106TIP3    H266810   1.577   0.107   2.712 -0.3882 -1.1029 -1.2992
15107TIP3   OH266811   0.113   2.481  14.305  0.0573  0.3573 -0.5347
15107TIP3    H166812   0.186   2.437  14.350  1.9721  0.7070 -3.1666
15107TIP3    H266813   0.039   2.422  14.316  1.2090 -0.9183  0.5987
15108TIP3   OH266814   5.639   1.431   2.806 -0.5483 -0.5023 -0.4213
15108TIP3    H166815   5.574   1.391   2.864 -0.4756  0.6505  0.4774
15108TIP3    H266816   5.722   1.421   2.853 -0.3757 -0.2150 -0.6616
15109TIP3   OH266817   4.941   2.154   1.640 -0.1117 -0.2170  0.5470
15109TIP3    H166818   4.880   2.205   1.694  1.2432 -0.2977  2.2008
15109TIP3    H266819   5.028   2.182   1.669  0.6529 -0.6840 -1.2195
15110TIP3   OH266820   2.422   2.929  13.523  0.4495 -0.6645  0.8638
15110TIP3    H166821   2.504   2.928  13.571 -0.2057 -3.0539  1.9919
15110TIP3    H266822   2.442   2.883  13.441  0.8928  1.1026 -0.0447
15111TIP3   OH266823   6.636   2.163  16.837  0.1541 -0.0855 -0.1345
15111TIP3    H166824   6.712   2.174  16.894 -0.7432  0.4067  0.9752
15111TIP3    H266825   6.615   2.070  16.842 -0.0882  0.0044  0.5583
15112TIP3   OH266826   4.067   3.927   4.804  0.0199 -0.3010 -0.4290
15112TIP3    H166827   4.024   4.013   4.803  1.3427  0.4022  0.5399
15112TIP3    H266828   4.024   3.877   4.735 -0.1974  1.4462 -1.5848
15113TIP3   OH266829   3.911   6.635   5.622  0.4626 -0.1034  0.5252
15113TIP3    H166830   3.818   6.655   5.614  0.6374  0.1910 -0.8535
15113TIP3    H266831   3.918   6.587   5.704 -1.1712 -1.6623 -0.2027
15114TIP3   OH266832   2.669   1.205  10.907 -0.0407 -0.4127 -0.1044
15114TIP3    H166833   2.643   1.297  10.898 -2.6435 -1.0296  0.6879
15114TIP3    H266834   2.616   1.158  10.843  0.1452 -1.5530  0.5568
15115TIP3   OH266835   1.406   1.820  14.655 -0.2164 -0.1575 -0.0345
15115TIP3    H166836   1.351   1.744  14.634 -0.2954 -0.4716  1.2835
15115TIP3    H266837   1.411   1.869  14.573 -1.3373 -0.8446 -0.5237
15116TIP3   OH266838   5.032   2.302  17.123  0.0736  0.7207 -0.0015
15116TIP3    H166839   5.010   2.251  17.045  0.0319  2.1285 -0.9237
15116TIP3    H266840   5.003   2.247  17.196  0.0165 -0.5703 -0.9625
15117TIP3   OH266841   1.962   5.216   2.229  0.3448  0.1164 -0.2446
15117TIP3    H166842   1.915   5.200   2.147  1.1030 -1.0113 -0.4714
15117TIP3    H266843   1.913   5.285   2.272 -1.4477 -0.9564 -0.5335
15118TIP3   OH266844   5.257   4.287  16.277 -0.7507 -0.0961 -0.0760
15118TIP3    H166845   5.228   4.357  16.219  0.9432 -0.9995 -2.0464
15118TIP3    H266846   5.332   4.248  16.233  0.2413 -1.1709  2.4651
15119TIP3   OH266847   1.708   0.815   3.865  0.7307 -0.1745  0.1216
15119TIP3    H166848   1.793   0.840   3.900  0.3507 -0.1880  1.0692
15119TIP3    H266849   1.651   0.890   3.883  0.3539 -0.4713  0.1866
15120TIP3   OH266850   1.070   2.758  14.247 -0.4547  0.1239 -0.3136
15120TIP3    H166851   1.145   2.701  14.229  1.1273  1.7124  1.0172
15120TIP3    H266852   1.092   2.800  14.330 -2.3387  1.4386 -0.4630
15121TIP3   OH266853   2.928   0.629  14.749  0.1882 -0.1286 -0.1831
15121TIP3    H166854   2.901   0.631  14.840  0.3019  0.7536 -0.1646
15121TIP3    H266855   2.928   0.536  14.726  1.0872 -0.4292  0.9834
15122TIP3   OH266856   3.178   6.415   1.718 -0.2887  0.1544 -0.4175
15122TIP3    H166857   3.121   6.344   1.690 -0.3224 -0.1177  0.3263
15122TIP3    H266858   3.123   6.470   1.774 -0.1754  0.5984 -0.7345
15123TIP3   OH266859   5.501   3.682  16.559 -0.1261  0.1545  0.0044
15123TIP3    H166860   5.424   3.651  16.512  0.0153  0.6703 -0.5852
15123TIP3    H266861   5.564   3.705  16.490  0.4051  0.1134  0.4630
15124TIP3   OH266862   2.722   6.437  15.526  0.1804 -0.2291 -0.1316
15124TIP3    H166863   2.668   6.455  15.603 -1.4302 -2.7570 -0.6212
15124TIP3    H266864   2.706   6.512  15.468  0.4171  1.0624  1.4397
15125TIP3   OH266865   1.034   4.784  16.822  0.0638 -0.6646 -0.0367
15125TIP3    H166866   1.032   4.724  16.897 -0.0993 -1.4777 -0.6814
15125TIP3    H266867   1.125   4.781  16.792  0.1618 -0.2300  0.2114
15126TIP3   OH266868   0.130   6.385   6.766 -0.5470  0.5484 -0.6316
15126TIP3    H166869   0.115   6.294   6.741 -0.0443  0.2170  0.2449
15126TIP3    H266870   0.183   6.421   6.694 -1.3410  0.3491 -1.3188
15127TIP3   OH266871   1.550   2.047  14.772 -0.1084 -0.1366 -0.5976
15127TIP3    H166872   1.608   2.023  14.699 -0.7087  0.5053 -1.2936
15127TIP3    H266873   1.502   1.967  14.793  0.7570 -0.5760 -0.2636
15128TIP3   OH266874   3.664   4.968  16.809 -0.1383  0.0067 -0.1730
15128TIP3    H166875   3.620   5.051  16.826 -1.0037  0.5624 -4.4542
15128TIP3    H266876   3.596   4.913  16.771  1.8466 -0.4795 -3.1677
15129TIP3   OH266877   5.160   4.634   4.672 -0.6080  0.7607 -0.9392
15129TIP3    H166878   5.255   4.633   4.659 -0.5049  0.1740 -0.2342
15129TIP3    H266879   5.146   4.572   4.744 -1.3325  2.2799  0.2680
15130TIP3   OH266880   6.184   3.221   3.033 -0.2158  0.3249 -0.5698
15130TIP3    H166881   6.165   3.128   3.024  0.8562 -0.0527  0.9451
15130TIP3    H266882   6.111   3.256   3.083  1.1295 -0.4307  2.0422
15131TIP3   OH266883   5.519   2.920  11.406  0.0362  0.3258 -0.0701
15131TIP3    H166884   5.461   2.876  11.344  0.1959  0.3139 -0.2133
15131TIP3    H266885   5.570   2.850  11.446 -0.5705  0.2726  0.5996
15132TIP3   OH266886   0.728   2.356  14.121  0.1766 -0.1307 -0.4256
15132TIP3    H166887   0.739   2.444  14.086 -2.5860  0.3218 -0.1938
15132TIP3    H266888   0.692   2.305  14.049 -0.2963 -0.5355  0.0905
15133TIP3   OH266889   5.830   3.925   3.453 -0.1444 -0.3615 -0.5876
15133TIP3    H166890   5.922   3.945   3.472 -0.5259  1.2210 -0.3453
15133TIP3    H266891   5.796   4.005   3.413 -1.5311 -0.7980 -0.3125
15134TIP3   OH266892   4.745   4.760   4.945  0.6453  0.2645  0.2811
15134TIP3    H166893   4.746   4.705   4.866  0.3670 -3.6642  2.8855
15134TIP3    H266894   4.666   4.733   4.991  1.5522  1.4684  2.5992
15135TIP3   OH266895   3.603   3.319   1.179 -0.8867  0.9836  0.1974
15135TIP3    H166896   3.674   3.315   1.114 -1.4329  1.0236 -0.4119
15135TIP3    H266897   3.562   3.404   1.163 -2.1560  0.2261 -0.6176
15136TIP3   OH266898   1.609   5.554  11.389 -0.4616  0.5431 -0.0681
15136TIP3    H166899   1.641   5.629  11.339  1.0415  0.6620  1.0423
15136TIP3    H266900   1.646   5.566  11.476  1.7855 -2.7672 -0.4999
15137TIP3   OH266901   5.799   5.270  16.329 -0.9359  0.0616 -0.1702
15137TIP3    H166902   5.799   5.318  16.412  0.8178  1.3397 -0.8729
15137TIP3    H266903   5.798   5.178  16.355  2.9451  0.3591  1.4289
15138TIP3   OH266904   6.318   0.484  14.568  0.4896 -0.8118 -0.0498
15138TIP3    H166905   6.356   0.529  14.643  2.6590 -1.1735 -0.8773
15138TIP3    H266906   6.273   0.409  14.605 -1.5600  0.9652  1.1819
15139TIP3   OH266907   5.656   2.730   0.298  0.0919  0.1176 -0.1101
15139TIP3    H166908   5.691   2.693   0.218 -1.3076 -0.9457 -0.2481
15139TIP3    H266909   5.718   2.705   0.366  0.7158  0.1004 -0.6852
15140TIP3   OH266910   3.624   6.490   2.881 -0.1707  0.0190 -0.2418
15140TIP3    H166911   3.658   6.463   2.967 -0.8657  1.1329  0.3966
15140TIP3    H266912   3.530   6.496   2.893 -0.0673  2.4138 -0.4330
15141TIP3   OH266913   5.635   6.009  16.141 -0.4351 -0.3297  0.1088
15141TIP3    H166914   5.691   5.963  16.078  1.0485  0.4590  0.8437
15141TIP3    H266915   5.622   5.945  16.211 -1.0336 -0.7485 -0.3677
15142TIP3   OH266916   2.215   1.606  16.602 -0.0932  0.3838 -0.0116
15142TIP3    H166917   2.196   1.691  16.561 -1.6581 -0.2077 -0.5440
15142TIP3    H266918   2.129   1.566  16.615  0.5965 -0.8603  0.8147
15143TIP3   OH266919   0.784   1.226   5.717 -0.3051  0.1751 -0.2726
15143TIP3    H166920   0.698   1.210   5.680 -0.2453  0.7620 -0.6765
15143TIP3    H266921   0.776   1.312   5.759  0.2940  0.5640 -0.9510
15144TIP3   OH266922   3.584   3.592   3.300  0.0047 -0.1022 -0.1060
15144TIP3    H166923   3.538   3.653   3.358  2.9865  1.2624  0.9071
15144TIP3    H266924   3.560   3.505   3.333 -3.1308  0.5058 -0.6527
15145TIP3   OH266925   4.552   2.564  11.476 -0.4639 -0.1185 -0.0051
15145TIP3    H166926   4.510   2.588  11.559  0.1491 -0.1605  0.3180
15145TIP3    H266927   4.617   2.498  11.501 -0.9909 -0.9001 -0.6578
15146TIP3   OH266928   5.053   5.106   0.736  0.2680 -0.2874 -0.9764
15146TIP3    H166929   5.112   5.114   0.811 -0.3504  0.0513 -0.5223
15146TIP3    H266930   5.048   5.195   0.700 -1.4073  0.0697  0.0938
15147TIP3   OH266931   0.058   5.611   0.860  0.3546 -0.3688  0.6579
15147TIP3    H166932   0.026   5.697   0.837 -0.8025 -0.0131  3.4386
15147TIP3    H266933   0.148   5.626   0.889  0.1638 -0.0913  1.1120
15148TIP3   OH266934   1.673   1.265  10.778 -0.0551  0.4462 -0.0768
15148TIP3    H166935   1.683   1.348  10.823  0.8446  0.3975 -0.1806
15148TIP3    H266936   1.740   1.266  10.709 -0.3987 -0.1250 -0.4277
15149TIP3   OH266937   0.030   2.750   0.173  0.1884 -0.1988  0.0068
15149TIP3    H166938   0.039   2.704   0.256 -0.8382  1.4776  1.0781
15149TIP3    H266939   0.119   2.755   0.139  0.8741  0.6309  1.8603
15150TIP3   OH266940   0.556   4.370   1.397 -0.5194 -0.0978 -0.0795
15150TIP3    H166941   0.486   4.411   1.346  0.8100  0.6739 -1.3232
15150TIP3    H266942   0.581   4.437   1.461 -1.2538 -0.5580  0.6922
15151TIP3   OH266943   6.791   4.242  16.132 -0.2304 -0.1367 -0.6236
15151TIP3    H166944   6.840   4.195  16.065  0.4040 -0.8461  0.3183
15151TIP3    H266945   6.715   4.187  16.149 -0.2380 -0.1037 -0.5481
15152TIP3   OH266946   5.046   1.450  13.195  0.4014  0.3834 -0.3504
15152TIP3    H166947   5.043   1.472  13.102 -0.4847 -0.6254 -0.5586
15152TIP3    H266948   4.957   1.466  13.226  0.6418  0.5046  0.2831
15153TIP3   OH266949   5.940   5.264  14.120  0.8601  0.0467  0.5273
15153TIP3    H166950   5.972   5.224  14.201  0.0702  1.1835  1.4075
15153TIP3    H266951   5.880   5.333  14.149  1.2267  1.0242 -1.0093
15154TIP3   OH266952   1.205   1.010   0.869 -0.1702 -0.2875  0.0737
15154TIP3    H166953   1.151   0.941   0.830 -0.4294 -0.3012  0.4579
15154TIP3    H266954   1.157   1.091   0.852  0.9959  0.0372 -1.9693
15155TIP3   OH266955   5.459   5.959  13.213 -0.6757 -0.1134 -0.1297
15155TIP3    H166956   5.389   5.906  13.252  1.3372 -2.0758  0.9136
15155TIP3    H266957   5.468   5.924  13.124 -2.2290  1.3677 -0.8899
15156TIP3   OH266958   5.026   6.363   5.758  0.1670  0.2441 -0.1419
15156TIP3    H166959   5.071   6.383   5.839 -0.1524  0.2802  0.0275
15156TIP3    H266960   4.933   6.372   5.779  0.0994  0.7579 -0.6451
15157TIP3   OH266961   1.745   4.060  14.398  0.0137 -0.5100  0.0576
15157TIP3    H166962   1.822   4.064  14.342  0.2111  1.8751  0.4318
15157TIP3    H266963   1.734   3.967  14.418  2.5800 -0.9149 -0.2850
15158TIP3   OH266964   5.215   1.871   3.004 -0.2186  0.0588  0.5031
15158TIP3    H166965   5.240   1.953   2.962 -1.1962  0.3968  0.5626
15158TIP3    H266966   5.127   1.853   2.970 -0.9660  0.2579  2.2977
15159TIP3   OH266967   1.859   6.235   3.948  0.0518  0.0482  0.6272
15159TIP3    H166968   1.781   6.221   4.001  0.2850  0.6869  1.1489
15159TIP3    H266969   1.910   6.155   3.958 -0.6048 -0.4389  0.1522
15160TIP3   OH266970   5.122   4.186   1.328 -0.3766  0.1094  0.6614
15160TIP3    H166971   5.185   4.254   1.301  0.7940 -0.6038  1.5460
15160TIP3    H266972   5.116   4.128   1.252 -1.4072  1.2024 -0.1142
15161TIP3   OH266973   3.998   5.117   4.060  0.3851 -0.3912  0.0070
15161TIP3    H166974   3.973   5.117   3.968  0.7140 -0.9909 -0.0831
15161TIP3    H266975   3.915   5.127   4.107  0.1101 -1.0399 -0.3313
15162TIP3   OH266976   5.133   0.510  12.400  0.3250  0.0985 -0.1530
15162TIP3    H166977   5.081   0.482  12.325 -0.1121  0.1548  0.1226
15162TIP3    H266978   5.070   0.513  12.473  0.9117 -0.7902  0.4038
15163TIP3   OH266979   3.039   5.289  11.104 -0.0918 -0.1598  0.4441
15163TIP3    H166980   3.037   5.366  11.048 -0.2924  0.6657  1.5794
15163TIP3    H266981   3.101   5.311  11.173  1.5925 -1.8818 -0.4504
15164TIP3   OH266982   6.304   5.032   3.000  1.1542  0.2588  0.3136
15164TIP3    H166983   6.348   5.107   2.960  2.9393 -1.3809 -0.9622
15164TIP3    H266984   6.291   4.971   2.927  3.2221 -2.2221  1.9140
15165TIP3   OH266985   2.197   3.533   4.268 -0.5178  0.1980  0.0457
15165TIP3    H166986   2.141   3.498   4.337 -0.9011  1.9130  0.6281
15165TIP3    H266987   2.271   3.473   4.264 -0.2646  0.3407  2.2638
15166TIP3   OH266988   1.814   5.922   3.729  0.2787 -0.2281  0.5546
15166TIP3    H166989   1.821   5.949   3.821  0.2587 -0.1359  0.5289
15166TIP3    H266990   1.881   5.854   3.719 -1.0515 -1.6468  1.1454
15167TIP3   OH266991   4.826   4.954  11.711  0.0724  0.4822 -0.4228
15167TIP3    H166992   4.801   4.954  11.619 -0.4955 -1.0116 -0.2843
15167TIP3    H266993   4.796   5.039  11.744 -0.6682  0.5869 -1.3517
15168TIP3   OH266994   2.881   1.603  15.007  0.4417  0.2150 -0.1524
15168TIP3    H166995   2.865   1.555  15.088  0.8283  2.4280  1.2910
15168TIP3    H266996   2.796   1.637  14.981 -0.1460 -2.5655 -2.1107
15169TIP3   OH266997   6.168   0.302   1.359  0.2857 -0.2177  0.0085
15169TIP3    H166998   6.219   0.357   1.300  1.4793  0.4634  1.6385
15169TIP3    H266999   6.157   0.220   1.311 -0.2434  0.8985 -1.8402
15170TIP3   OH267000   5.143   2.384  16.311  0.4371  0.0825 -0.3870
15170TIP3    H167001   5.209   2.386  16.242  1.0785  1.2435  0.2324
15170TIP3    H267002   5.059   2.386  16.265  0.8509 -0.0758 -1.1541
15171TIP3   OH267003   2.326   5.814   3.688 -0.4612 -0.0468 -0.3163
15171TIP3    H167004   2.261   5.850   3.628 -1.9454 -1.1982  0.5503
15171TIP3    H267005   2.295   5.842   3.775  1.2574  0.9911 -0.0184
15172TIP3   OH267006   2.014   3.034   5.688  0.4209  0.0768  0.0030
15172TIP3    H167007   2.096   3.084   5.680 -0.6348  1.8253 -0.1322
15172TIP3    H267008   2.000   3.027   5.782 -1.0776  2.8785  0.0476
15173TIP3   OH267009   3.468   5.998  11.800  0.2360 -0.0757 -0.2392
15173TIP3    H167010   3.430   6.086  11.794  1.7344  0.6231  0.2242
15173TIP3    H267011   3.540   6.007  11.863  1.4576 -1.2406 -1.4162
15174TIP3   OH267012   0.929   0.570  14.159 -0.2517  0.4219 -0.3011
15174TIP3    H167013   1.022   0.580  14.179 -0.2038  1.4492 -0.9964
15174TIP3    H267014   0.885   0.576  14.244  0.2987  0.0358  0.0181
15175TIP3   OH267015   3.373   4.669   5.130  0.0259  0.0568  0.7959
15175TIP3    H167016   3.287   4.628   5.124  0.0300  0.0490  0.7948
15175TIP3    H267017   3.413   4.629   5.207  0.7025 -1.2059 -0.1926
15176TIP3   OH267018   2.679   2.890  12.373 -0.2591  0.0912 -0.2245
15176TIP3    H167019   2.658   2.877  12.465  1.1475 -0.7860 -0.0201
15176TIP3    H267020   2.662   2.805  12.332  2.9368 -0.6836 -0.0320
15177TIP3   OH267021   5.362   4.615  11.352  0.0263  0.2935 -0.0159
15177TIP3    H167022   5.351   4.528  11.392  0.5213 -1.2047 -2.9675
15177TIP3    H267023   5.290   4.621  11.289  1.3713  1.0082 -1.5108
15178TIP3   OH267024   1.335   4.530  13.182  0.0081  0.1652 -0.5373
15178TIP3    H167025   1.396   4.477  13.234  0.0388  1.0543  0.3353
15178TIP3    H267026   1.366   4.520  13.092  1.5318  0.7210 -0.0901
15179TIP3   OH267027   5.611   2.341  15.670  0.1922  0.0484  0.3925
15179TIP3    H167028   5.654   2.411  15.622  0.9510 -0.3724  0.4474
15179TIP3    H267029   5.683   2.294  15.713 -0.1858 -1.4398 -0.5506
15180TIP3   OH267030   4.208   1.635   1.321 -0.2212  0.4854  0.3578
15180TIP3    H167031   4.179   1.603   1.236 -1.0557  0.9354  0.4688
15180TIP3    H267032   4.133   1.683   1.356  1.3262  3.4439 -0.2475
15181TIP3   OH267033   4.453   6.599  12.160  0.2078 -0.2468  0.2611
15181TIP3    H167034   4.384   6.656  12.129 -0.3659 -0.9543  0.2196
15181TIP3    H267035   4.429   6.579  12.251  1.3295  0.9810  0.8476
15182TIP3   OH267036   0.175   4.891   3.258 -0.7758 -0.6586  0.1495
15182TIP3    H167037   0.145   4.982   3.263  0.0265 -0.2977 -1.2056
15182TIP3    H267038   0.124   4.853   3.187  0.0230 -0.8025 -0.3604
15183TIP3   OH267039   1.001   4.387  12.994  0.5039 -0.8600  0.0279
15183TIP3    H167040   1.017   4.433  13.077  1.9773  1.1286 -1.3087
15183TIP3    H267041   0.929   4.434  12.954  2.0436  0.3422 -1.3678
15184TIP3   OH267042   3.479   0.516  11.657  0.2391  0.1069 -0.7916
15184TIP3    H167043   3.432   0.589  11.618 -1.3826 -1.5532 -2.0485
15184TIP3    H267044   3.421   0.484  11.727  1.0965  0.2388 -0.0105
15185TIP3   OH267045   1.546   1.644  13.864 -0.0072  0.5878 -0.1884
15185TIP3    H167046   1.523   1.736  13.846 -1.7135  0.0341 -0.9634
15185TIP3    H267047   1.511   1.627  13.951 -0.3988  0.4532 -0.3694
15186TIP3   OH267048   5.161   6.698   0.219 -0.0260  0.0914 -0.3088
15186TIP3    H167049   5.096   6.676   0.286  1.1223 -0.1756  0.7505
15186TIP3    H267050   5.152   6.631   0.152 -0.6873 -0.0693 -0.0544
15187TIP3   OH267051   5.178   2.931  16.296 -0.7567 -0.1097  0.5456
15187TIP3    H167052   5.101   2.954  16.244  0.2774 -0.3082 -1.1201
15187TIP3    H267053   5.204   2.845  16.265  1.7456  1.1156 -0.8851
15188TIP3   OH267054   1.449   2.626   4.118  0.0572  0.8072 -0.4725
15188TIP3    H167055   1.416   2.562   4.180 -2.0894  2.4679  0.1682
15188TIP3    H267056   1.457   2.578   4.036 -0.0909 -0.6405  0.3480
15189TIP3   OH267057   3.203   5.390  15.057  0.3321 -0.5157  0.3087
15189TIP3    H167058   3.216   5.301  15.090  1.5023 -0.5516 -0.2384
15189TIP3    H267059   3.153   5.379  14.976 -1.9141 -0.4774  1.6422
15190TIP3   OH267060   5.947   1.150   1.055 -0.6047  0.3244 -0.2404
15190TIP3    H167061   5.876   1.093   1.084  0.1894  0.0220  1.1333
15190TIP3    H267062   5.960   1.128   0.963 -1.7594 -0.1614 -0.2977
15191TIP3   OH267063   1.744   1.965  13.760  0.2652 -0.0127 -0.3794
15191TIP3    H167064   1.765   2.004  13.845  0.4994  0.0890 -0.4826
15191TIP3    H267065   1.660   2.003  13.735  0.1274 -0.1504 -0.1252
15192TIP3   OH267066   3.975   6.704  15.208  0.1654  0.5818 -0.6041
15192TIP3    H167067   3.909   6.704  15.278 -0.6943  0.8172 -1.3975
15192TIP3    H267068   4.039   6.769  15.235  0.2331  0.1266  0.3374
15193TIP3   OH267069   0.671   2.889  12.108 -0.5008  0.6509  0.1921
15193TIP3    H167070   0.622   2.952  12.162 -1.3613 -0.2575  0.4913
15193TIP3    H267071   0.758   2.928  12.100 -0.8913  1.6788  0.7243
15194TIP3   OH267072   2.540   5.262  15.681 -0.2510 -0.5467 -0.7121
15194TIP3    H167073   2.474   5.319  15.721  1.8878  1.4362  0.0646
15194TIP3    H267074   2.545   5.186  15.739  0.8070  1.0198  1.2784
15195TIP3   OH267075   1.660   1.418  11.770 -0.2994  0.0567  0.2825
15195TIP3    H167076   1.673   1.327  11.743  0.8763  0.2370  0.2525
15195TIP3    H267077   1.565   1.426  11.778 -0.3605 -1.4970  1.4032
15196TIP3   OH267078   4.370   3.828   2.218  0.0726 -0.2501  0.2671
15196TIP3    H167079   4.318   3.908   2.207  1.2724  0.8578  2.3183
15196TIP3    H267080   4.315   3.771   2.271 -0.9839 -1.0219 -1.5994
15197TIP3   OH267081   2.447   5.608  14.381  0.2371 -0.1490 -0.2797
15197TIP3    H167082   2.430   5.663  14.305 -1.0815 -2.1136 -1.4449
15197TIP3    H267083   2.363   5.566  14.400  0.7775 -0.3622  1.7047
15198TIP3   OH267084   0.739   3.225  16.250 -0.4377 -0.7393 -0.1269
15198TIP3    H167085   0.813   3.209  16.193 -1.5247  1.9840 -2.4270
15198TIP3    H267086   0.759   3.309  16.292  0.2080 -2.5392  3.3737
15199TIP3   OH267087   6.226   1.830  11.829 -0.3081  0.0401  0.0423
15199TIP3    H167088   6.146   1.782  11.848 -0.7538  0.4843 -0.6833
15199TIP3    H267089   6.250   1.871  11.912 -1.0779  0.2562  0.1628
15200TIP3   OH267090   0.435   5.000  14.840 -0.9886  0.3454  0.4572
15200TIP3    H167091   0.504   4.940  14.867 -0.9038 -0.9081 -2.3639
15200TIP3    H267092   0.427   5.062  14.912  0.4257 -1.7618  2.4820
15201TIP3   OH267093   0.533   4.009  13.910 -0.2373 -0.1654  0.6515
15201TIP3    H167094   0.441   3.999  13.935 -0.8320  0.8392 -1.0716
15201TIP3    H267095   0.539   4.099  13.877  1.3513 -0.2543  0.6587
15202TIP3   OH267096   5.717   2.776  17.010 -0.2327  0.2059  0.8221
15202TIP3    H167097   5.717   2.870  16.996  1.6041  0.1652  0.3811
15202TIP3    H267098   5.718   2.739  16.921 -1.7986 -0.2609  0.9764
15203TIP3   OH267099   0.926   0.477   5.193 -0.1419  0.2339  0.8572
15203TIP3    H167100   0.887   0.390   5.203 -3.7092  1.7009  0.4852
15203TIP3    H267101   0.985   0.486   5.268 -0.4101 -2.1239  1.3897
15204TIP3   OH267102   0.451   3.391  15.912  0.0876  0.1017  0.0680
15204TIP3    H167103   0.477   3.312  15.960  1.3086  0.7333  0.4734
15204TIP3    H267104   0.517   3.399  15.843 -0.3787  0.4301 -0.3380
15205TIP3   OH267105   0.045   5.131  13.398 -0.1174  0.5961 -0.0134
15205TIP3    H167106  -0.035   5.116  13.450 -0.4299 -1.1277 -0.9482
15205TIP3    H267107   0.018   5.194  13.332 -1.0868 -0.9048 -1.0953
15206TIP3   OH267108   0.468   1.078  12.396 -0.7343  0.5087 -0.8773
15206TIP3    H167109   0.543   1.095  12.452 -0.8387 -1.4429 -0.1036
15206TIP3    H267110   0.500   1.016  12.330 -1.4349  0.3470 -1.0757
15207TIP3   OH267111   2.722   6.177  14.515  0.9524 -0.5264 -0.4138
15207TIP3    H167112   2.675   6.181  14.432  1.2522  1.3167 -0.5207
15207TIP3    H267113   2.657   6.203  14.580  1.0820 -0.6363 -0.2407
15208TIP3   OH267114   2.231   1.125  15.003  0.0575 -0.1128  0.1887
15208TIP3    H167115   2.226   1.166  14.916 -0.3389  0.7692  0.6243
15208TIP3    H267116   2.158   1.164  15.052  1.3457  0.7094  1.4806
15209TIP3   OH267117   4.519   4.468  14.926 -0.0948 -0.3051  0.1425
15209TIP3    H167118   4.561   4.551  14.906  1.6052 -1.1092  0.2442
15209TIP3    H267119   4.583   4.422  14.981  0.3418 -2.9369 -2.4638
15210TIP3   OH267120   0.222   1.921   5.510  0.0753  0.2659 -0.0191
15210TIP3    H167121   0.128   1.928   5.493 -0.1586 -1.2470  0.5421
15210TIP3    H267122   0.263   1.982   5.449 -1.0450 -1.6333 -2.7237
15211TIP3   OH267123   5.560   3.320   0.576 -0.3833  0.3944  0.4005
15211TIP3    H167124   5.649   3.355   0.564  0.4033 -0.4280  3.3379
15211TIP3    H267125   5.519   3.328   0.490  3.1619 -0.9867 -1.5130
15212TIP3   OH267126   2.009   0.471  11.518 -0.1622 -0.1844  0.1497
15212TIP3    H167127   1.987   0.469  11.611  1.1050 -1.6324  0.4455
15212TIP3    H267128   1.954   0.404  11.478 -0.5731  0.3094 -0.1182
15213TIP3   OH267129   5.055   1.300  14.487  0.0449 -0.0376  0.4992
15213TIP3    H167130   5.078   1.317  14.396  0.2643  0.4132  0.6367
15213TIP3    H267131   5.120   1.348  14.538  0.5181 -1.0831  0.8985
15214TIP3   OH267132   4.007   4.906   3.423  0.0571 -0.1707 -0.2150
15214TIP3    H167133   4.014   4.998   3.445  2.0555 -0.6480  1.2787
15214TIP3    H267134   3.936   4.873   3.478 -0.1692  0.3158 -0.2149
15215TIP3   OH267135   6.251   0.403  13.591  0.4271 -0.7377 -0.6015
15215TIP3    H167136   6.302   0.468  13.640  1.1071 -1.7073 -0.0083
15215TIP3    H267137   6.161   0.434  13.597  0.5004 -0.8218  1.2512
15216TIP3   OH267138   4.115   2.915  15.926  0.0344  0.6904 -0.4464
15216TIP3    H167139   4.125   3.008  15.948  0.3068  1.2136 -2.6434
15216TIP3    H267140   4.162   2.905  15.844 -2.4537 -0.7604 -1.7404
15217TIP3   OH267141   4.349   4.639   1.512 -0.7297  0.0563  0.6692
15217TIP3    H167142   4.256   4.654   1.528 -1.0984  0.0302 -1.2716
15217TIP3    H267143   4.356   4.636   1.417  1.2385 -0.1155  0.8039
15218TIP3   OH267144   4.850   0.854   5.786 -0.5675 -0.1493  0.2402
15218TIP3    H167145   4.834   0.940   5.824 -0.7950 -0.2191  0.3051
15218TIP3    H267146   4.778   0.841   5.724 -1.7525 -1.2085  1.8187
15219TIP3   OH267147   2.843   2.076  11.979 -0.1350 -0.2478  0.1214
15219TIP3    H167148   2.937   2.057  11.974  0.2277  0.6625  2.6539
15219TIP3    H267149   2.804   1.994  12.011 -0.1309 -0.4308 -0.3369
15220TIP3   OH267150   3.622   1.108  15.353  0.4169  0.5187  0.0447
15220TIP3    H167151   3.654   1.162  15.424  0.6953  0.4760 -0.0472
15220TIP3    H267152   3.701   1.082  15.305  0.2028  0.8656 -0.5060
15221TIP3   OH267153   2.104   5.359   6.141 -0.2781 -0.5807 -0.4859
15221TIP3    H167154   2.167   5.291   6.169  0.9419  0.9869  0.6492
15221TIP3    H267155   2.085   5.408   6.221 -0.4967  0.9392 -1.4524
15222TIP3   OH267156   4.974   4.557   2.483  0.1320  0.7753 -0.2437
15222TIP3    H167157   4.964   4.643   2.442  0.3415 -0.2681 -2.5672
15222TIP3    H267158   5.052   4.520   2.442  0.3428 -0.3065  1.1226
15223TIP3   OH267159   6.611   2.294   2.956 -0.2866  0.0977  0.1029
15223TIP3    H167160   6.656   2.374   2.930 -1.4040  0.6889 -0.0082
15223TIP3    H267161   6.525   2.323   2.987 -0.1045 -0.8803  1.6042
15224TIP3   OH267162   0.935   3.443   3.858  0.3300  0.1987 -0.4485
15224TIP3    H167163   0.861   3.468   3.913 -2.0181 -3.8829 -1.5450
15224TIP3    H267164   0.992   3.392   3.916  0.1670 -0.2034 -0.6398
15225TIP3   OH267165   4.999   1.325  12.666  0.6686 -0.2131 -0.2828
15225TIP3    H167166   4.914   1.280  12.661  1.3026 -1.7738  2.1498
15225TIP3    H267167   5.064   1.254  12.665  1.7942  0.7789  1.2791
15226TIP3   OH267168   6.571   5.352   2.544 -0.5648  0.4665 -0.5954
15226TIP3    H167169   6.560   5.446   2.532  0.2588  0.3339 -2.6874
15226TIP3    H267170   6.504   5.313   2.488 -1.4160 -0.2024  0.8661
15227TIP3   OH267171   5.368   1.038  13.302  0.1729  0.1337 -0.1061
15227TIP3    H167172   5.443   1.095  13.317  0.9953 -0.9893  0.1235
15227TIP3    H267173   5.363   0.984  13.381 -0.8653  0.1838 -0.1312
15228TIP3   OH267174   3.089   3.239  15.335 -0.2606  0.3502  0.2286
15228TIP3    H167175   3.079   3.285  15.419 -1.3374  0.3868  0.0839
15228TIP3    H267176   3.075   3.147  15.357  0.6885  0.2255  0.3079
15229TIP3   OH267177   1.968   2.240   0.761 -0.2019  1.2333 -0.4248
15229TIP3    H167178   2.021   2.162   0.745  0.9920  2.0118 -0.3402
15229TIP3    H267179   1.882   2.218   0.726  0.1697 -0.0520 -0.5721
15230TIP3   OH267180   2.246   4.003   4.954 -0.4878  0.2994  0.1356
15230TIP3    H167181   2.237   3.999   5.050  2.1902  0.2669  0.4237
15230TIP3    H267182   2.166   4.045   4.924 -2.0794 -1.0971  2.2576
15231TIP3   OH267183   1.236   3.163   5.293  0.3484 -0.5698  0.1193
15231TIP3    H167184   1.217   3.072   5.315  0.7906 -0.6878  0.0352
15231TIP3    H267185   1.313   3.184   5.346  0.6639 -0.4641 -0.3708
15232TIP3   OH267186   5.372   0.585   4.120 -0.1995 -0.0891  0.3393
15232TIP3    H167187   5.454   0.593   4.170  0.8542  1.9787 -1.6113
15232TIP3    H267188   5.311   0.645   4.164  0.2399  0.5502  0.0863
15233TIP3   OH267189   3.958   1.342  14.251  0.0853  0.4636  0.1980
15233TIP3    H167190   4.041   1.389  14.249  0.3488  0.0885  1.6055
15233TIP3    H267191   3.898   1.401  14.296 -0.4286  0.7731 -0.9055
15234TIP3   OH267192   4.944   0.232   6.198  0.2435 -0.1981  0.1572
15234TIP3    H167193   5.038   0.236   6.214 -0.1392  0.9231  2.2616
15234TIP3    H267194   4.929   0.293   6.126  1.0006  0.4037  0.5047
15235TIP3   OH267195   5.796   5.859   5.454  0.0946 -0.0072  0.1539
15235TIP3    H167196   5.889   5.863   5.429 -0.2063 -0.7438 -1.1415
15235TIP3    H267197   5.748   5.873   5.372 -0.9345  0.2992  0.8043
15236TIP3   OH267198   1.527   1.892  14.998  0.1453  0.2356 -0.5749
15236TIP3    H167199   1.508   1.904  15.091  1.8420  1.0063 -0.3113
15236TIP3    H267200   1.552   1.979  14.968 -2.3580  0.4374 -2.2584
15237TIP3   OH267201   6.056   1.912  13.084 -0.0761 -0.0792  0.5129
15237TIP3    H167202   6.097   1.921  12.998  1.3557  1.5830  1.3525
15237TIP3    H267203   6.020   1.823  13.084  0.9996 -0.5307 -1.3293
15238TIP3   OH267204   1.143   4.141  16.129  0.1824  0.0104 -0.1602
15238TIP3    H167205   1.102   4.189  16.057 -1.2079  0.7607  1.0951
15238TIP3    H267206   1.069   4.113  16.184  1.1198 -1.8193  0.2085
15239TIP3   OH267207   5.267   2.756   1.522 -0.0987 -0.5980  0.0265
15239TIP3    H167208   5.273   2.846   1.491 -0.3916 -0.6655 -0.2153
15239TIP3    H267209   5.180   2.748   1.560  1.0056  0.1451  2.9033
15240TIP3   OH267210   4.758   0.649  14.677  0.2735  0.1667 -0.0611
15240TIP3    H167211   4.811   0.707  14.622 -0.4368  0.1029 -0.8254
15240TIP3    H267212   4.821   0.588  14.715  0.4979 -1.4215 -2.8267
15241TIP3   OH267213   0.686   4.075  15.614 -0.6181 -0.1783 -0.3012
15241TIP3    H167214   0.760   4.137  15.619  0.2398 -1.1683 -0.5727
15241TIP3    H267215   0.675   4.058  15.521 -1.0786 -0.1629 -0.2479
15242TIP3   OH267216   2.887   3.582   1.419 -0.5306  0.5590  0.2109
15242TIP3    H167217   2.798   3.618   1.423 -2.1118 -3.2377  2.3366
15242TIP3    H267218   2.889   3.533   1.337 -0.0794  1.3059 -0.2338
15243TIP3   OH267219   0.070   6.356  15.430  0.1164 -0.6789  0.1517
15243TIP3    H167220   0.158   6.332  15.460  0.2698 -0.3838 -0.0604
15243TIP3    H267221   0.082   6.382  15.339  0.0964  0.9775  0.5963
15244TIP3   OH267222   6.584   1.879  16.813 -0.3999  0.2443  0.3458
15244TIP3    H167223   6.643   1.803  16.814 -0.8932 -0.1603 -0.5918
15244TIP3    H267224   6.533   1.871  16.894  0.0072 -0.0618  0.5707
15245TIP3   OH267225   0.344   4.635  16.504  0.0415  0.1102  1.0215
15245TIP3    H167226   0.278   4.686  16.549 -0.4397 -0.4609  0.9669
15245TIP3    H267227   0.427   4.679  16.525 -0.4489  1.4244  0.2491
15246TIP3   OH267228   0.998   2.452  14.332  0.0942 -0.0274  0.0198
15246TIP3    H167229   1.055   2.506  14.278  0.0503 -0.5871 -0.5895
15246TIP3    H267230   1.022   2.362  14.309  0.9178 -0.2913  1.8039
15247TIP3   OH267231   2.604   4.871  13.518 -0.3109  0.2212  0.1545
15247TIP3    H167232   2.579   4.841  13.430 -0.5451 -0.7980  0.5688
15247TIP3    H267233   2.558   4.812  13.577 -2.2948  2.5270  1.0244
15248TIP3   OH267234   6.253   0.094   4.917 -0.6223 -0.0178  0.5122
15248TIP3    H167235   6.223   0.184   4.932 -1.6818  0.0559 -1.8392
15248TIP3    H267236   6.234   0.048   4.999 -3.1100  1.1297  0.6154
15249TIP3   OH267237   0.678   4.440  11.365  0.0346  0.5735  0.0484
15249TIP3    H167238   0.635   4.476  11.442 -1.1997 -1.4333  0.3399
15249TIP3    H267239   0.761   4.488  11.359 -0.8455  2.2915  1.3160
15250TIP3   OH267240   2.786   4.159   5.526 -0.2578 -0.2551  0.1448
15250TIP3    H167241   2.716   4.223   5.513 -2.3432 -2.4516  0.1944
15250TIP3    H267242   2.802   4.161   5.621 -0.2699  0.2335  0.1392
15251TIP3   OH267243   5.221   4.502   5.776  0.2042  0.2928  0.3734
15251TIP3    H167244   5.176   4.439   5.719 -0.6153  0.1550  1.1487
15251TIP3    H267245   5.299   4.456   5.806  0.2107  0.0678  0.0223
15252TIP3   OH267246   4.677   1.820   3.989 -0.3332 -0.3742  0.0589
15252TIP3    H167247   4.747   1.885   3.983 -0.4979 -0.2302 -0.3935
15252TIP3    H267248   4.684   1.784   4.077 -0.1179  0.1239  0.2467
15253TIP3   OH267249   1.338   3.532  15.109 -0.0145  0.2592  0.1133
15253TIP3    H167250   1.359   3.520  15.202  0.9093  1.6144  0.0975
15253TIP3    H267251   1.338   3.627  15.097  0.1076  0.0819 -1.3240
15254TIP3   OH267252   5.243   0.744   1.198  0.0419 -0.0436  0.2720
15254TIP3    H167253   5.244   0.732   1.293  0.5949  0.5532  0.3453
15254TIP3    H267254   5.224   0.657   1.163 -1.0933 -0.0849  0.9591
15255TIP3   OH267255   2.946   4.524  15.383  0.0881  0.3268  0.3090
15255TIP3    H167256   2.867   4.487  15.343 -0.7575 -0.7860  2.8774
15255TIP3    H267257   3.013   4.457  15.369  0.0076  0.2923  0.0751
15256TIP3   OH267258   5.486   0.454  12.267 -0.3343  0.2676 -0.5148
15256TIP3    H167259   5.452   0.394  12.333 -0.1777  0.6278 -0.1069
15256TIP3    H267260   5.541   0.400  12.211  1.4492  0.4235  1.0597
15257TIP3   OH267261   2.725   5.004   3.020 -0.4139  0.2533 -0.1389
15257TIP3    H167262   2.671   4.997   2.940 -0.7236 -0.7463  0.1544
15257TIP3    H267263   2.698   5.088   3.059 -2.6218 -0.7537  0.6107
15258TIP3   OH267264   2.001   4.982  13.463 -0.2234  0.2351 -0.3648
15258TIP3    H167265   2.017   4.931  13.383 -1.5215 -0.9126  0.0687
15258TIP3    H267266   1.909   4.966  13.483 -0.4524  2.1813  0.2194
15259TIP3   OH267267   0.814   6.125  10.827 -0.2698 -0.2303  0.0590
15259TIP3    H167268   0.888   6.069  10.804  1.4699  1.5332  1.1230
15259TIP3    H267269   0.818   6.131  10.922 -0.6419  1.3985 -0.0193
15260TIP3   OH267270   6.174   2.206  11.425  0.3376 -0.1923 -0.0828
15260TIP3    H167271   6.146   2.193  11.335 -1.1008 -0.4784  0.3888
15260TIP3    H267272   6.138   2.130  11.472 -2.3119  1.9068  1.4533
15261TIP3   OH267273   2.101   0.360   2.361 -0.4155  0.1193 -0.6184
15261TIP3    H167274   2.022   0.403   2.329 -0.8612  0.0984  0.4222
15261TIP3    H267275   2.069   0.293   2.421  0.4261  1.0763  0.9591
15262TIP3   OH267276   2.379   4.075  14.077 -0.0530 -0.3598 -0.2034
15262TIP3    H167277   2.431   4.017  14.132  1.1916  1.5200  0.6751
15262TIP3    H267278   2.366   4.154  14.131 -1.8335  0.1261 -1.2903
15263TIP3   OH267279   0.006   4.005   4.158  0.4779  0.3296 -0.3839
15263TIP3    H167280  -0.065   4.067   4.146  0.9508  0.6901 -1.4022
15263TIP3    H267281   0.063   4.046   4.223 -0.5801 -0.2696  0.9370
15264TIP3   OH267282   2.229   2.224   2.453  0.6764  0.4342  0.2750
15264TIP3    H167283   2.182   2.307   2.461  1.4051  0.8192  0.5904
15264TIP3    H267284   2.201   2.172   2.528 -0.1408  0.2163 -0.1828
15265TIP3   OH267285   1.306   2.349   1.871 -0.1286 -0.2404 -0.4749
15265TIP3    H167286   1.292   2.361   1.777 -0.2048  0.3898 -0.3843
15265TIP3    H267287   1.394   2.384   1.887 -1.1168  2.0655  0.1316
15266TIP3   OH267288   6.156   0.356   4.972 -0.0215 -0.0685  0.0666
15266TIP3    H167289   6.102   0.385   4.898 -0.3313  0.7785  0.6265
15266TIP3    H267290   6.113   0.392   5.049 -0.0786 -1.5229  0.7298
15267TIP3   OH267291   2.669   3.016   6.609 -0.0601 -0.0105  0.7427
15267TIP3    H167292   2.602   3.015   6.678 -0.0548 -1.0777  0.7441
15267TIP3    H267293   2.622   2.989   6.530 -0.1670  1.6565  0.2145
15268TIP3   OH267294   1.281   2.496  13.768 -0.2460  0.4740  0.3943
15268TIP3    H167295   1.209   2.521  13.826 -1.0317 -0.9172  0.0390
15268TIP3    H267296   1.254   2.527  13.681  0.4617  1.6483  0.5897
15269TIP3   OH267297   3.296   6.554  11.118  0.1530 -0.1222 -0.3429
15269TIP3    H167298   3.324   6.607  11.043 -1.2005  1.5901  0.3238
15269TIP3    H267299   3.294   6.616  11.191 -0.7569 -1.2660  0.6142
15270TIP3   OH267300   3.245   2.797  15.117  0.4558  0.5005  0.1134
15270TIP3    H167301   3.193   2.778  15.040  2.1686 -1.1956 -0.6776
15270TIP3    H267302   3.328   2.831  15.083  0.6545  1.2357  1.2647
15271TIP3   OH267303   1.118   1.391   0.688 -0.0365  0.4145  0.1937
15271TIP3    H167304   1.077   1.419   0.606 -0.9003  1.1169  0.8522
15271TIP3    H267305   1.123   1.296   0.680 -0.6642  0.4252 -0.4332
15272TIP3   OH267306   5.897   2.368  16.384 -0.0307 -0.2922 -0.1245
15272TIP3    H167307   5.896   2.332  16.473  1.1382  2.1180  0.8905
15272TIP3    H267308   5.989   2.383  16.365 -0.3757  0.4620 -1.2473
15273TIP3   OH267309   1.400   6.542   0.627  0.6077  0.2009 -0.3626
15273TIP3    H167310   1.353   6.461   0.646 -1.3398  1.4065  0.1134
15273TIP3    H267311   1.483   6.533   0.675 -0.5498 -0.5367  1.5818
15274TIP3   OH267312   3.961   6.481   5.848  0.1847  0.2803  0.4979
15274TIP3    H167313   4.050   6.468   5.880 -0.6898  1.3423  3.4526
15274TIP3    H267314   3.909   6.414   5.892 -0.6533  0.2355 -0.5291
15275TIP3   OH267315   2.604   2.276   5.251 -0.2321  0.0631 -0.0017
15275TIP3    H167316   2.548   2.310   5.181 -1.5175 -0.1745  0.8894
15275TIP3    H267317   2.542   2.243   5.316  0.9730 -0.8724  0.6678
15276TIP3   OH267318   3.283   6.710  11.357  0.2321 -0.1499  0.2767
15276TIP3    H167319   3.245   6.797  11.365  0.6596  0.0214  0.4869
15276TIP3    H267320   3.250   6.661  11.432 -1.3814 -0.7021 -0.7554
15277TIP3   OH267321   4.880   0.481   4.475  0.0549 -0.1404 -0.6342
15277TIP3    H167322   4.817   0.415   4.502 -0.9512  1.0276 -0.0676
15277TIP3    H267323   4.844   0.517   4.394 -0.7168  1.4543  0.3953
15278TIP3   OH267324   3.286   4.491   3.420  0.0773 -0.2833 -0.1118
15278TIP3    H167325   3.366   4.503   3.369 -1.1448  0.6669 -1.8677
15278TIP3    H267326   3.306   4.530   3.505  1.5478 -0.2572 -0.4513
15279TIP3   OH267327   4.593   5.529  13.579  0.4027 -0.0458  0.3713
15279TIP3    H167328   4.631   5.527  13.492  0.4590  0.1346  0.3924
15279TIP3    H267329   4.651   5.474  13.632 -0.7319 -1.8103 -0.1444
15280TIP3   OH267330   4.800   5.888  11.871  0.1239  0.1129 -0.4183
15280TIP3    H167331   4.882   5.935  11.854  1.5064 -1.7187  0.9717
15280TIP3    H267332   4.770   5.859  11.785  0.1378  2.0230 -1.1017
15281TIP3   OH267333   4.771   1.167  12.754  0.4968 -0.6690  0.0858
15281TIP3    H167334   4.797   1.207  12.837  0.6485  0.1466 -0.3531
15281TIP3    H267335   4.689   1.123  12.774  1.2623 -1.6959  1.0252
15282TIP3   OH267336   1.576   1.507   2.342 -0.4957 -1.0489 -0.3764
15282TIP3    H167337   1.663   1.501   2.303  0.5862 -2.1372  2.0586
15282TIP3    H267338   1.546   1.416   2.346 -1.1480 -0.8146  0.0780
15283TIP3   OH267339   2.167   1.160  10.752 -1.0251  0.5916  0.2661
15283TIP3    H167340   2.179   1.066  10.740  0.3402  0.6469  1.0121
15283TIP3    H267341   2.223   1.182  10.827 -2.2792  1.7800  0.8757
15284TIP3   OH267342   4.930   2.984   5.480  0.6798  0.4278  0.0548
15284TIP3    H167343   4.994   2.962   5.413 -0.9224  0.0026 -1.3699
15284TIP3    H267344   4.856   3.021   5.432 -0.0323  1.2064  1.6899
15285TIP3   OH267345   2.723   0.940  16.013 -0.0369 -0.4953 -0.6013
15285TIP3    H167346   2.729   1.030  15.982  0.5669 -0.5877 -0.7727
15285TIP3    H267347   2.803   0.898  15.980  1.9411  0.0469  3.1421
15286TIP3   OH267348   0.803   4.517   5.063  0.6481 -0.4592  0.1562
15286TIP3    H167349   0.894   4.546   5.061  0.9168 -1.3572 -0.8782
15286TIP3    H267350   0.758   4.584   5.114  1.5789  0.8745 -0.7408
15287TIP3   OH267351   6.462   1.679   0.551  0.2516 -0.2651  0.5464
15287TIP3    H167352   6.529   1.719   0.607  1.1985 -0.9826 -0.0613
15287TIP3    H267353   6.476   1.718   0.465 -0.1446 -0.3778  0.4310
15288TIP3   OH267354   1.429   2.239  12.509 -0.2923  0.6676  0.5372
15288TIP3    H167355   1.342   2.200  12.503 -0.7386  1.6691  0.3110
15288TIP3    H267356   1.429   2.309  12.444  1.0665 -0.0187 -0.2185
15289TIP3   OH267357   5.610   4.285   3.928 -0.3421 -0.4102 -0.4065
15289TIP3    H167358   5.559   4.317   4.002  1.8843  2.1558  0.0882
15289TIP3    H267359   5.673   4.225   3.967 -0.5879 -0.7403 -0.5177
15290TIP3   OH267360   1.813   3.969   5.265  0.9653  0.0772  0.0449
15290TIP3    H167361   1.857   4.031   5.322 -1.2064  2.1940 -0.4837
15290TIP3    H267362   1.782   3.900   5.323 -2.2700  2.7978  1.7627
15291TIP3   OH267363   0.793   2.280   5.782 -0.4794 -0.1809  0.1008
15291TIP3    H167364   0.879   2.296   5.822  0.4566 -3.2208 -0.5180
15291TIP3    H267365   0.745   2.362   5.793  2.2402  1.3344  1.1424
15292TIP3   OH267366   1.560   2.068  13.515  0.1314 -0.1868  0.1716
15292TIP3    H167367   1.549   1.977  13.487 -3.4173 -0.1607  1.1287
15292TIP3    H267368   1.470   2.099  13.529  1.4101  2.2368  3.6920
15293TIP3   OH267369   3.391   5.121   3.192  0.5257  0.6384 -0.3899
15293TIP3    H167370   3.421   5.180   3.262  2.3037  0.3499 -0.8982
15293TIP3    H267371   3.438   5.150   3.114 -0.0487 -0.2338 -1.0726
15294TIP3   OH267372   5.849   3.218   0.368 -0.1713  0.4479  0.6049
15294TIP3    H167373   5.783   3.171   0.318  0.0416 -0.6643  1.3411
15294TIP3    H267374   5.853   3.171   0.452  0.4441  1.4417  1.1413
15295TIP3   OH267375   2.790   4.991  14.152 -0.0602 -0.0229  0.0173
15295TIP3    H167376   2.825   5.070  14.192  0.0954  0.0427 -0.2507
15295TIP3    H267377   2.695   5.006  14.149 -0.4321 -1.2333  3.0662
15296TIP3   OH267378   5.714   1.094   1.397  0.6797 -0.3530 -0.2823
15296TIP3    H167379   5.634   1.047   1.420  1.0236 -0.2735  1.0666
15296TIP3    H267380   5.778   1.026   1.378  0.5155 -0.4124 -0.6443
15297TIP3   OH267381   4.691   5.225   3.757  0.5250  0.6617 -0.1035
15297TIP3    H167382   4.660   5.135   3.769  0.9012  0.2399 -2.1633
15297TIP3    H267383   4.707   5.233   3.663 -0.1538  3.1024 -0.0571
15298TIP3   OH267384   1.665   1.954   1.279  0.6767  0.5692  0.3519
15298TIP3    H167385   1.661   2.047   1.260  0.6283  0.3686 -0.6104
15298TIP3    H267386   1.656   1.911   1.194 -0.0549 -0.3267  0.8714
15299TIP3   OH267387   3.385   3.014  13.525 -0.6726  0.3416  0.2838
15299TIP3    H167388   3.453   2.994  13.461 -0.7345  0.1303  0.2856
15299TIP3    H267389   3.396   2.949  13.594  0.5107  1.6483  1.3418
15300TIP3   OH267390   5.057   6.227  16.452 -0.0691  0.6954  0.0367
15300TIP3    H167391   5.008   6.195  16.528 -1.6638 -0.4150 -1.4306
15300TIP3    H267392   5.025   6.316  16.439 -0.9895  0.3258 -0.2985
15301TIP3   OH267393   5.879   5.999   3.550  0.2423  0.4293  0.2590
15301TIP3    H167394   5.807   6.063   3.553  1.0076  1.3480 -0.6575
15301TIP3    H267395   5.836   5.917   3.525 -0.4665  1.0439 -0.6264
15302TIP3   OH267396   3.062   6.581  13.993  0.2771 -0.2350  0.1895
15302TIP3    H167397   3.007   6.647  14.036  0.3279 -0.1201  0.0799
15302TIP3    H267398   3.002   6.531  13.938  0.3903  0.3396 -0.4698
15303TIP3   OH267399   3.804   1.878  12.919  0.0099  0.4277 -0.2949
15303TIP3    H167400   3.731   1.910  12.867  0.7954 -0.4562 -1.9867
15303TIP3    H267401   3.872   1.944  12.907 -0.1353  0.7109  0.4128
15304TIP3   OH267402   2.159   3.711  15.051  0.7778  0.3626  0.0852
15304TIP3    H167403   2.101   3.786  15.062 -1.8254 -1.4280 -0.9185
15304TIP3    H267404   2.186   3.715  14.959 -0.2224 -0.4787 -0.2616
15305TIP3   OH267405   2.326   2.884   6.224 -0.1891 -0.1346 -0.4478
15305TIP3    H167406   2.362   2.907   6.139  1.7374 -0.9330  0.1213
15305TIP3    H267407   2.376   2.807   6.252 -1.0910 -0.1589  1.2056
15306TIP3   OH267408   0.680   6.721  13.784  0.1692  0.6252 -0.2558
15306TIP3    H167409   0.612   6.673  13.737  0.4154  2.1351 -2.2088
15306TIP3    H267410   0.634   6.793  13.827  0.4301  1.3209 -1.1209
15307TIP3   OH267411   5.618   2.186   5.341  0.4233 -0.4886  0.0140
15307TIP3    H167412   5.567   2.112   5.307 -0.8135 -1.2736  3.3901
15307TIP3    H267413   5.709   2.166   5.317 -0.0692 -2.3752 -0.3580
15308TIP3   OH267414   2.376   2.575   1.104  0.0704 -0.0780  0.1412
15308TIP3    H167415   2.376   2.567   1.008 -1.6969  0.2005  0.0976
15308TIP3    H267416   2.292   2.537   1.131 -1.1745  3.2655  1.2351
15309TIP3   OH267417   1.309   3.174   2.642  0.4041  0.2642 -0.0036
15309TIP3    H167418   1.257   3.243   2.602  0.7574  0.1063 -0.7417
15309TIP3    H267419   1.391   3.174   2.593  1.4073  0.9937  1.6109
15310TIP3   OH267420   0.436   2.773   2.076  0.1395 -0.4275 -0.3891
15310TIP3    H167421   0.482   2.703   2.029  0.8770 -0.4989  0.4187
15310TIP3    H267422   0.355   2.732   2.107  1.4831 -1.5192  1.7934
15311TIP3   OH267423   4.504   5.929  15.773  0.5964 -0.8184 -0.1391
15311TIP3    H167424   4.553   5.965  15.700 -0.7019 -0.5926 -0.9190
15311TIP3    H267425   4.493   5.837  15.751 -1.3169 -0.3821 -1.1145
15312TIP3   OH267426   0.964   3.977  11.593 -0.1712  0.0412  0.5186
15312TIP3    H167427   0.885   4.012  11.635  1.0280  1.7953  1.3570
15312TIP3    H267428   1.036   4.008  11.648  1.0998 -1.7400 -0.1108
15313TIP3   OH267429   3.299   3.005  14.834  0.2567  0.6693 -0.3189
15313TIP3    H167430   3.224   3.002  14.775  0.0868 -0.6646 -0.0510
15313TIP3    H267431   3.321   3.098  14.840 -1.5345  1.0967 -0.1736
15314TIP3   OH267432   6.816   0.361   1.357  0.7656 -0.3232 -0.2703
15314TIP3    H167433   6.789   0.306   1.430  0.2485 -0.0352 -0.2406
15314TIP3    H267434   6.847   0.300   1.290 -0.9616 -0.7235 -0.7178
15315TIP3   OH267435   2.164   3.125   6.542  0.2669 -0.2694 -0.0281
15315TIP3    H167436   2.237   3.065   6.559 -0.5181 -1.6291 -1.3558
15315TIP3    H267437   2.086   3.075   6.568 -0.4824 -0.2235 -2.1437
15316TIP3   OH267438   5.383   5.066   5.832 -0.0326  0.7294  1.0248
15316TIP3    H167439   5.427   5.005   5.891 -0.8472  0.0489  0.9367
15316TIP3    H267440   5.398   5.152   5.871  2.0164  0.6088  0.5940
15317TIP3   OH267441   6.135   0.571   1.132 -0.3650  0.7112 -0.0158
15317TIP3    H167442   6.158   0.646   1.187  3.2629  0.2595 -0.7652
15317TIP3    H267443   6.163   0.598   1.044 -1.3469 -0.5575 -0.7223
15318TIP3   OH267444   2.960   0.946  15.590  0.0559 -0.4557 -0.4698
15318TIP3    H167445   3.004   1.002  15.526 -0.1766 -0.7533 -0.8903
15318TIP3    H267446   2.975   0.857  15.558 -0.9840 -0.5518 -0.7022
15319TIP3   OH267447   6.098   3.620   5.430  0.1898  0.1097 -0.3057
15319TIP3    H167448   6.053   3.617   5.345 -0.9498  0.9055  0.2440
15319TIP3    H267449   6.145   3.537   5.435 -0.3833 -0.2998 -1.3723
15320TIP3   OH267450   5.066   2.832  15.530 -0.3422  0.2092 -0.1417
15320TIP3    H167451   5.060   2.739  15.508 -1.2234  0.5824 -1.5826
15320TIP3    H267452   4.976   2.858  15.551  0.0196  0.5686  0.9745
15321TIP3   OH267453   6.132   2.891   4.544  0.3394  0.7643  0.0313
15321TIP3    H167454   6.177   2.808   4.559 -0.4492  0.6194  1.6695
15321TIP3    H267455   6.071   2.872   4.473  0.3153 -0.0033  0.2527
15322TIP3   OH267456   3.277   2.244   1.004 -0.1754  0.5320  0.1036
15322TIP3    H167457   3.324   2.299   0.941  0.8561  0.8075  1.0971
15322TIP3    H267458   3.322   2.159   0.998  1.3555  1.1703  2.0209
15323TIP3   OH267459   0.254   2.298  13.717  0.1326  0.4820 -0.1556
15323TIP3    H167460   0.346   2.286  13.691  0.7006  0.2370  1.8766
15323TIP3    H267461   0.214   2.212  13.705  0.7945 -0.0405  1.3016
15324TIP3   OH267462   3.485   2.339  13.229 -0.8896  0.0918  0.0980
15324TIP3    H167463   3.487   2.428  13.263  2.4557  1.0887 -2.4440
15324TIP3    H267464   3.423   2.342  13.157  0.1119  0.7398 -0.7668
15325TIP3   OH267465   4.239   4.360   0.621 -0.0035  0.3553 -0.1886
15325TIP3    H167466   4.155   4.315   0.625 -0.6479  1.5693  0.1219
15325TIP3    H267467   4.223   4.436   0.566  1.0122  0.3438 -0.5098
15326TIP3   OH267468   1.196   0.826  11.960  0.3041 -0.3936  0.1441
15326TIP3    H167469   1.177   0.853  11.870 -0.6822  0.0768  0.4802
15326TIP3    H267470   1.261   0.889  11.991  0.7745 -0.6618 -0.2932
15327TIP3   OH267471   6.458   4.088  16.127 -0.1377  0.2671  0.3865
15327TIP3    H167472   6.423   4.177  16.128 -0.1614  0.2564  0.5826
15327TIP3    H267473   6.384   4.034  16.098  0.1565  0.4278 -0.6618
15328TIP3   OH267474   1.964   5.855  11.411  0.2772 -0.2336  0.0095
15328TIP3    H167475   2.041   5.898  11.376  0.2135  0.1044  0.2839
15328TIP3    H267476   1.985   5.762  11.408  0.1652 -0.2256 -1.1720
15329TIP3   OH267477   6.465   2.378  13.191  0.0909  0.0432 -0.0746
15329TIP3    H167478   6.486   2.471  13.193 -0.0059  0.0552  0.3497
15329TIP3    H267479   6.549   2.334  13.186  0.1104  0.1773 -1.1146
15330TIP3   OH267480   3.707   6.442  14.771  0.1983  0.1989  0.1033
15330TIP3    H167481   3.752   6.481  14.845  1.0533 -0.5115 -0.0265
15330TIP3    H267482   3.691   6.351  14.797 -0.7427  0.3124 -0.0386
15331TIP3   OH267483   6.302   2.760  11.706 -0.0221  0.1303  0.0044
15331TIP3    H167484   6.373   2.710  11.666 -0.3416 -0.9701  0.7779
15331TIP3    H267485   6.343   2.807  11.778 -0.2803 -1.5284  1.2807
15332TIP3   OH267486   1.672   5.712   0.970  0.3333 -0.0125 -0.3448
15332TIP3    H167487   1.710   5.730   1.056  0.0225  0.7448 -0.3585
15332TIP3    H267488   1.617   5.635   0.983 -0.4047  0.6310  0.3353
15333TIP3   OH267489   1.598   5.688  16.699  0.3093 -0.6245 -0.4445
15333TIP3    H167490   1.589   5.593  16.705 -0.4461 -0.4396  1.5301
15333TIP3    H267491   1.661   5.711  16.767  3.9660 -0.1382 -3.8106
15334TIP3   OH267492   0.059   4.242   3.235  0.3450  0.1312 -0.8308
15334TIP3    H167493   0.030   4.253   3.326  2.0285 -0.8621 -0.1618
15334TIP3    H267494   0.072   4.331   3.203 -1.9537  0.5667 -0.6915
15335TIP3   OH267495   3.099   2.212   2.281 -0.3450 -0.0764  0.5805
15335TIP3    H167496   3.179   2.246   2.242 -0.1651 -0.4825  0.5882
15335TIP3    H267497   3.028   2.252   2.231 -0.1525  1.0266  1.1899
15336TIP3   OH267498   6.018   4.746   2.543  0.5236 -0.2298 -0.4786
15336TIP3    H167499   5.985   4.733   2.454 -1.3998  0.2279  0.1445
15336TIP3    H267500   5.941   4.731   2.599  2.1135 -2.3695  1.2294
15337TIP3   OH267501   4.282   1.163  14.759 -0.2288 -0.1903  0.3273
15337TIP3    H167502   4.195   1.172  14.798 -0.6853 -0.6780 -0.5633
15337TIP3    H267503   4.273   1.092  14.695  0.1417  1.5002 -1.6601
15338TIP3   OH267504   2.858   5.630   1.665  0.3442  0.1326 -0.4769
15338TIP3    H167505   2.850   5.554   1.723  1.1704 -1.5683 -2.5150
15338TIP3    H267506   2.771   5.639   1.626 -0.3784  1.6493  1.4456
15339TIP3   OH267507   5.954   1.454  14.867 -0.0422  0.4643 -0.4204
15339TIP3    H167508   5.960   1.454  14.963  2.4587  0.7657 -0.5434
15339TIP3    H267509   5.880   1.511  14.848  0.0344  1.1857  1.3331
15340TIP3   OH267510   5.467   0.409  15.570 -0.4726 -0.8523  0.0217
15340TIP3    H167511   5.449   0.353  15.645 -0.6577 -1.3337 -0.3813
15340TIP3    H267512   5.381   0.428  15.533 -0.4071 -0.3526  0.1211
15341TIP3   OH267513   2.442   1.656   0.325 -0.6120  0.3624 -0.0630
15341TIP3    H167514   2.409   1.574   0.288 -1.8339  0.2243  1.3005
15341TIP3    H267515   2.486   1.699   0.251  0.1807 -1.5681 -0.7690
15342TIP3   OH267516   0.234   1.080  12.179 -0.1707  0.1572 -0.3173
15342TIP3    H167517   0.143   1.057  12.199 -1.0101  2.9885 -0.6152
15342TIP3    H267518   0.284   1.001  12.201 -2.3707 -0.6161  2.3042
15343TIP3   OH267519   2.696   6.466   5.624  0.4589 -0.1744 -0.5654
15343TIP3    H167520   2.679   6.379   5.659 -0.5418  0.5925  0.9000
15343TIP3    H267521   2.791   6.472   5.617  0.6301 -0.6746  1.1906
15344TIP3   OH267522   1.488   4.704  12.112  0.2770 -0.3171  0.4840
15344TIP3    H167523   1.495   4.796  12.139 -0.4697 -0.0731 -0.1181
15344TIP3    H267524   1.577   4.680  12.087  0.1382  0.8727 -1.2980
15345TIP3   OH267525   5.132   2.854  11.475 -0.1961  0.8783 -0.0696
15345TIP3    H167526   5.157   2.780  11.531 -3.2040  1.1107  1.6843
15345TIP3    H267527   5.137   2.819  11.386 -0.2984 -1.0593  0.6600
15346TIP3   OH267528   6.221   1.285   5.091  0.2540  0.0543  0.4026
15346TIP3    H167529   6.246   1.278   5.183  1.7657 -1.8719 -0.1200
15346TIP3    H267530   6.303   1.303   5.045 -0.1449 -1.1185 -0.7853
15347TIP3   OH267531   1.671   3.866   3.588  0.2005 -0.2243  0.5763
15347TIP3    H167532   1.593   3.812   3.602  0.1676  0.0053  1.2744
15347TIP3    H267533   1.725   3.852   3.666  1.3385 -1.1842 -0.3630
15348TIP3   OH267534   3.194   6.774  13.044  0.3425 -0.0471 -0.1974
15348TIP3    H167535   3.227   6.838  13.107  0.0500  2.1028 -2.1282
15348TIP3    H267536   3.105   6.804  13.024 -0.3595 -1.9374 -0.0327
15349TIP3   OH267537   4.950   4.638  16.201 -0.3313 -0.0604 -0.4555
15349TIP3    H167538   5.027   4.693  16.216 -1.2668  1.2871 -0.4050
15349TIP3    H267539   4.977   4.577  16.133  1.4377 -1.0013  1.0523
15350TIP3   OH267540   2.298   1.157   4.932 -0.0627 -0.1697  0.1562
15350TIP3    H167541   2.372   1.197   4.979  0.3105  0.1725 -0.7066
15350TIP3    H267542   2.338   1.116   4.855 -0.4663 -2.0735  0.9254
15351TIP3   OH267543   1.708   4.567  11.480  0.1309 -0.4184 -0.0268
15351TIP3    H167544   1.755   4.554  11.398  0.5184  1.2973 -0.0956
15351TIP3    H267545   1.629   4.615  11.456 -0.4001 -1.0403  0.4397
15352TIP3   OH267546   1.131   0.632   2.108  0.2954  0.5595 -0.0416
15352TIP3    H167547   1.194   0.608   2.040 -0.5964 -1.3098 -0.2281
15352TIP3    H267548   1.057   0.668   2.060 -0.0551 -0.1263 -0.0128
15353TIP3   OH267549   6.043   2.416   0.721 -0.2715  0.1833  0.1015
15353TIP3    H167550   6.081   2.491   0.675 -2.7472  1.0535 -0.5896
15353TIP3    H267551   6.106   2.397   0.791  0.4736  2.8311  0.2143
15354TIP3   OH267552   2.158   3.338  15.641  0.4385 -0.4377  0.4738
15354TIP3    H167553   2.153   3.246  15.667  0.5845 -0.5806  0.0028
15354TIP3    H267554   2.199   3.336  15.554 -1.7037 -0.1065 -0.5846
15355TIP3   OH267555   6.435   5.173   4.348 -0.4511  0.1519 -0.1005
15355TIP3    H167556   6.345   5.147   4.330 -0.1048 -1.9837  1.1291
15355TIP3    H267557   6.445   5.160   4.443  0.5611  2.2455  0.0969
15356TIP3   OH267558   1.301   2.278   5.915 -0.2116  0.1463  0.3282
15356TIP3    H167559   1.248   2.249   5.842  0.3058  2.4276 -1.0160
15356TIP3    H267560   1.379   2.316   5.875 -0.1893  1.9968  1.9984
15357TIP3   OH267561   3.826   4.312   0.189  0.1756  0.0263 -0.0109
15357TIP3    H167562   3.743   4.320   0.141  0.5758 -0.1069 -0.7353
15357TIP3    H267563   3.870   4.396   0.173 -0.0542  0.3053  0.8176
15358TIP3   OH267564   4.933   2.104   3.794 -0.2317  0.8795  0.2922
15358TIP3    H167565   4.905   2.036   3.732 -1.0751  1.0880  0.4359
15358TIP3    H267566   4.851   2.138   3.830  0.1824  1.9733  0.2208
15359TIP3   OH267567   1.396   5.153   4.779  0.0738  0.7889 -0.5668
15359TIP3    H167568   1.429   5.064   4.793  0.0258  0.5943 -1.6202
15359TIP3    H267569   1.447   5.207   4.840  1.2656  0.2731 -1.0761
15360TIP3   OH267570   6.392   2.630  16.494  0.2343 -0.0732 -0.5613
15360TIP3    H167571   6.437   2.660  16.415  0.5489  0.3064 -0.2413
15360TIP3    H267572   6.384   2.535  16.482 -1.5171  0.2283 -1.9601
15361TIP3   OH267573   1.306   4.319   5.149  0.2054  0.0748  0.2390
15361TIP3    H167574   1.365   4.387   5.117  0.3039  0.2268  0.7483
15361TIP3    H267575   1.317   4.247   5.086  0.6216  0.2588  0.0962
15362TIP3   OH267576   3.442   0.073   2.031  0.6120 -0.0868 -0.3828
15362TIP3    H167577   3.462   0.017   1.955 -0.8065  0.8898 -1.5133
15362TIP3    H267578   3.366   0.031   2.071  0.8598 -0.1484  0.0209
15363TIP3   OH267579   1.803   5.392   4.018  0.3117 -0.3622 -0.2202
15363TIP3    H167580   1.715   5.368   3.990  0.3925 -1.4461  0.4215
15363TIP3    H267581   1.806   5.367   4.110  0.4251  2.0808  0.4653
15364TIP3   OH267582   0.873   5.935   4.414  0.6843 -0.2145 -0.0439
15364TIP3    H167583   0.951   5.954   4.362  0.5732  0.9346  0.2013
15364TIP3    H267584   0.803   5.923   4.350  1.0010 -1.0051 -0.2525
15365TIP3   OH267585   4.328   4.374  13.970 -0.0455  0.4020 -0.1833
15365TIP3    H167586   4.239   4.406  13.986  0.3081  1.3797 -0.1661
15365TIP3    H267587   4.384   4.429  14.024  0.6224  0.0934 -0.5547
15366TIP3   OH267588   4.291   4.186  11.085  0.4148  0.0155 -0.3348
15366TIP3    H167589   4.259   4.233  11.009  3.5918  0.9037 -1.1791
15366TIP3    H267590   4.313   4.098  11.052  1.2350  0.2151 -0.3357
15367TIP3   OH267591   0.314   2.810   2.737  0.1316 -0.5846 -0.0999
15367TIP3    H167592   0.406   2.819   2.762  0.1516  0.2667 -0.4698
15367TIP3    H267593   0.267   2.862   2.802  0.0077 -0.0964 -0.5771
15368TIP3   OH267594   0.825   4.444   2.738  0.0461  0.0724 -0.2104
15368TIP3    H167595   0.857   4.456   2.828  2.1422 -0.3071 -0.9017
15368TIP3    H267596   0.892   4.483   2.683 -0.9572 -0.2229 -1.6631
15369TIP3   OH267597   3.706   1.846   3.629  0.0530  0.0084  0.2889
15369TIP3    H167598   3.746   1.892   3.703  0.0566 -1.0762  0.9595
15369TIP3    H267599   3.720   1.905   3.555  0.1918  1.0259  1.1148
15370TIP3   OH267600   0.419   6.142   5.281 -0.3373  0.1678  0.1221
15370TIP3    H167601   0.460   6.075   5.336 -1.4166 -1.2440 -0.7239
15370TIP3    H267602   0.475   6.219   5.289  2.2688 -1.5920 -0.7715
15371TIP3   OH267603   2.496   1.962   5.845  0.0399 -0.6690 -0.5852
15371TIP3    H167604   2.510   1.926   5.933  0.5207  0.3325 -0.2418
15371TIP3    H267605   2.486   2.057   5.860  1.3707 -0.3349 -1.7359
15372TIP3   OH267606   3.923   5.192  12.777  0.2174 -0.0521  0.1391
15372TIP3    H167607   3.855   5.169  12.715 -0.4856  0.1620  0.8303
15372TIP3    H267608   3.877   5.226  12.853  1.0746 -0.2312  0.7528
15373TIP3   OH267609   4.482   6.212   4.568 -0.4499 -0.3357  0.3374
15373TIP3    H167610   4.398   6.224   4.612 -0.3121 -1.6774  0.9672
15373TIP3    H267611   4.534   6.160   4.628  0.6671  0.0590 -0.2724
15374TIP3   OH267612   2.994   2.592  12.855  0.0450 -0.9573  0.6634
15374TIP3    H167613   2.928   2.618  12.919 -1.3321 -1.3221 -0.5828
15374TIP3    H267614   3.072   2.573  12.908 -0.4396  0.7125  2.0412
15375TIP3   OH267615   5.769   2.198  17.168  0.1449 -0.0359  0.4081
15375TIP3    H167616   5.678   2.170  17.158  0.6390 -1.2377 -0.7555
15375TIP3    H267617   5.772   2.236  17.256 -1.2275 -0.9361  0.8619
15376TIP3   OH267618   1.487   2.470   3.142 -0.0419  0.0424  0.3990
15376TIP3    H167619   1.490   2.374   3.146  0.2154 -0.0087 -0.8261
15376TIP3    H267620   1.402   2.493   3.180 -1.0026 -0.8014 -1.1554
15377TIP3   OH267621   4.078   5.840  13.837  0.3089  0.2018 -0.0446
15377TIP3    H167622   4.166   5.861  13.867  0.2825 -0.7240  0.6991
15377TIP3    H267623   4.020   5.889  13.896  0.2206 -2.5964  2.2850
15378TIP3   OH267624   0.286   3.867  16.045  0.2052 -0.6246 -0.8786
15378TIP3    H167625   0.325   3.863  16.132  0.8115  1.5177 -1.0252
15378TIP3    H267626   0.312   3.785  16.003 -0.5680 -1.9307  1.1391
15379TIP3   OH267627   6.276   1.207  12.689 -0.0766 -0.4098 -0.3113
15379TIP3    H167628   6.335   1.160  12.630 -0.0491 -0.6148 -0.1201
15379TIP3    H267629   6.259   1.145  12.760  1.1423  0.3714  0.7061
15380TIP3   OH267630   5.677   2.316   2.517 -0.1748  0.2331 -0.6175
15380TIP3    H167631   5.635   2.237   2.482  0.1811 -0.8179  1.2267
15380TIP3    H267632   5.716   2.358   2.441 -0.3492 -1.4112 -1.6489
15381TIP3   OH267633   0.960   3.650  15.693  0.0037 -0.6567  0.2062
15381TIP3    H167634   0.933   3.649  15.602 -1.1265 -0.1980  0.5309
15381TIP3    H267635   0.883   3.681  15.741  1.1414  0.7775  1.1321
15382TIP3   OH267636   0.861   1.259   3.071  0.0956 -0.4784  0.3551
15382TIP3    H167637   0.793   1.273   3.005  0.7246 -1.3568 -0.5175
15382TIP3    H267638   0.941   1.294   3.030  0.3879 -0.5528  0.8623
15383TIP3   OH267639   5.627   5.018  12.601  0.0131  0.2441  0.1676
15383TIP3    H167640   5.647   5.108  12.626 -0.6887  0.3077  0.5143
15383TIP3    H267641   5.607   5.023  12.508 -1.3622  0.6776  0.4745
15384TIP3   OH267642   2.344   4.851  14.774 -0.0140  0.3828  0.0778
15384TIP3    H167643   2.389   4.770  14.799  0.7574  0.9821  0.6782
15384TIP3    H267644   2.385   4.877  14.692  2.9826  2.5776  2.1551
15385TIP3   OH267645   2.440   5.281   1.671 -0.1650  0.5136  0.0626
15385TIP3    H167646   2.370   5.297   1.735 -0.3125  1.6845 -0.3743
15385TIP3    H267647   2.505   5.230   1.718 -1.6973 -1.3438  0.2438
15386TIP3   OH267648   6.418   4.525  16.084 -0.4564 -0.3180  0.0388
15386TIP3    H167649   6.359   4.520  16.009 -1.7483  0.5650  0.9815
15386TIP3    H267650   6.493   4.575  16.052 -0.5657 -0.7741 -0.9405
15387TIP3   OH267651   6.699   4.643   1.175 -0.8449 -0.6695  0.2900
15387TIP3    H167652   6.694   4.569   1.236 -0.7677 -0.2394  0.8292
15387TIP3    H267653   6.684   4.720   1.230 -0.8822 -0.2798 -0.2590
15388TIP3   OH267654   5.777   2.756   0.580 -0.2818 -0.6874 -0.7411
15388TIP3    H167655   5.816   2.838   0.549 -0.2822 -0.2176  0.4743
15388TIP3    H267656   5.831   2.688   0.542  2.4658 -0.0320  1.8612
15389TIP3   OH267657   5.463   4.322   5.844 -0.2386 -0.3671  0.1524
15389TIP3    H167658   5.448   4.316   5.939 -2.6041  2.1123  0.0092
15389TIP3    H267659   5.529   4.391   5.835  0.7501 -1.3219  0.0351
15390TIP3   OH267660   6.293   2.967   2.784  0.3328  0.1725  0.2146
15390TIP3    H167661   6.237   2.907   2.734  0.7988 -0.6038  0.6214
15390TIP3    H267662   6.375   2.968   2.736  0.6375 -0.2380  0.7278
15391TIP3   OH267663   6.272   1.618  13.733  0.2557 -0.2140  0.0192
15391TIP3    H167664   6.338   1.618  13.802  1.0392  0.6791 -0.7159
15391TIP3    H267665   6.236   1.707  13.734  1.4356  0.3077 -1.7994
15392TIP3   OH267666   2.298   6.231  15.255 -0.2025  0.2836  0.2039
15392TIP3    H167667   2.316   6.315  15.298 -0.6058  0.2359  0.4738
15392TIP3    H267668   2.383   6.200  15.225 -0.1530  1.1417 -0.5424
15393TIP3   OH267669   3.332   1.636  11.125 -0.3975 -0.5421 -0.4101
15393TIP3    H167670   3.313   1.563  11.065  1.1307 -2.8218  1.7550
15393TIP3    H267671   3.270   1.624  11.198 -1.4303  1.4903 -0.9171
15394TIP3   OH267672   3.721   4.690  10.376 -0.1084 -0.0464  0.4099
15394TIP3    H167673   3.676   4.649  10.302  0.7319 -0.9556  0.3933
15394TIP3    H267674   3.698   4.634  10.451  0.0405  0.1677  0.6172
15395TIP3   OH267675   1.896   5.724  12.558 -0.4357 -0.1364  0.8254
15395TIP3    H167676   1.958   5.655  12.536 -0.3096  0.3582 -0.3899
15395TIP3    H267677   1.887   5.718  12.654  0.2328 -1.2571  0.8314
15396TIP3   OH267678   3.048   6.280   4.835 -0.4737 -0.2205  0.0849
15396TIP3    H167679   3.001   6.350   4.881  2.2350  1.5959  0.2426
15396TIP3    H267680   3.037   6.203   4.891 -0.4329  1.0155  1.8381
15397TIP3   OH267681   6.789   2.679   4.723  0.0073  0.3116 -0.1727
15397TIP3    H167682   6.796   2.742   4.651 -1.3842  0.7283  0.0396
15397TIP3    H267683   6.727   2.613   4.691  0.1964 -0.0593  0.2339
15398TIP3   OH267684   3.578   1.991   4.640 -0.5560  0.3053 -0.5513
15398TIP3    H167685   3.522   1.940   4.581  0.9719 -0.0195 -1.7444
15398TIP3    H267686   3.530   2.072   4.653 -2.8860 -1.2945  1.1421
15399TIP3   OH267687   6.252   0.278  11.586  0.4230  0.1292 -0.1895
15399TIP3    H167688   6.317   0.209  11.571  1.3365  1.2229 -1.3468
15399TIP3    H267689   6.275   0.347  11.524 -1.3300  0.9039 -0.0230
15400TIP3   OH267690   4.575   1.765   4.755 -0.0885  0.1484  0.3894
15400TIP3    H167691   4.505   1.784   4.694 -1.3471 -0.1041  1.7275
15400TIP3    H267692   4.654   1.762   4.701 -1.3509 -1.4622 -1.4308
15401TIP3   OH267693   4.088   6.327  16.436 -0.8436  0.5784 -0.8526
15401TIP3    H167694   4.065   6.235  16.445 -1.1483  0.6800 -0.6258
15401TIP3    H267695   4.004   6.373  16.431 -0.7037  0.9814  0.3485
15402TIP3   OH267696   2.225   4.139  17.067 -0.3251 -0.2381  0.1851
15402TIP3    H167697   2.261   4.149  17.155 -0.9728  2.7740  0.1707
15402TIP3    H267698   2.139   4.099  17.081 -0.2844 -0.0898  0.8994
15403TIP3   OH267699   5.172   3.626   1.162 -0.1678  0.8388  0.0176
15403TIP3    H167700   5.151   3.656   1.074  1.0384  0.2664 -0.4879
15403TIP3    H267701   5.266   3.643   1.171 -0.8462  3.7370  2.3409
15404TIP3   OH267702   5.162   5.715   4.777 -1.1531 -0.2320  0.1420
15404TIP3    H167703   5.094   5.700   4.712 -0.7625  1.3729 -0.6792
15404TIP3    H267704   5.149   5.806   4.805 -0.4544 -0.4679  1.2835
15405TIP3   OH267705   3.758   2.844  11.666  0.1872 -0.2104 -0.1743
15405TIP3    H167706   3.844   2.868  11.699 -0.5573  2.3575 -0.0177
15405TIP3    H267707   3.697   2.869  11.735 -0.9786  1.1414 -1.6638
15406TIP3   OH267708   0.209   3.782  14.532 -0.6400  0.4120  0.5166
15406TIP3    H167709   0.267   3.813  14.602  0.6712  0.3636 -0.5316
15406TIP3    H267710   0.249   3.814  14.451  0.9903 -4.2381 -0.6815
15407TIP3   OH267711   0.165   2.398   6.183  0.5176 -0.3351  0.3480
15407TIP3    H167712   0.102   2.377   6.252  1.3506 -0.4793  1.0731
15407TIP3    H267713   0.234   2.332   6.193  1.1746  0.3057  0.0699
15408TIP3   OH267714   2.359   6.793  10.898 -0.0679 -0.6225 -0.3166
15408TIP3    H167715   2.361   6.780  10.803  1.1184 -1.4590 -0.1875
15408TIP3    H267716   2.451   6.789  10.924 -0.2712  1.0492  0.6819
15409TIP3   OH267717   6.283   1.715  14.217 -0.7579 -0.2740  0.3576
15409TIP3    H167718   6.370   1.674  14.216 -0.4529  0.3139  1.7151
15409TIP3    H267719   6.287   1.778  14.289 -2.6786 -1.0585  1.1990
15410TIP3   OH267720   0.411   4.981  14.266 -0.3280 -0.2138  0.1838
15410TIP3    H167721   0.352   4.906  14.279 -0.8728  0.4762  1.7896
15410TIP3    H267722   0.353   5.056  14.259  0.2576  0.1700 -0.5550
15411TIP3   OH267723   5.870   3.577  14.542 -0.0704 -0.3592  0.1941
15411TIP3    H167724   5.895   3.649  14.600  1.1883 -0.9167  0.3515
15411TIP3    H267725   5.814   3.521  14.597 -2.2342  1.2097 -0.3465
15412TIP3   OH267726   6.245   4.859  15.287  0.3031  0.3594  0.2343
15412TIP3    H167727   6.197   4.941  15.278 -0.8313 -0.2972  0.2281
15412TIP3    H267728   6.299   4.872  15.365 -1.5794  0.2966  1.6022
15413TIP3   OH267729   0.154   5.516  15.042  0.1835 -0.2925 -0.0316
15413TIP3    H167730   0.167   5.434  15.089 -2.0301 -1.3324 -1.1582
15413TIP3    H267731   0.097   5.494  14.969 -0.3933  2.2319 -0.4115
15414TIP3   OH267732   1.800   0.918   1.300  0.5219  0.1410 -0.2048
15414TIP3    H167733   1.786   1.010   1.322 -0.3832  0.2552 -1.2216
15414TIP3    H267734   1.895   0.909   1.293  0.6660  0.7666  0.8273
15415TIP3   OH267735   2.471   5.502  12.034  0.3028 -0.4702 -0.1206
15415TIP3    H167736   2.516   5.567  12.089  0.7228 -0.8315 -0.0382
15415TIP3    H267737   2.452   5.430  12.094  0.1145 -0.5563 -0.2868
15416TIP3   OH267738   5.636   6.003  11.286 -0.1897  0.0672  0.4083
15416TIP3    H167739   5.553   6.050  11.278  0.0431  0.5969  1.1075
15416TIP3    H267740   5.691   6.041  11.218 -0.0579  0.6950  0.8591
15417TIP3   OH267741   3.095   1.929  16.989  0.1007  0.0968 -0.0046
15417TIP3    H167742   3.039   1.991  16.942  0.6698  0.7662  0.1915
15417TIP3    H267743   3.035   1.868  17.030 -0.4275 -0.2229 -1.2189
15418TIP3   OH267744   5.664   4.586  13.952 -0.6130 -0.2116  0.1989
15418TIP3    H167745   5.597   4.617  13.891 -0.1615  0.2006 -0.0843
15418TIP3    H267746   5.696   4.504  13.913 -0.4597 -0.0479 -0.0185
15419TIP3   OH267747   3.113   3.212   2.673  0.2546  0.4940 -0.4370
15419TIP3    H167748   3.107   3.131   2.623  2.0906 -0.2668  0.5390
15419TIP3    H267749   3.023   3.230   2.701 -0.0886 -1.4916 -0.2165
15420TIP3   OH267750   3.645   0.927  13.925  0.2209 -0.3481  0.3828
15420TIP3    H167751   3.716   0.866  13.904 -1.2456 -1.3786 -1.8426
15420TIP3    H267752   3.578   0.909  13.858 -1.3101  1.9440  1.2507
15421TIP3   OH267753   1.894   0.581   3.733  0.2375 -0.0812 -0.1582
15421TIP3    H167754   1.975   0.530   3.727  0.2836 -0.1191  0.6987
15421TIP3    H267755   1.859   0.560   3.820 -0.2196  0.6316 -0.1664
15422TIP3   OH267756   4.351   0.045   6.525  0.1296 -0.7443  0.2438
15422TIP3    H167757   4.435   0.081   6.553 -0.0572 -0.5798  0.5980
15422TIP3    H267758   4.374  -0.039   6.485  0.7206  0.4337 -1.9674
15423TIP3   OH267759   1.017   4.021  15.853 -0.1633  0.4789 -0.2867
15423TIP3    H167760   1.048   4.083  15.787  0.5409 -1.4523 -1.8238
15423TIP3    H267761   0.937   4.061  15.888  0.7670  2.6525 -0.5909
15424TIP3   OH267762   5.810   0.373  13.047 -0.3700 -0.1191  0.3253
15424TIP3    H167763   5.715   0.368  13.038 -0.4398 -1.0183  1.3663
15424TIP3    H267764   5.841   0.289  13.013 -0.0402 -0.2729  1.0041
15425TIP3   OH267765   4.556   3.421  13.199 -0.2616 -0.4900  0.1011
15425TIP3    H167766   4.608   3.473  13.260  1.3486  0.6445 -2.1469
15425TIP3    H267767   4.564   3.331  13.231  3.0376 -0.3323 -0.0966
15426TIP3   OH267768   0.135   0.866   1.198  0.6588 -0.2415  0.7073
15426TIP3    H167769   0.163   0.922   1.270  0.1054 -0.2530  0.9393
15426TIP3    H267770   0.137   0.777   1.235  1.9997 -0.4367  0.1979
15427TIP3   OH267771   6.123   2.200   6.408  0.1421 -0.3015 -0.3465
15427TIP3    H167772   6.120   2.218   6.502  3.0032  0.5606 -0.3677
15427TIP3    H267773   6.161   2.279   6.370  2.0809 -1.9195 -1.8486
15428TIP3   OH267774   4.192   4.495  16.592 -0.0339  0.0761  0.1985
15428TIP3    H167775   4.177   4.578  16.546  1.3274 -0.0284 -0.4427
15428TIP3    H267776   4.216   4.433  16.523  0.3405 -0.4999  0.8422
15429TIP3   OH267777   2.943   6.292   3.570 -0.3028  0.2985  0.2721
15429TIP3    H167778   2.994   6.211   3.568 -0.0701  0.4542 -0.1976
15429TIP3    H267779   2.913   6.304   3.480 -1.4402  0.0450  0.6050
15430TIP3   OH267780   1.839   0.990  15.918  0.0108 -0.2094 -0.0739
15430TIP3    H167781   1.844   1.085  15.906 -0.7879 -0.0767  0.6416
15430TIP3    H267782   1.804   0.957  15.835 -0.1699  0.1622 -0.1461
15431TIP3   OH267783   6.379   6.579  14.627 -0.0185  0.6513 -0.9649
15431TIP3    H167784   6.363   6.509  14.690 -0.2663 -0.0632 -1.8133
15431TIP3    H267785   6.468   6.563  14.594  0.6265  1.7971  0.1690
15432TIP3   OH267786   0.233   5.989  13.051  0.0355 -0.1772  0.0960
15432TIP3    H167787   0.312   5.954  13.093 -0.4178 -0.6373  0.5753
15432TIP3    H267788   0.199   6.053  13.114  0.6069  0.7968 -0.5757
15433TIP3   OH267789   4.878   2.870   0.374 -0.6203  0.3386 -0.0453
15433TIP3    H167790   4.839   2.804   0.317 -0.0583  0.7561 -0.9332
15433TIP3    H267791   4.910   2.821   0.449 -2.6514 -0.0253  0.5879
15434TIP3   OH267792   0.049   2.339   5.129  0.1078  1.0072  0.3706
15434TIP3    H167793  -0.022   2.382   5.081  0.3561 -0.9345 -1.7960
15434TIP3    H267794   0.128   2.385   5.101  0.0404  1.1404  0.3995
15435TIP3   OH267795   5.479   0.217   1.907 -0.3172 -0.1329  0.1542
15435TIP3    H167796   5.555   0.168   1.939 -0.4516  0.0050  0.6835
15435TIP3    H267797   5.453   0.272   1.981 -1.1666 -0.4493  0.0899
15436TIP3   OH267798   0.074   4.524   3.188 -0.3599 -0.0948 -0.9094
15436TIP3    H167799   0.020   4.551   3.262  2.4101  0.8632  0.8209
15436TIP3    H267800   0.055   4.589   3.120  1.5587  2.6224  1.0672
15437TIP3   OH267801   2.790   3.133   1.135 -0.0007  0.3841  0.3938
15437TIP3    H167802   2.699   3.157   1.117 -0.8625 -4.4248 -2.6603
15437TIP3    H267803   2.789   3.098   1.224 -1.6199 -1.3778 -0.2752
15438TIP3   OH267804   5.451   6.129   0.360 -0.8941 -0.0003  0.4494
15438TIP3    H167805   5.370   6.079   0.361  1.0422 -3.2344  0.4540
15438TIP3    H267806   5.467   6.147   0.268 -1.5573  0.6572  0.4482
15439TIP3   OH267807   0.801   4.176   2.146  0.0646  0.1108 -0.0346
15439TIP3    H167808   0.815   4.244   2.080 -1.0315  0.6141  0.2402
15439TIP3    H267809   0.873   4.115   2.133  1.7887  1.9582  0.5104
15440TIP3   OH267810   6.820   5.278   3.497  0.0447 -0.0549 -0.1333
15440TIP3    H167811   6.819   5.363   3.453  0.7035  0.5922  1.0759
15440TIP3    H267812   6.753   5.286   3.565 -1.0956 -1.1119 -1.1072
15441TIP3   OH267813   5.617   1.073  15.191 -0.0796 -0.8565 -0.1236
15441TIP3    H167814   5.651   1.160  15.209  0.4811 -0.7559 -1.5405
15441TIP3    H267815   5.670   1.042  15.117 -1.1753 -1.8491 -0.5134
15442TIP3   OH267816   1.657   1.492  13.441  0.1619 -0.2645  0.0806
15442TIP3    H167817   1.642   1.428  13.511  0.6890 -1.8711 -1.2537
15442TIP3    H267818   1.588   1.473  13.377  0.4274  0.3921 -0.3990
15443TIP3   OH267819   2.290   2.738  16.202 -0.0426  0.0781  0.3218
15443TIP3    H167820   2.333   2.728  16.287 -2.1008 -0.9815  1.2671
15443TIP3    H267821   2.297   2.652  16.161  1.4340  0.7321 -0.8468
15444TIP3   OH267822   2.675   2.713   5.553 -0.3705 -0.7969 -0.2852
15444TIP3    H167823   2.681   2.758   5.637  1.7243 -0.3550 -0.6583
15444TIP3    H267824   2.627   2.632   5.573 -1.2032  0.0006  1.0216
15445TIP3   OH267825   1.609   0.348   2.307 -0.2368 -0.2375 -0.2442
15445TIP3    H167826   1.586   0.368   2.398 -1.1729  0.1000 -0.5441
15445TIP3    H267827   1.532   0.302   2.273 -0.0327 -0.0479 -0.9664
15446TIP3   OH267828   4.181   4.860   6.389 -0.0665 -0.0422 -0.2439
15446TIP3    H167829   4.160   4.919   6.461  1.2553 -1.9767  1.8152
15446TIP3    H267830   4.107   4.869   6.328 -2.0708  0.4407  2.1473
15447TIP3   OH267831   5.832   2.776   5.790  0.4090  0.5032 -0.0342
15447TIP3    H167832   5.776   2.850   5.766 -0.4931  0.3038  1.4042
15447TIP3    H267833   5.887   2.762   5.713 -1.1930  1.0048 -1.3053
15448TIP3   OH267834   4.764   1.509   1.883 -0.6575 -0.3470  0.1013
15448TIP3    H167835   4.824   1.439   1.859 -0.8504  0.2728 -2.3249
15448TIP3    H267836   4.820   1.583   1.904 -0.4808 -0.9315  1.7224
15449TIP3   OH267837   5.920   6.375   5.461 -0.0416 -0.1479  0.0597
15449TIP3    H167838   5.932   6.294   5.511  0.0584 -1.3730 -1.9001
15449TIP3    H267839   5.828   6.397   5.473 -0.6097 -1.7359 -1.0593
15450TIP3   OH267840   3.351   0.333  14.445 -0.5108 -0.1861 -0.1400
15450TIP3    H167841   3.423   0.378  14.490 -1.7453  1.0568  0.5929
15450TIP3    H267842   3.329   0.390  14.371 -1.4381 -0.0726  0.2289
15451TIP3   OH267843   1.970   2.692  13.263 -0.3156  0.1438  0.0135
15451TIP3    H167844   1.902   2.740  13.311  1.7164  1.1641  1.9421
15451TIP3    H267845   1.986   2.746  13.185 -0.0857  1.0994  0.7163
15452TIP3   OH267846   6.193   4.306  10.903  0.0465 -0.1954  0.3119
15452TIP3    H167847   6.278   4.320  10.944 -0.1895  1.4550  0.2702
15452TIP3    H267848   6.191   4.368  10.830 -1.4208  0.1955  0.6616
15453TIP3   OH267849   2.648   4.871  15.674 -0.3611 -0.4949  0.1641
15453TIP3    H167850   2.692   4.791  15.700 -0.1257 -0.7561 -1.0336
15453TIP3    H267851   2.718   4.935  15.661 -0.5250 -0.1766  0.8025
15454TIP3   OH267852   4.201   0.208   0.267  0.1864  0.6138 -0.0327
15454TIP3    H167853   4.215   0.290   0.221 -1.4768  0.8125 -0.2409
15454TIP3    H267854   4.156   0.152   0.203  0.5778 -0.1682  0.3678
15455TIP3   OH267855   2.555   2.380   5.543  0.0732  0.5951 -0.0631
15455TIP3    H167856   2.499   2.306   5.564 -0.8241  1.6042  1.1581
15455TIP3    H267857   2.581   2.416   5.628  0.4722  1.7092 -0.6437
15456TIP3   OH267858   5.846   0.812  13.210 -0.3538 -0.0068 -0.5372
15456TIP3    H167859   5.781   0.812  13.140  2.0723 -0.0372 -2.8695
15456TIP3    H267860   5.883   0.723  13.209 -0.7081 -0.1896  1.1936
15457TIP3   OH267861   3.889   4.847   0.669  0.0048  0.3149 -0.1628
15457TIP3    H167862   3.923   4.766   0.706  1.7787  0.7462 -0.7990
15457TIP3    H267863   3.965   4.888   0.627 -0.8157  2.3964  0.3231
15458TIP3   OH267864   0.720   1.074   4.809  0.3847 -0.4070  0.3322
15458TIP3    H167865   0.778   1.149   4.800  0.9034 -0.7704  0.6263
15458TIP3    H267866   0.698   1.071   4.902  0.0630 -0.3932  0.2577
15459TIP3   OH267867   3.727   0.442   5.096 -0.2947  0.2121  0.1428
15459TIP3    H167868   3.662   0.459   5.165 -1.2931 -0.3088 -0.6563
15459TIP3    H267869   3.778   0.523   5.092 -0.7979  0.5791  0.8912
15460TIP3   OH267870   2.895   5.405   0.058  0.5750 -0.1027 -0.0641
15460TIP3    H167871   2.860   5.450  -0.019 -0.5811  0.3552  0.7028
15460TIP3    H267872   2.901   5.474   0.125  0.2687 -0.7652  0.6526
15461TIP3   OH267873   4.016   1.005  16.748  0.3782 -0.7736  0.2478
15461TIP3    H167874   4.073   1.029  16.821  2.2335  0.7248 -1.6299
15461TIP3    H267875   4.075   0.964  16.684 -0.6908  0.4791 -1.5862
15462TIP3   OH267876   5.300   5.561  13.173 -0.1508 -0.0395 -0.2532
15462TIP3    H167877   5.336   5.480  13.136 -1.3607 -0.8614  0.3336
15462TIP3    H267878   5.211   5.564  13.140 -0.6071  0.2454  1.0005
15463TIP3   OH267879   3.125   0.663   3.342  0.0836 -0.2784  0.8459
15463TIP3    H167880   3.193   0.729   3.338 -0.9566  0.8177  0.8327
15463TIP3    H267881   3.090   0.658   3.253 -0.0651 -0.6021  0.9201
15464TIP3   OH267882   5.807   0.111   2.794 -0.4910  0.0776 -0.5137
15464TIP3    H167883   5.899   0.122   2.771 -0.6801  0.8529 -0.9275
15464TIP3    H267884   5.808   0.059   2.874  0.4028  1.7226  0.5661
15465TIP3   OH267885   0.012   5.679   5.473 -0.2648  0.6899  0.3500
15465TIP3    H167886   0.057   5.763   5.477 -0.1329  0.5846  1.3735
15465TIP3    H267887  -0.010   5.667   5.381  0.9298  1.1996 -0.0033
15466TIP3   OH267888   6.229   1.332   3.599 -0.9942  0.4038 -0.0978
15466TIP3    H167889   6.267   1.265   3.541  0.1697  2.4044 -1.7388
15466TIP3    H267890   6.156   1.369   3.549 -1.2064  0.8231  0.5149
15467TIP3   OH267891   5.697   1.029   1.120 -0.7403 -0.1626 -0.5357
15467TIP3    H167892   5.675   0.967   1.050 -0.4234 -0.4204 -0.4114
15467TIP3    H267893   5.627   1.018   1.184 -0.5071 -0.6510 -0.3533
15468TIP3   OH267894   0.172   5.470   5.643 -0.2137  0.1328  0.1813
15468TIP3    H167895   0.132   5.548   5.606 -0.3164  0.7155  1.4873
15468TIP3    H267896   0.143   5.398   5.587 -1.1741  0.8604 -0.2628
15469TIP3   OH267897   4.880   1.674  10.946 -0.2799  0.1417 -0.6227
15469TIP3    H167898   4.925   1.596  10.976 -0.1643  0.2250 -0.5798
15469TIP3    H267899   4.936   1.709  10.876  0.0760  0.6326 -0.0973
15470TIP3   OH267900   1.732   0.072   6.089  0.0272  0.3512  0.5443
15470TIP3    H167901   1.789   0.058   6.164  0.7700  2.3015  0.3987
15470TIP3    H267902   1.644   0.077   6.125 -0.1130 -2.7938  0.7608
15471TIP3   OH267903   4.640   6.060   2.461 -0.2663 -0.0090 -0.3311
15471TIP3    H167904   4.549   6.088   2.447 -0.9815 -1.4513  1.1373
15471TIP3    H267905   4.668   6.109   2.538 -0.2069 -0.3916 -0.1043
15472TIP3   OH267906   1.968   4.757   6.488  0.5583  0.1872 -0.0129
15472TIP3    H167907   1.873   4.747   6.490  0.6483 -0.7221 -0.0924
15472TIP3    H267908   1.999   4.686   6.431  1.1078  1.9551 -1.9899
15473TIP3   OH267909   1.133   3.079   0.820 -0.0163 -0.0065  0.1087
15473TIP3    H167910   1.046   3.118   0.831  0.1470  0.0901  1.0732
15473TIP3    H267911   1.117   2.985   0.823 -0.0882  0.0100  0.2362
15474TIP3   OH267912   5.864   4.745   5.129 -0.3439  0.0536 -0.0813
15474TIP3    H167913   5.915   4.731   5.209 -1.2802  1.1439  0.7132
15474TIP3    H267914   5.795   4.679   5.133  0.2811 -0.6392 -0.5660
15475TIP3   OH267915   6.115   0.593  17.071 -0.3326 -0.1728 -0.6343
15475TIP3    H167916   6.181   0.662  17.073 -0.2408 -0.2351 -1.4369
15475TIP3    H267917   6.045   0.626  17.127 -0.4114  0.7004 -1.2348
15476TIP3   OH267918   0.036   5.538   3.996 -0.0213  0.0815  0.0691
15476TIP3    H167919   0.097   5.482   3.947 -1.3244 -1.0254 -0.3098
15476TIP3    H267920  -0.045   5.487   4.000 -0.1009  0.3310  2.9895
15477TIP3   OH267921   0.115   6.163   4.348  0.7659 -0.2074  0.9574
15477TIP3    H167922   0.038   6.208   4.314  2.1124 -1.2585 -3.7624
15477TIP3    H267923   0.167   6.232   4.389 -0.7425  1.1907  0.5673
15478TIP3   OH267924   1.504   6.512   0.207  0.8014 -0.6017 -0.7309
15478TIP3    H167925   1.502   6.573   0.280  1.7879  0.5948 -1.6807
15478TIP3    H267926   1.597   6.498   0.190  0.5831 -1.5293 -1.2094
15479TIP3   OH267927   3.321   6.628  15.188  0.1293 -0.1950 -0.5751
15479TIP3    H167928   3.293   6.720  15.188  0.5395 -0.0234 -3.2212
15479TIP3    H267929   3.394   6.625  15.250 -1.6095  0.6797  1.5753
15480TIP3   OH267930   0.776   3.976   3.073 -0.5575 -0.0184 -0.0561
15480TIP3    H167931   0.781   3.883   3.049 -0.7205 -0.0157 -0.0989
15480TIP3    H267932   0.687   4.002   3.050 -0.3382  0.2895 -0.5626
15481TIP3   OH267933   5.550   5.164  15.016 -0.0408  0.3649 -0.5497
15481TIP3    H167934   5.582   5.087  14.969 -0.7674 -1.1056  1.3219
15481TIP3    H267935   5.456   5.151  15.023 -0.0710  1.0704  0.4306
15482TIP3   OH267936   4.366   3.437   2.858 -0.2080  0.1266  0.0804
15482TIP3    H167937   4.453   3.422   2.820 -0.1095 -0.3651  0.4944
15482TIP3    H267938   4.306   3.429   2.784  0.2655  2.4760 -0.5974
15483TIP3   OH267939   1.980   2.800  10.854  0.2090  0.5664 -0.4336
15483TIP3    H167940   2.029   2.882  10.856  0.3012  0.5019  2.8373
15483TIP3    H267941   2.047   2.732  10.854  0.2405  0.4951  2.8085
15484TIP3   OH267942   0.480   2.495  13.952  0.2454  0.1011 -0.1865
15484TIP3    H167943   0.385   2.481  13.959 -0.0115  1.0770 -1.4881
15484TIP3    H267944   0.518   2.412  13.980 -1.0323 -0.6659 -0.6571
15485TIP3   OH267945   0.877   5.081  16.021 -0.2457 -0.0179  0.4218
15485TIP3    H167946   0.860   5.035  16.104 -0.2087  0.9233  0.9570
15485TIP3    H267947   0.957   5.130  16.038 -0.7949  0.9697  0.1540
15486TIP3   OH267948   3.478   1.564  16.558 -0.2668  0.0748 -0.4249
15486TIP3    H167949   3.485   1.612  16.640  0.1911 -0.1710 -0.3159
15486TIP3    H267950   3.387   1.575  16.531 -0.7136 -0.7821  0.6965
15487TIP3   OH267951   1.156   0.172  12.810  0.3122 -0.2175  0.3860
15487TIP3    H167952   1.087   0.149  12.873  0.4925 -0.6819  0.4156
15487TIP3    H267953   1.204   0.243  12.852 -0.1879  0.1531  0.3389
15488TIP3   OH267954   0.265   3.129   3.756  0.1710 -0.3940 -0.4911
15488TIP3    H167955   0.222   3.046   3.777  0.1824 -0.4318 -0.6198
15488TIP3    H267956   0.359   3.110   3.766  0.1325 -0.1018  0.5775
15489TIP3   OH267957   5.403   1.266  11.479  0.4611  0.1106  0.0345
15489TIP3    H167958   5.406   1.201  11.408  2.0506  0.5633 -0.3208
15489TIP3    H267959   5.363   1.343  11.439 -0.9451 -0.4642  0.3154
15490TIP3   OH267960   2.257   3.550   1.161  0.5034 -0.0684  0.1627
15490TIP3    H167961   2.243   3.486   1.091  0.1541 -0.3847  0.5195
15490TIP3    H267962   2.174   3.551   1.209  0.3395  0.9922 -0.1170
15491TIP3   OH267963   1.368   2.125   3.954  0.0431  0.1444  0.4972
15491TIP3    H167964   1.386   2.165   4.039 -1.0857 -0.8720  1.2267
15491TIP3    H267965   1.279   2.150   3.933  0.8630  1.7428 -1.1789
15492TIP3   OH267966   3.223   4.377  16.985 -0.0576  0.2708 -0.5500
15492TIP3    H167967   3.258   4.444  16.925  0.1533  1.0587  0.4488
15492TIP3    H267968   3.163   4.425  17.042  0.6186 -0.2664  0.6264
15493TIP3   OH267969   3.405   3.537   2.335  0.2440 -0.9161 -0.0937
15493TIP3    H167970   3.446   3.467   2.284  2.2255 -0.1340  0.3542
15493TIP3    H267971   3.470   3.558   2.403 -1.4746 -0.5129  1.4535
15494TIP3   OH267972   2.707   2.298   1.079 -0.0617  0.1137 -0.1424
15494TIP3    H167973   2.756   2.228   1.035 -0.3280 -0.0650 -0.1529
15494TIP3    H267974   2.674   2.257   1.159 -1.0251 -0.0404 -0.6105
15495TIP3   OH267975   0.952   3.446   2.974 -0.3270  0.2783 -0.5536
15495TIP3    H167976   0.941   3.355   2.947  0.5646 -0.0641  0.2178
15495TIP3    H267977   1.020   3.443   3.040  0.4573  1.6477 -1.2771
15496TIP3   OH267978   2.579   4.401   5.543 -0.5619  0.6824 -0.2943
15496TIP3    H167979   2.516   4.360   5.603  0.2372  0.8765  0.6999
15496TIP3    H267980   2.529   4.416   5.463 -1.0282 -1.6734 -0.4884
15497TIP3   OH267981   3.215   6.719  13.780  0.4389 -0.1663  0.5800
15497TIP3    H167982   3.130   6.684  13.806 -0.6395  2.4747  0.8146
15497TIP3    H267983   3.269   6.711  13.859  0.0460 -0.7541  0.7945
15498TIP3   OH267984   0.091   3.520   1.015  0.1939 -0.2143  0.3086
15498TIP3    H167985   0.139   3.449   0.973 -0.5650 -0.1031 -0.7741
15498TIP3    H267986   0.159   3.579   1.048  0.8552  1.0903 -3.1579
15499TIP3   OH267987   1.321   2.836   2.379 -0.2469  0.5180  0.0226
15499TIP3    H167988   1.392   2.805   2.435 -0.4876 -0.3314 -0.1367
15499TIP3    H267989   1.340   2.797   2.294 -1.0567  0.0689  0.0495
15500TIP3   OH267990   2.214   1.887  15.989  0.3522  0.3600  0.1335
15500TIP3    H167991   2.308   1.901  15.981  0.4885 -0.8731 -0.6518
15500TIP3    H267992   2.175   1.948  15.926  0.6426  0.7976  0.3854
15501TIP3   OH267993   6.570   6.098   3.630 -0.1303  0.2223 -0.2784
15501TIP3    H167994   6.657   6.064   3.650 -0.5304  0.3609  1.7922
15501TIP3    H267995   6.544   6.052   3.550  1.0066 -1.3414  0.2268
15502TIP3   OH267996   6.405   1.459  17.272  0.6187  0.0247 -0.3250
15502TIP3    H167997   6.433   1.368  17.277  0.5783  0.0951  1.3846
15502TIP3    H267998   6.310   1.455  17.269  0.6361 -0.0072 -0.9246
15503TIP3   OH267999   4.023   6.188   3.152 -0.4949  0.0720 -0.0247
15503TIP3    H168000   3.981   6.239   3.222  1.1997  0.1862  0.9436
15503TIP3    H268001   3.964   6.197   3.077 -1.1263  1.9582  0.6727
15504TIP3   OH268002   2.127   5.409  14.672  0.2208  0.1809  0.4794
15504TIP3    H168003   2.041   5.389  14.637  0.4303  0.3753 -0.1629
15504TIP3    H268004   2.113   5.425  14.765 -0.5866  1.2119  0.1777
15505TIP3   OH268005   5.293   2.697   3.081 -0.2227  0.1086 -0.1047
15505TIP3    H168006   5.314   2.754   3.155 -0.2557 -1.9927  1.5973
15505TIP3    H268007   5.231   2.633   3.117  0.4185 -1.4673 -1.7020
15506TIP3   OH268008   2.413   1.242   0.234  0.2684  0.5793  0.0067
15506TIP3    H168009   2.429   1.195   0.316 -1.0209  0.9331  0.4697
15506TIP3    H268010   2.327   1.210   0.204  0.6405  0.5881 -1.1164
15507TIP3   OH268011   0.874   2.522   1.421  0.4693  0.0366  0.5946
15507TIP3    H168012   0.800   2.486   1.373  2.1396 -1.2488 -1.1359
15507TIP3    H268013   0.916   2.446   1.461  0.9811  0.7196  1.3701
15508TIP3   OH268014   1.092   3.661   3.600 -0.3555 -0.6175  0.0544
15508TIP3    H168015   1.176   3.617   3.586 -1.5613 -2.9550 -0.0652
15508TIP3    H268016   1.050   3.659   3.514 -0.7299  0.1148  0.2241
15509TIP3   OH268017   0.186   6.492   2.291  0.0643 -0.5076  0.3495
15509TIP3    H168018   0.134   6.472   2.213  0.6376 -0.9464  0.0727
15509TIP3    H268019   0.242   6.565   2.264  0.6825 -1.0451  0.1572
15510TIP3   OH268020   6.730   1.608   3.401 -0.0972  0.0439 -0.1108
15510TIP3    H168021   6.668   1.541   3.371  0.4925 -0.2538 -0.6935
15510TIP3    H268022   6.683   1.690   3.394 -0.2245 -0.1126 -1.1495
15511TIP3   OH268023   4.146   3.686   1.818 -0.3064 -0.2834  0.0694
15511TIP3    H168024   4.220   3.706   1.875 -0.9673  0.9122  0.5181
15511TIP3    H268025   4.164   3.598   1.785  0.0325 -1.0243  2.1768
15512TIP3   OH268026   5.681   6.094  13.730 -0.1314  0.2378  0.2709
15512TIP3    H168027   5.641   6.129  13.810 -0.7243  0.7449 -0.2422
15512TIP3    H268028   5.699   6.171  13.677  0.7773 -0.0575  0.1451
15513TIP3   OH268029   1.466   2.918  10.851 -0.6195  0.4279  0.1096
15513TIP3    H168030   1.554   2.956  10.847 -1.3163  2.4205  2.3394
15513TIP3    H268031   1.448   2.890  10.761  2.0827  0.4242 -0.4734
15514TIP3   OH268032   2.843   2.552   1.088  0.1649 -0.2168 -0.2791
15514TIP3    H168033   2.931   2.528   1.060 -0.2753 -1.2199 -0.8071
15514TIP3    H268034   2.794   2.470   1.086 -0.5300  0.1580  0.9689
15515TIP3   OH268035   0.522   4.393  16.699  0.7130 -0.2063 -0.2469
15515TIP3    H168036   0.474   4.345  16.632 -0.5023  1.3744 -0.5303
15515TIP3    H268037   0.586   4.445  16.651  0.8969 -0.2606 -0.0615
15516TIP3   OH268038   6.214   0.672  16.024 -0.3381 -0.3761  0.2355
15516TIP3    H168039   6.284   0.732  15.999 -0.2801 -0.6149 -0.1746
15516TIP3    H268040   6.188   0.630  15.942 -1.3463  0.1248  0.2972
15517TIP3   OH268041   1.424   6.575   1.597  0.3660  0.4055 -0.4365
15517TIP3    H168042   1.495   6.597   1.658  0.6059 -2.4107  0.3791
15517TIP3    H268043   1.347   6.566   1.653  0.0055  0.4590 -0.9224
15518TIP3   OH268044   2.700   2.839  17.021  0.1303 -0.4583 -0.1239
15518TIP3    H168045   2.655   2.783  16.958 -1.0646 -0.2907  0.5614
15518TIP3    H268046   2.761   2.780  17.066  0.6845 -0.6606 -1.1400
15519TIP3   OH268047   3.107   3.542  16.342 -0.5241 -0.3445  0.9110
15519TIP3    H168048   3.107   3.469  16.280 -0.3811  1.6170 -1.4396
15519TIP3    H268049   3.027   3.590  16.322 -0.7291  0.0480  2.6111
15520TIP3   OH268050   1.580   1.734   0.026 -0.1215  0.1112 -0.1322
15520TIP3    H168051   1.661   1.737  -0.025 -1.5125  1.3163 -2.3386
15520TIP3    H268052   1.563   1.640   0.037  0.5842 -0.1736 -1.2801
15521TIP3   OH268053   4.191   3.685  16.598  0.2757  0.1759 -0.1544
15521TIP3    H168054   4.286   3.679  16.609  0.0979  0.2804  1.5626
15521TIP3    H268055   4.178   3.696  16.504  1.9787  0.3765 -0.3769
15522TIP3   OH268056   2.447   4.499  15.694  0.5386 -0.3400 -0.3516
15522TIP3    H168057   2.440   4.549  15.613 -1.6426 -0.3244 -0.1868
15522TIP3    H268058   2.356   4.488  15.724  1.2909 -0.3448  2.0725
15523TIP3   OH268059   2.758   2.399   1.488 -0.0173 -0.0326 -0.4778
15523TIP3    H168060   2.708   2.346   1.551 -0.0842  0.2329 -0.3092
15523TIP3    H268061   2.696   2.415   1.417  0.0066 -0.1924 -0.5341
15524TIP3   OH268062   6.720   4.865   1.375 -0.1980 -0.3209  0.3025
15524TIP3    H168063   6.640   4.906   1.407 -0.0159 -0.4135  0.8858
15524TIP3    H268064   6.782   4.938   1.365 -0.1433 -0.3375  0.5116
15525TIP3   OH268065   1.172   1.222  12.979  0.4402 -0.3390 -0.3261
15525TIP3    H168066   1.161   1.128  12.993 -1.1895 -0.3561 -1.5906
15525TIP3    H268067   1.089   1.250  12.942  1.2380  1.4427 -0.7918
15526TIP3   OH268068   2.566   6.556   5.139  0.3368 -0.2136  0.4346
15526TIP3    H168069   2.558   6.499   5.063  0.1561 -1.8139  1.6193
15526TIP3    H268070   2.620   6.506   5.201  0.5876  1.1123  1.3142
15527TIP3   OH268071   2.320   1.360  14.608 -0.6472 -0.0539 -0.9786
15527TIP3    H168072   2.229   1.389  14.605 -1.2898 -2.0972 -1.9423
15527TIP3    H268073   2.340   1.331  14.519  1.1852  1.0167 -0.9538
15528TIP3   OH268074   0.305   6.742  13.392 -0.4160  0.4119  0.1667
15528TIP3    H168075   0.248   6.778  13.323 -0.1864  2.5611  1.0593
15528TIP3    H268076   0.245   6.696  13.451 -0.7337 -0.5890 -0.9110
15529TIP3   OH268077   2.405   2.625   5.638  0.1313 -0.0426 -0.2862
15529TIP3    H168078   2.376   2.535   5.642 -1.0300  0.3796  1.1589
15529TIP3    H268079   2.357   2.664   5.565  0.2636 -0.4567 -0.5910
15530TIP3   OH268080   4.573   4.510   5.638  0.1401 -0.2828 -1.2276
15530TIP3    H168081   4.614   4.586   5.679 -0.5095 -1.3461  1.4842
15530TIP3    H268082   4.609   4.508   5.549  2.6587  1.2907 -0.2828
15531TIP3   OH268083   5.465   4.803   3.144  0.3889 -0.3061  0.3743
15531TIP3    H168084   5.429   4.889   3.121  1.5312  0.1757  0.3835
15531TIP3    H268085   5.484   4.810   3.238  0.4397 -0.5881  0.3852
15532TIP3   OH268086   2.022   0.142  11.265 -0.7086  0.4996 -0.0523
15532TIP3    H168087   2.097   0.083  11.273 -1.2737 -0.0164  1.7627
15532TIP3    H268088   2.013   0.157  11.171  0.5947 -0.8175 -0.4134
15533TIP3   OH268089   5.559   5.701  15.217 -0.1818 -0.0945 -0.3962
15533TIP3    H168090   5.594   5.709  15.128 -1.3820 -1.1702 -0.9813
15533TIP3    H268091   5.578   5.610  15.242 -0.6003 -0.0372  0.1307
15534TIP3   OH268092   5.165   1.649  15.103 -0.4771 -0.0121 -0.6556
15534TIP3    H168093   5.084   1.603  15.127 -0.9407  0.7133 -0.8139
15534TIP3    H268094   5.222   1.639  15.179 -0.6976 -0.5526 -0.5559
15535TIP3   OH268095   2.980   5.097  11.520  0.5189 -0.0913 -1.0723
15535TIP3    H168096   2.982   5.011  11.562 -0.8135  0.9954  1.3404
15535TIP3    H268097   3.049   5.147  11.563 -0.5052  0.8788 -0.5133
15536TIP3   OH268098   1.823   4.059  12.925  0.1081  0.6724 -0.3914
15536TIP3    H168099   1.749   4.061  12.985 -1.2248 -0.1593 -1.9934
15536TIP3    H268100   1.855   3.969  12.929 -0.7969  0.2693 -1.8899
15537TIP3   OH268101   5.829   5.390  13.449  0.2787 -0.5630 -0.1373
15537TIP3    H168102   5.920   5.388  13.418  0.0661 -2.1049 -0.7117
15537TIP3    H268103   5.791   5.466  13.405  1.8339  1.4209  1.7756
15538TIP3   OH268104   5.839   4.886  11.382 -0.1360  0.5854 -0.2070
15538TIP3    H168105   5.832   4.953  11.450  1.1660  0.7448 -0.2207
15538TIP3    H268106   5.926   4.899  11.344  0.2651 -1.3262  0.0244
15539TIP3   OH268107   2.582   2.347   3.054 -0.0762  0.8253  0.0898
15539TIP3    H168108   2.493   2.368   3.082 -0.5565 -0.4073 -0.4436
15539TIP3    H268109   2.598   2.260   3.091  1.0516  1.1977  0.4932
15540TIP3   OH268110   3.868   2.193  12.965  0.3160  0.3458 -0.3748
15540TIP3    H168111   3.908   2.192  12.878  0.0081  1.5087 -0.5433
15540TIP3    H268112   3.861   2.286  12.987 -1.0302  0.1080  0.2426
15541TIP3   OH268113   3.204   4.039   2.378  0.6016  0.2399 -0.9924
15541TIP3    H168114   3.271   4.103   2.401  0.2945  0.0034  0.6455
15541TIP3    H268115   3.253   3.963   2.346  1.2199 -0.4792  1.5521
15542TIP3   OH268116   0.776   4.940   4.834 -0.1542 -0.2586 -0.5497
15542TIP3    H168117   0.720   5.010   4.800  0.9623  0.6099 -0.6300
15542TIP3    H268118   0.725   4.902   4.906 -0.2622  1.4773  0.3240
15543TIP3   OH268119   5.180   4.444  15.580 -0.3729 -0.7206  0.1872
15543TIP3    H168120   5.265   4.474  15.549  0.4004 -1.6340  1.4027
15543TIP3    H268121   5.152   4.380  15.514  0.0452 -0.6958 -0.0126
15544TIP3   OH268122   4.623   1.430   0.776  0.0449 -0.2975  0.0105
15544TIP3    H168123   4.616   1.351   0.829 -0.9454  0.8318  1.6051
15544TIP3    H268124   4.535   1.444   0.741 -0.0262  0.6528  0.5580
15545TIP3   OH268125   5.107   6.084   4.268  0.1736 -0.0533  0.6266
15545TIP3    H168126   5.113   6.037   4.351  0.4997  0.7206  1.0499
15545TIP3    H268127   5.173   6.154   4.276  0.3174 -0.0815 -0.3483
15546TIP3   OH268128   5.247   6.364  16.889  0.0728  0.2406 -0.1568
15546TIP3    H168129   5.157   6.392  16.906  0.1314  0.1452  0.3200
15546TIP3    H268130   5.301   6.440  16.913 -0.0573  1.3901 -3.2789
15547TIP3   OH268131   2.296   5.094  11.132  0.2772  0.9193  0.1503
15547TIP3    H168132   2.263   5.006  11.115  0.5568  1.0238 -0.9834
15547TIP3    H268133   2.224   5.152  11.107  0.3331  1.0432  0.2725
15548TIP3   OH268134   3.186   5.817   6.195 -0.0101  0.1100  0.0468
15548TIP3    H168135   3.231   5.891   6.235 -0.7941 -0.5576  2.2119
15548TIP3    H268136   3.200   5.745   6.255  0.4447 -1.4521 -1.8691
15549TIP3   OH268137   0.331   3.091   6.088 -0.0236 -0.8625 -0.0759
15549TIP3    H168138   0.327   3.179   6.125 -0.3217 -0.6419 -0.6242
15549TIP3    H268139   0.348   3.034   6.163 -0.8761 -0.4472  0.4425
15550TIP3   OH268140   4.217   0.664  12.084  0.4703 -0.2076 -0.4387
15550TIP3    H168141   4.144   0.641  12.027 -0.2862  1.0611 -0.0022
15550TIP3    H268142   4.284   0.598  12.066 -0.5424 -1.0057 -1.3011
15551TIP3   OH268143   2.298   4.430   2.503  0.0085 -0.0880 -0.1410
15551TIP3    H168144   2.354   4.354   2.519 -0.0360 -0.3471 -1.2042
15551TIP3    H268145   2.343   4.479   2.435 -0.6256  0.1526 -0.3896
15552TIP3   OH268146   3.785   1.429   1.253  0.5449 -0.1857  0.0958
15552TIP3    H168147   3.819   1.357   1.306  1.9489  0.5075  0.1506
15552TIP3    H268148   3.805   1.508   1.304 -1.4450  0.2234  0.2882
15553TIP3   OH268149   0.028   6.600  11.843  0.3556 -0.1296 -0.5392
15553TIP3    H168150   0.065   6.660  11.777  0.3133 -0.5420 -0.9403
15553TIP3    H268151   0.073   6.517  11.827 -0.6061 -0.5909 -0.9127
15554TIP3   OH268152   3.035   4.509   3.604 -0.0257 -0.3084 -0.1320
15554TIP3    H168153   3.103   4.498   3.538  0.0037 -2.5874  0.2376
15554TIP3    H268154   3.007   4.420   3.624  0.1110  0.3110  3.0661
15555TIP3   OH268155   3.820   0.010   1.806 -0.7395  0.4039  0.3933
15555TIP3    H168156   3.837   0.061   1.885 -0.4770  0.9641 -0.0231
15555TIP3    H268157   3.895  -0.048   1.798 -0.5109  0.7186  0.2597
15556TIP3   OH268158   6.588   3.319  12.049 -0.7024  0.2727  0.1750
15556TIP3    H168159   6.559   3.399  12.006  0.2173  0.2060 -0.6118
15556TIP3    H268160   6.652   3.348  12.114  1.9930  0.0022 -2.2118
15557TIP3   OH268161   0.885   6.499  12.956 -0.9283 -0.5715 -0.1959
15557TIP3    H168162   0.829   6.483  12.880 -0.8319 -0.9432 -0.1901
15557TIP3    H268163   0.963   6.541  12.919 -2.1556  2.0747  0.0595
15558TIP3   OH268164   1.041   5.776   2.359  0.6900 -0.0124 -0.4552
15558TIP3    H168165   0.948   5.760   2.342  0.3293  2.1376 -0.6315
15558TIP3    H268166   1.069   5.699   2.409 -1.0170 -0.9903 -0.9428
15559TIP3   OH268167   4.568   2.398   2.855  0.3745  0.1706  0.7011
15559TIP3    H168168   4.562   2.355   2.940 -1.6762 -0.1682  0.4229
15559TIP3    H268169   4.562   2.326   2.792  1.4808  0.4585  0.2690
15560TIP3   OH268170   5.890   6.310   1.348 -0.1959  0.1294 -0.6416
15560TIP3    H168171   5.966   6.368   1.354 -0.4538  0.3874  0.3413
15560TIP3    H268172   5.850   6.332   1.264 -1.0113  2.3015  0.2788
15561TIP3   OH268173   4.360   5.980   5.923  0.2765  0.2749  0.0254
15561TIP3    H168174   4.303   5.931   5.864  1.1627 -0.1852 -0.4558
15561TIP3    H268175   4.432   5.921   5.942 -0.6887 -0.1259  2.7099
15562TIP3   OH268176   6.607   4.479  15.028  0.2250 -0.2015  0.1307
15562TIP3    H168177   6.625   4.386  15.045 -0.3463 -0.0745  1.4786
15562TIP3    H268178   6.562   4.509  15.106  0.6558  1.2960 -0.1891
15563TIP3   OH268179   0.462   1.130   3.571  0.1365 -0.8534  0.1537
15563TIP3    H168180   0.514   1.207   3.595 -0.1083 -0.4075 -0.7356
15563TIP3    H268181   0.452   1.081   3.653  1.6478 -0.7637  0.4050
15564TIP3   OH268182   3.205   4.883  14.323  0.1632  0.6660 -0.0474
15564TIP3    H168183   3.167   4.959  14.279  1.1192  0.2068 -1.7226
15564TIP3    H268184   3.252   4.919  14.398  1.5018  1.8811 -1.4134
15565TIP3   OH268185   2.946   1.610  13.157 -0.1541  0.4906 -0.0476
15565TIP3    H168186   2.886   1.567  13.097  0.5788 -1.0822  0.3334
15565TIP3    H268187   3.030   1.569  13.141  0.7694  2.4434 -0.3333
15566TIP3   OH268188   1.266   6.793   0.675  0.0987 -0.1870  0.3109
15566TIP3    H168189   1.357   6.763   0.678  0.5401  1.2039  1.3093
15566TIP3    H268190   1.220   6.736   0.736  0.6365  0.1645  1.0556
15567TIP3   OH268191   4.176   5.580   4.544 -0.1150 -0.0389 -0.0564
15567TIP3    H168192   4.214   5.632   4.473 -2.5189  0.3342 -1.1100
15567TIP3    H268193   4.232   5.503   4.550  2.7294  1.9851  0.6228
15568TIP3   OH268194   5.088   5.101   6.156 -0.1769  0.3249  0.2649
15568TIP3    H168195   5.049   5.015   6.169  1.0410 -0.8281 -3.3240
15568TIP3    H268196   5.181   5.089   6.174  0.0632  0.8022 -0.6323
15569TIP3   OH268197   5.944   4.595   4.066  0.8984  0.0241  0.2897
15569TIP3    H168198   5.857   4.608   4.029  0.0542  1.1961  2.5963
15569TIP3    H268199   5.987   4.536   4.004 -1.8225 -1.2846 -0.4474
15570TIP3   OH268200   4.826   2.497  15.328 -0.2872 -0.1082  0.2881
15570TIP3    H168201   4.798   2.486  15.419  0.2539  2.2862  0.7760
15570TIP3    H268202   4.759   2.553  15.289  1.0698  1.3983  0.0641
15571TIP3   OH268203   3.785   4.169   3.995 -0.4782 -0.4118  0.2902
15571TIP3    H168204   3.860   4.126   4.036 -1.5754 -2.7581 -0.0666
15571TIP3    H268205   3.780   4.129   3.908 -0.5860  1.6226 -0.6597
15572TIP3   OH268206   2.107   0.438  14.353  0.0234  0.3786 -0.3427
15572TIP3    H168207   2.026   0.449  14.403 -0.4288  1.6251 -1.3144
15572TIP3    H268208   2.158   0.517  14.373  0.9588 -0.3529  0.1801
15573TIP3   OH268209   2.313   5.115  16.549  0.4476  0.1248  0.0716
15573TIP3    H168210   2.272   5.169  16.616 -0.6044 -1.6978  0.9475
15573TIP3    H268211   2.358   5.045  16.598  1.8021  0.1958 -1.0223
15574TIP3   OH268212   3.875   4.718   1.218  0.0724 -0.1498 -0.0277
15574TIP3    H168213   3.922   4.797   1.192  3.5109 -1.7407  1.0361
15574TIP3    H268214   3.831   4.741   1.300  0.2885  0.8956 -0.2013
15575TIP3   OH268215   5.386   1.962   1.254 -0.4809  0.4542  0.2987
15575TIP3    H168216   5.311   1.976   1.311 -0.4224  0.9133  0.2623
15575TIP3    H268217   5.386   2.038   1.196 -0.3829  0.1231 -0.1344
15576TIP3   OH268218   1.611   5.682   0.500  0.4467  0.2373  0.0136
15576TIP3    H168219   1.524   5.685   0.460  0.1469  1.5910  0.7205
15576TIP3    H268220   1.612   5.757   0.560  2.1761  0.3593 -0.1487
15577TIP3   OH268221   0.101   1.236   2.711  0.2904 -0.1919 -0.0980
15577TIP3    H168222   0.081   1.143   2.709 -1.3589  0.1602 -0.1953
15577TIP3    H268223   0.073   1.269   2.626  0.0620  0.5494  0.2562
15578TIP3   OH268224   6.316   6.256  16.236  0.4101  0.2816 -0.2923
15578TIP3    H168225   6.408   6.261  16.211  0.4155 -0.8550 -0.5678
15578TIP3    H268226   6.276   6.203  16.167 -0.2959  0.1632  0.2005
15579TIP3   OH268227   5.190   1.442  14.260 -0.2551  0.6398 -0.8430
15579TIP3    H168228   5.218   1.524  14.219  1.5573 -0.5959 -2.1363
15579TIP3    H268229   5.269   1.390  14.266 -1.4461 -1.1510 -0.2949
15580TIP3   OH268230   5.668   1.046  13.435  0.6866  0.4956  0.1664
15580TIP3    H168231   5.692   0.956  13.456 -1.9100 -0.3071 -0.1538
15580TIP3    H268232   5.671   1.049  13.339  0.3892  0.6412  0.1625
15581TIP3   OH268233   4.121   2.238  14.745 -0.8166 -0.1852  0.1452
15581TIP3    H168234   4.194   2.218  14.802  0.3280 -0.0157 -1.2226
15581TIP3    H268235   4.161   2.255  14.659 -2.4401 -0.0231 -0.6102
15582TIP3   OH268236   5.913   2.758  14.976  0.4987  0.4259  0.4090
15582TIP3    H168237   5.896   2.708  15.056  1.9554 -0.3882  0.2283
15582TIP3    H268238   5.996   2.724  14.944  0.8349  2.0328 -0.4622
15583TIP3   OH268239   0.617   1.349   3.613  0.3374 -0.3170 -0.1142
15583TIP3    H168240   0.704   1.311   3.607 -0.0662 -1.2219 -0.3147
15583TIP3    H268241   0.624   1.416   3.681  1.0255 -0.8393  0.3255
15584TIP3   OH268242   2.142   0.214  15.339 -0.6196 -0.3857  0.1597
15584TIP3    H168243   2.082   0.161  15.286 -0.9980 -2.3492  2.4406
15584TIP3    H268244   2.184   0.273  15.277 -1.7935 -1.8950 -2.1368
15585TIP3   OH268245   0.309   4.586  17.191 -0.2098 -0.0370  0.4089
15585TIP3    H168246   0.391   4.550  17.155 -0.3626  0.8896 -0.8972
15585TIP3    H268247   0.268   4.512  17.235  1.0411 -0.6621  0.5653
15586TIP3   OH268248   0.066   0.056   0.399 -0.3191 -0.7644 -0.3727
15586TIP3    H168249   0.026  -0.016   0.448  0.4624 -2.3754 -2.0859
15586TIP3    H268250   0.123   0.099   0.463 -1.5096 -1.0651  0.9174
15587TIP3   OH268251   6.034   0.064  14.318 -0.3443  0.0568 -0.4264
15587TIP3    H168252   6.005  -0.027  14.322  1.7867 -0.5913  1.5138
15587TIP3    H268253   6.111   0.063  14.262 -1.1878  0.9456 -1.6325
15588TIP3   OH268254   2.298   4.248   0.466  0.2527 -0.8772 -0.2107
15588TIP3    H168255   2.381   4.283   0.435 -0.1115  0.2018  0.0192
15588TIP3    H268256   2.256   4.321   0.511 -1.8708 -0.7415 -2.3158
15589TIP3   OH268257   5.336   3.842  12.721  0.1603  0.4178 -0.2457
15589TIP3    H168258   5.330   3.843  12.625  0.9639  2.2605 -0.2890
15589TIP3    H268259   5.423   3.877  12.740 -0.4455  1.1782  1.1859
15590TIP3   OH268260   2.470   6.408  16.037  0.2711 -0.0665 -0.5172
15590TIP3    H168261   2.557   6.447  16.046  0.1383 -0.0418  0.7371
15590TIP3    H268262   2.443   6.388  16.126 -1.3740  0.7200 -0.8118
15591TIP3   OH268263   6.120   2.072  15.763 -0.3056  0.3177 -0.3501
15591TIP3    H168264   6.077   2.053  15.679  0.2692 -0.2914 -0.5047
15591TIP3    H268265   6.210   2.042  15.752 -0.1577  0.4674  0.4035
15592TIP3   OH268266   5.669   2.428  14.056 -0.4734  0.0136  0.4288
15592TIP3    H168267   5.669   2.338  14.025  2.2825  0.4182 -0.8955
15592TIP3    H268268   5.652   2.481  13.978  0.1107  0.7564  0.7972
15593TIP3   OH268269   3.113   2.608  15.347 -0.0181 -0.4345  0.7189
15593TIP3    H168270   3.169   2.570  15.279 -0.9073 -1.2341  0.4234
15593TIP3    H268271   3.024   2.587  15.319 -0.6610  3.6250 -0.5257
15594TIP3   OH268272   4.010   4.580   2.384  0.4149  0.0223  0.0160
15594TIP3    H168273   4.019   4.524   2.461  3.3306  0.7943  0.3062
15594TIP3    H268274   3.926   4.624   2.395 -0.4029 -1.8284  1.4277
15595TIP3   OH268275   0.067   5.099  16.939 -0.3934 -0.1466 -0.3025
15595TIP3    H168276   0.104   5.014  16.965  2.1935  0.6285 -1.2913
15595TIP3    H268277   0.004   5.077  16.870 -0.7646 -1.3844  0.4153
15596TIP3   OH268278   2.994   0.574  13.192  0.3265 -0.3731 -0.3314
15596TIP3    H168279   3.084   0.597  13.218  0.4324  0.0115 -1.0066
15596TIP3    H268280   2.946   0.567  13.274  0.9755 -0.5565  0.0350
15597TIP3   OH268281   1.315   2.358   2.373 -0.3715  0.1213  0.9114
15597TIP3    H168282   1.264   2.303   2.314 -1.6353 -0.7577  2.7983
15597TIP3    H268283   1.257   2.432   2.392 -0.7396 -0.5648  2.5589
15598TIP3   OH268284   1.682   2.036   2.607 -0.4163 -0.6375  0.2603
15598TIP3    H168285   1.658   1.974   2.675  2.5875 -3.0182 -0.7177
15598TIP3    H268286   1.635   2.005   2.529  0.5526 -1.2919 -0.0675
15599TIP3   OH268287   6.413   0.894   1.644 -0.6078  0.5791  0.0383
15599TIP3    H168288   6.320   0.891   1.622 -0.5013 -1.0169 -0.2572
15599TIP3    H268289   6.438   0.802   1.657  0.9889  0.9657 -0.1511
15600TIP3   OH268290   4.486   6.600  16.723  0.2511 -0.1512 -0.0993
15600TIP3    H168291   4.433   6.547  16.782  0.3068  0.0721  0.1526
15600TIP3    H268292   4.534   6.659  16.781  0.4214 -0.0344 -0.3588
15601TIP3   OH268293   2.114   3.594   1.656 -0.2596  0.1746  0.2405
15601TIP3    H168294   2.034   3.636   1.625 -0.3394 -0.6429 -0.7035
15601TIP3    H268295   2.094   3.567   1.746 -0.6349  1.0207  0.4119
15602TIP3   OH268296   3.971   2.364  15.961 -0.3712 -0.2682  0.1612
15602TIP3    H168297   3.968   2.332  16.051  0.1552 -0.3509  0.1574
15602TIP3    H268298   4.047   2.319  15.923 -0.8246 -0.5431 -0.4399
15603TIP3   OH268299   6.465   5.626   6.310  0.1520  0.2153  0.6099
15603TIP3    H168300   6.479   5.540   6.270 -1.5815 -0.1533  0.7624
15603TIP3    H268301   6.397   5.612   6.375  0.7069  1.4695  1.4934
15604TIP3   OH268302   5.560   4.327  16.171 -0.6791  0.1262 -0.1207
15604TIP3    H168303   5.640   4.311  16.222 -0.7337  2.1768  0.6851
15604TIP3    H268304   5.498   4.363  16.235 -1.8636 -0.3815 -0.9702
15605TIP3   OH268305   2.267   5.474   2.746 -0.6270  0.0700  0.0420
15605TIP3    H168306   2.172   5.466   2.736 -0.8850  1.8014  0.8553
15605TIP3    H268307   2.292   5.543   2.684  0.0848 -0.2362 -0.0234
15606TIP3   OH268308   1.014   5.853  13.188  0.5033 -0.2771  0.0668
15606TIP3    H168309   1.006   5.757  13.189  1.2662 -0.3928 -2.1302
15606TIP3    H268310   1.102   5.870  13.222  0.9300 -0.4537 -0.9235
15607TIP3   OH268311   5.524   2.403  17.091  0.5704  0.2445  0.1167
15607TIP3    H168312   5.476   2.475  17.050  1.0513  0.8973  0.6919
15607TIP3    H268313   5.489   2.324  17.049  1.1925  0.9026 -1.6653
15608TIP3   OH268314   3.179   6.245  14.459 -0.1849 -0.2041  0.5524
15608TIP3    H168315   3.254   6.280  14.506  1.0684 -1.8119 -0.1776
15608TIP3    H268316   3.106   6.301  14.483  1.8513  3.2955 -1.1356
15609TIP3   OH268317   5.099   0.457   3.505  0.0367 -0.1353  0.2221
15609TIP3    H168318   5.021   0.507   3.529 -2.0384 -4.2061  2.5319
15609TIP3    H268319   5.154   0.459   3.583  0.4678 -0.4627 -0.0728
15610TIP3   OH268320   5.277   1.287  12.955 -0.2082  0.1759 -0.3119
15610TIP3    H168321   5.213   1.358  12.961 -0.9251 -0.6401  2.3540
15610TIP3    H268322   5.237   1.215  13.003  1.8390 -1.0183 -0.3589
15611TIP3   OH268323   1.935   4.406  17.111 -0.0713 -0.3563 -0.2144
15611TIP3    H168324   1.878   4.339  17.074 -1.4450  0.0926  1.0529
15611TIP3    H268325   1.946   4.470  17.041 -1.2023 -0.3965 -0.4281
15612TIP3   OH268326   5.686   0.520   0.322  0.5697 -0.2815 -0.2405
15612TIP3    H168327   5.670   0.471   0.403 -0.7887 -1.4163 -1.1800
15612TIP3    H268328   5.599   0.535   0.285  1.1023  1.1859 -0.9612
15613TIP3   OH268329   4.044   0.749   5.934  0.0491  0.0372  0.0322
15613TIP3    H168330   4.008   0.669   5.971 -1.4934  0.2569 -0.9560
15613TIP3    H268331   4.139   0.740   5.945 -0.2394 -0.8835  1.9818
15614TIP3   OH268332   3.625   4.419  16.600  0.1460 -0.2999 -0.2813
15614TIP3    H168333   3.666   4.353  16.656  0.4569  0.8667  0.9010
15614TIP3    H268334   3.540   4.382  16.577 -0.3436 -0.4589  1.6636
15615TIP3   OH268335   3.095   3.634   4.118  0.0602 -0.1571  0.3801
15615TIP3    H168336   3.142   3.629   4.035  0.6049 -0.6754  0.7156
15615TIP3    H268337   3.126   3.558   4.168  1.0985  1.1409  1.7499
15616TIP3   OH268338   2.396   4.355  16.258  0.0558  0.2469 -0.6093
15616TIP3    H168339   2.412   4.394  16.172  1.1892 -1.8050 -1.3898
15616TIP3    H268340   2.475   4.374  16.308 -1.2842  2.8715  0.5716
15617TIP3   OH268341   5.656   6.725  13.419 -0.2435 -0.8253  0.3487
15617TIP3    H168342   5.606   6.705  13.340  0.4240 -1.3038  0.0495
15617TIP3    H268343   5.641   6.649  13.476 -1.2621 -0.1902  0.9625
15618TIP3   OH268344   4.151   1.596  14.900 -0.2675  0.2348 -0.4440
15618TIP3    H168345   4.225   1.571  14.956 -0.3992 -0.1595 -0.4453
15618TIP3    H268346   4.136   1.519  14.845 -0.5186  0.4069 -0.6153
15619TIP3   OH268347   1.316   6.002   5.603  0.1697 -0.0764 -0.2790
15619TIP3    H168348   1.269   6.051   5.536  1.6857  0.3504 -1.0539
15619TIP3    H268349   1.356   6.069   5.659  1.3472 -0.4174 -0.7005
15620TIP3   OH268350   4.866   4.842  14.647  0.3491 -0.4235 -0.4217
15620TIP3    H168351   4.899   4.920  14.690 -0.7550 -0.7164  0.9832
15620TIP3    H268352   4.911   4.770  14.690  1.0721 -0.5895 -1.4452
15621TIP3   OH268353   3.138   2.896  13.510  0.2680 -0.4650 -0.4278
15621TIP3    H168354   3.095   2.961  13.565  1.1877 -1.8256  1.9882
15621TIP3    H268355   3.217   2.940  13.478  0.9045 -0.3530  1.2219
15622TIP3   OH268356   5.680   0.213   0.699 -0.3373 -0.2327  0.4011
15622TIP3    H168357   5.729   0.234   0.779  1.0046 -0.9772 -0.1961
15622TIP3    H268358   5.652   0.122   0.712  0.7432 -0.6934 -0.3717
15623TIP3   OH268359   6.699   1.819  16.319  0.4677  0.1622  0.2883
15623TIP3    H168360   6.715   1.725  16.316 -1.6168 -0.1781 -0.9483
15623TIP3    H268361   6.654   1.839  16.237 -0.3247  1.9996  1.1222
15624TIP3   OH268362   2.931   1.534   0.883  0.3309 -0.8018  0.2515
15624TIP3    H168363   2.977   1.614   0.908 -0.2185 -0.8494  1.4625
15624TIP3    H268364   2.950   1.523   0.790  1.0879  0.2837  0.2721
15625TIP3   OH268365   0.694   5.237  10.568 -0.7234  0.1204  0.2518
15625TIP3    H168366   0.662   5.303  10.630 -0.7557 -0.2568  0.6368
15625TIP3    H268367   0.704   5.157  10.620  1.5360  0.4073  0.2940
15626TIP3   OH268368   0.192   5.945   2.755  0.1552 -0.4906  0.6267
15626TIP3    H168369   0.139   6.024   2.760 -0.0597 -0.5797 -0.1568
15626TIP3    H268370   0.262   5.966   2.693  0.6924 -0.5734  1.1957
15627TIP3   OH268371   1.677   0.417   0.695  0.6961 -0.2531  0.0974
15627TIP3    H168372   1.598   0.437   0.645 -0.5781  0.1211  2.1956
15627TIP3    H268373   1.724   0.353   0.640 -0.6290  0.1486 -1.5610
15628TIP3   OH268374   2.422   4.193  13.514 -0.0913 -0.0906  0.0199
15628TIP3    H168375   2.464   4.227  13.593  0.0732 -2.2324  0.8831
15628TIP3    H268376   2.494   4.156  13.463 -0.1369  1.6665 -1.3672
15629TIP3   OH268377   5.010   1.366  13.947  0.0601 -0.3128 -0.1338
15629TIP3    H168378   5.061   1.392  13.870  1.8946 -2.0403  0.4398
15629TIP3    H268379   4.992   1.449  13.993  0.7938  0.5100 -1.2935
15630TIP3   OH268380   2.913   6.742  14.430  0.2503  0.9464 -0.5015
15630TIP3    H168381   2.873   6.711  14.511 -0.9968  2.5278 -0.4979
15630TIP3    H268382   3.007   6.745  14.450 -0.1017  1.9599  1.1356
15631TIP3   OH268383   6.655   0.262  13.237 -0.0805 -0.0287  0.3501
15631TIP3    H168384   6.706   0.330  13.191  0.6019 -0.6249  0.2088
15631TIP3    H268385   6.566   0.275  13.206  0.1640  0.3615 -0.2205
15632TIP3   OH268386   1.847   6.617   2.390  0.3648 -0.6376  1.2185
15632TIP3    H168387   1.942   6.632   2.392  0.3993 -0.8330  1.1440
15632TIP3    H268388   1.809   6.703   2.378  0.5897 -0.7086 -0.1309
15633TIP3   OH268389   5.193   6.273  11.994 -0.2500  0.4704  0.3750
15633TIP3    H168390   5.246   6.205  11.952 -1.2240  0.2230 -0.4901
15633TIP3    H268391   5.231   6.284  12.081  2.1262  1.3129 -0.7286
15634TIP3   OH268392   3.196   6.241  12.262 -0.2336  0.2790  0.2118
15634TIP3    H168393   3.175   6.330  12.232 -0.2123 -0.3637 -1.7202
15634TIP3    H268394   3.130   6.223  12.329 -0.7397  1.4444  0.0416
15635TIP3   OH268395   6.117   3.383   0.023  0.0275  0.1045  0.2036
15635TIP3    H168396   6.166   3.358   0.101  0.0514 -2.8387 -0.7105
15635TIP3    H268397   6.025   3.370   0.047 -0.0499  0.5503  0.1684
15636TIP3   OH268398   4.512   6.521  11.351 -0.4515 -0.1866 -0.2242
15636TIP3    H168399   4.518   6.466  11.273 -1.4717  1.4726 -1.4900
15636TIP3    H268400   4.596   6.568  11.354  1.0529 -2.8035  1.6918
15637TIP3   OH268401   4.659   0.196  11.969  0.3532 -0.3062  0.1236
15637TIP3    H168402   4.601   0.124  11.993  0.0024  0.7350  2.5515
15637TIP3    H268403   4.603   0.255  11.917  0.0738 -0.7585 -0.0950
15638TIP3   OH268404   5.046   3.963  10.360 -0.1961  0.2896  0.0268
15638TIP3    H168405   5.058   3.950  10.454  1.0935 -1.2539 -0.3270
15638TIP3    H268406   5.100   3.896  10.319  1.6349  2.7869 -1.8628
15639TIP3   OH268407   2.413   2.826   1.208 -0.2457  0.4511  0.0318
15639TIP3    H168408   2.342   2.854   1.266  0.2125 -0.5104  1.0708
15639TIP3    H268409   2.379   2.750   1.162  0.2277 -0.2369  0.8031
15640TIP3   OH268410   3.431   0.485   1.218 -0.1358  0.3688 -0.1872
15640TIP3    H168411   3.444   0.391   1.221 -0.6369  0.2769 -0.7731
15640TIP3    H268412   3.517   0.522   1.236 -0.3755 -0.1743  2.1953
15641TIP3   OH268413   0.762   5.701  15.179  0.2559  0.6276  0.0406
15641TIP3    H168414   0.806   5.699  15.094 -0.7866  1.0128 -0.5178
15641TIP3    H268415   0.697   5.771  15.171  0.2966  0.8137  1.2332
15642TIP3   OH268416   3.774   0.214  14.312  0.4202  0.3482 -0.4567
15642TIP3    H168417   3.766   0.291  14.254 -0.6645 -0.2687 -1.1370
15642TIP3    H268418   3.811   0.146  14.256 -0.1283 -0.0948 -0.2843
15643TIP3   OH268419   3.546   6.499  15.389  0.3874  0.2440 -0.1628
15643TIP3    H168420   3.622   6.546  15.426  0.1927  0.0757  0.4512
15643TIP3    H268421   3.560   6.408  15.413 -0.4100  0.3286  0.6211
15644TIP3   OH268422   4.256   3.120   4.994 -0.6752 -0.4760  0.6756
15644TIP3    H168423   4.245   3.210   4.963 -1.6891 -1.2495 -1.3067
15644TIP3    H268424   4.350   3.104   4.987 -0.7330 -0.2101 -0.8785
15645TIP3   OH268425   3.468   4.237   4.562 -0.6836  0.7285  0.2607
15645TIP3    H168426   3.463   4.266   4.471 -0.3973  0.4518  0.1563
15645TIP3    H268427   3.541   4.175   4.564 -1.5235 -0.2831  0.4000
15646TIP3   OH268428   4.832   6.687   6.251 -0.5298  0.3139 -0.0080
15646TIP3    H168429   4.803   6.652   6.336 -0.1406 -1.4052 -0.5580
15646TIP3    H268430   4.856   6.609   6.201  1.1514  1.4515 -0.9994
15647TIP3   OH268431   4.487   5.583   2.402 -0.4336 -0.4625  0.4106
15647TIP3    H168432   4.527   5.558   2.319 -0.7816 -1.5541  0.5716
15647TIP3    H268433   4.479   5.679   2.397 -0.9133 -0.5806 -1.0150
15648TIP3   OH268434   6.252   6.810   3.515 -0.0499  0.3754  0.0720
15648TIP3    H168435   6.313   6.818   3.588  0.2559  1.7465 -0.3041
15648TIP3    H268436   6.188   6.745   3.544  0.6741  0.1164  1.1205
15649TIP3   OH268437   2.082   1.856  17.033 -0.3513  0.3404  0.1507
15649TIP3    H168438   2.131   1.866  16.951 -0.8497  0.0458 -0.1923
15649TIP3    H268439   2.094   1.764  17.057  0.9997  0.7750  1.1989
15650TIP3   OH268440   4.275   3.516  11.664 -0.1609  1.0485  0.4357
15650TIP3    H168441   4.203   3.523  11.602 -0.2110 -1.3224  0.1972
15650TIP3    H268442   4.354   3.519  11.611 -0.2009 -0.7815  0.2281
15651TIP3   OH268443   4.977   5.016  13.671  0.0043 -0.3349  0.0803
15651TIP3    H168444   4.907   5.025  13.606 -0.8611 -2.9558  0.6211
15651TIP3    H268445   5.045   4.966  13.626  0.0411 -0.8384  0.6953
15652TIP3   OH268446   1.906   3.723   1.555 -0.0549  0.3845 -0.4349
15652TIP3    H168447   1.811   3.726   1.543 -0.1877  0.4169  0.6239
15652TIP3    H268448   1.941   3.723   1.465 -1.0811 -1.0608 -0.8453
15653TIP3   OH268449   0.648   5.632   4.061 -0.0922  0.1543 -0.0759
15653TIP3    H168450   0.716   5.668   4.005  0.8466  1.4351  1.8156
15653TIP3    H268451   0.686   5.551   4.096 -0.0895  0.1328 -0.1298
15654TIP3   OH268452   1.429   3.991  15.726 -0.1092 -0.3129  0.0594
15654TIP3    H168453   1.477   3.955  15.800 -1.3118 -0.1394  0.9276
15654TIP3    H268454   1.459   3.940  15.651  1.6538 -0.0025  0.5339
15655TIP3   OH268455   3.112   1.866   3.497  0.1314  0.4090 -0.4537
15655TIP3    H168456   3.069   1.841   3.415 -0.5158  0.8081 -0.2345
15655TIP3    H268457   3.053   1.929   3.537  1.6067  2.0904 -0.8524
15656TIP3   OH268458   6.141   6.549  13.402  0.0775 -0.2951 -0.1672
15656TIP3    H168459   6.196   6.627  13.409  1.9561 -1.3626 -2.2675
15656TIP3    H268460   6.061   6.580  13.359  1.0362  0.3721 -1.4976
15657TIP3   OH268461   6.545   4.808   3.856 -0.0969  0.6131 -0.0393
15657TIP3    H168462   6.504   4.844   3.778 -4.1497 -1.2848  1.0694
15657TIP3    H268463   6.565   4.885   3.910 -1.5246  1.6887 -0.9991
15658TIP3   OH268464   2.845   0.172  14.298 -0.7222 -0.0451 -1.2297
15658TIP3    H168465   2.916   0.223  14.259  0.9014 -2.4930 -1.5277
15658TIP3    H268466   2.873   0.159  14.389 -0.9064 -0.8338 -1.2889
15659TIP3   OH268467   1.252   4.009  11.642  0.2533 -0.4426 -0.1915
15659TIP3    H168468   1.303   3.929  11.658 -1.3265 -1.4062  0.1461
15659TIP3    H268469   1.279   4.037  11.555  1.6075 -0.7422  0.1173
15660TIP3   OH268470   6.118   3.973   0.441  0.4171  0.0620  0.6183
15660TIP3    H168471   6.077   3.915   0.376  1.4544 -0.4137  0.3925
15660TIP3    H268472   6.044   4.017   0.482 -0.3163 -0.4823 -0.0912
15661TIP3   OH268473   6.759   2.187   6.808 -0.1692  0.2749  0.3925
15661TIP3    H168474   6.728   2.211   6.721 -1.2876 -1.6011  0.2679
15661TIP3    H268475   6.848   2.154   6.793 -0.7019 -0.9205 -0.1674
15662TIP3   OH268476   3.777   6.246  12.278 -0.3389  0.2175  0.1093
15662TIP3    H168477   3.812   6.322  12.325 -0.1455  1.9375 -2.7202
15662TIP3    H268478   3.692   6.275  12.246 -0.7182 -1.1343 -0.1496
15663TIP3   OH268479   1.933   6.227   6.393 -0.0566 -0.1729 -0.0574
15663TIP3    H168480   1.991   6.255   6.464 -0.4200 -2.3652  1.1448
15663TIP3    H268481   1.850   6.271   6.411  0.1607  0.1143  0.2540
15664TIP3   OH268482   2.516   0.031  12.264  0.1418  0.0731 -0.1827
15664TIP3    H168483   2.486  -0.034  12.327  0.1186  0.6445  0.4106
15664TIP3    H268484   2.483   0.001  12.180  1.5389 -1.5749 -0.1807
15665TIP3   OH268485   5.091   0.514  15.089  0.2058 -0.4521  0.0772
15665TIP3    H168486   5.039   0.581  15.044 -1.3120 -1.4059  0.3786
15665TIP3    H268487   5.098   0.444  15.025  1.2474 -0.2727 -0.0068
15666TIP3   OH268488   4.284   4.178  13.002  0.0073 -0.2489  0.2960
15666TIP3    H168489   4.190   4.184  13.016 -0.0271 -0.6438  0.2456
15666TIP3    H268490   4.313   4.108  13.060  0.3184  0.0786  0.5350
15667TIP3   OH268491   4.398   4.780  13.117  0.1345 -0.1155 -0.5925
15667TIP3    H168492   4.352   4.789  13.034 -0.5787  2.6630  0.0756
15667TIP3    H268493   4.458   4.854  13.120  1.3844 -1.1410  0.6277
15668TIP3   OH268494   2.461   6.467  13.187 -0.3125 -0.5426  0.6880
15668TIP3    H168495   2.515   6.491  13.113 -0.5720 -0.0697  0.6505
15668TIP3    H268496   2.474   6.372  13.197  0.4159 -0.4526  0.6024
15669TIP3   OH268497   2.287   5.113  11.972 -0.2557  0.3090  0.0097
15669TIP3    H168498   2.332   5.138  11.891 -0.1140 -0.1925 -0.0628
15669TIP3    H268499   2.279   5.018  11.967  0.5164  0.1821  0.9804
15670TIP3   OH268500   6.316   6.603  16.108 -0.2715 -0.4644 -0.3888
15670TIP3    H168501   6.320   6.698  16.120 -0.8113 -0.5569  0.5454
15670TIP3    H268502   6.402   6.580  16.070  0.0363  0.3268 -0.1810
15671TIP3   OH268503   6.801   3.739   3.265 -0.4902  0.3727 -0.4298
15671TIP3    H168504   6.766   3.662   3.220  0.1208  0.5526 -1.2073
15671TIP3    H268505   6.872   3.704   3.319  0.3322  0.5022 -1.4094
15672TIP3   OH268506   0.226   6.108  15.569  0.0167 -0.2527 -0.0017
15672TIP3    H168507   0.248   6.160  15.492  1.3031  1.3057  1.3814
15672TIP3    H268508   0.300   6.048  15.581 -0.7215 -1.3196 -0.6427
15673TIP3   OH268509   3.055   3.956  12.504 -0.0023  0.5662  0.2911
15673TIP3    H168510   3.135   3.976  12.552 -0.4285  0.3938  1.0844
15673TIP3    H268511   3.081   3.890  12.440  0.4327  0.2982  0.7380
15674TIP3   OH268512   0.030   2.150   1.512  0.1681  0.3947 -0.0202
15674TIP3    H168513  -0.041   2.171   1.572 -0.2844  2.0671 -1.1163
15674TIP3    H268514   0.108   2.146   1.568 -0.4434  0.6618  0.8678
15675TIP3   OH268515   2.399   1.960  12.040  0.5338  0.3328  0.0696
15675TIP3    H168516   2.491   1.949  12.064  0.2599  0.8323  1.4218
15675TIP3    H268517   2.390   2.054  12.023  0.0010  0.4937  1.1970
15676TIP3   OH268518   0.767   4.919   5.649  0.2995  0.6783  0.6434
15676TIP3    H168519   0.724   4.838   5.677  1.1317 -0.5692 -1.5701
15676TIP3    H268520   0.858   4.908   5.675  0.4971  0.7407 -0.0307
15677TIP3   OH268521   6.425   5.602  15.520 -0.5161 -0.2982  0.2664
15677TIP3    H168522   6.483   5.670  15.552  0.5848 -1.0854 -0.0454
15677TIP3    H268523   6.447   5.524  15.572 -0.8613 -0.7631 -0.2662
15678TIP3   OH268524   2.520   5.390  14.650 -0.2748 -0.2546  0.1602
15678TIP3    H168525   2.477   5.453  14.707 -2.0375 -0.6471 -0.6877
15678TIP3    H268526   2.600   5.434  14.621 -0.8337  1.0706  0.6137
15679TIP3   OH268527   2.682   4.726   0.937 -0.0051  0.2202  0.6114
15679TIP3    H168528   2.674   4.637   0.903 -0.1524  0.6166 -0.3999
15679TIP3    H268529   2.748   4.720   1.006 -0.5655 -0.8209  1.0640
15680TIP3   OH268530   6.697   2.444   4.514 -0.0230  0.1419 -0.1526
15680TIP3    H168531   6.617   2.409   4.553 -0.3211 -2.0202 -2.6170
15680TIP3    H268532   6.764   2.377   4.530  1.1349  1.5736  1.1764
15681TIP3   OH268533   4.420   0.005   0.060 -0.4939 -0.0860  0.2048
15681TIP3    H168534   4.490   0.018   0.124 -0.3576 -0.9006  0.2369
15681TIP3    H268535   4.394  -0.087   0.071  0.6691 -0.7412 -2.0253
15682TIP3   OH268536   0.855   0.835  17.206  0.6271 -0.0254 -0.1150
15682TIP3    H168537   0.854   0.763  17.269  0.2115 -1.5967 -1.8830
15682TIP3    H268538   0.826   0.911  17.257  1.9959 -0.8792  2.0103
15683TIP3   OH268539   0.613   5.240  14.042 -0.3111 -0.0064  0.1260
15683TIP3    H168540   0.690   5.291  14.070 -0.4539  1.3135 -1.8491
15683TIP3    H268541   0.539   5.298  14.058 -0.6549 -0.2873 -0.4621
15684TIP3   OH268542   1.776   2.010   2.232  0.3924 -0.2148  0.1998
15684TIP3    H168543   1.728   2.081   2.274  0.6172  0.8315 -1.2610
15684TIP3    H268544   1.734   2.000   2.146 -0.3449 -2.5991  0.8141
15685TIP3   OH268545   0.710   3.075  16.475  0.2181  0.2559 -0.2992
15685TIP3    H168546   0.702   3.138  16.404 -0.1543  1.2695  0.6178
15685TIP3    H268547   0.701   3.128  16.555  1.3977 -0.7299  0.5107
15686TIP3   OH268548   2.244   4.043  10.963  0.3027 -0.6214  0.1390
15686TIP3    H168549   2.212   3.957  10.992  1.6161 -0.7000  1.3885
15686TIP3    H268550   2.336   4.029  10.944 -0.0966 -0.1124 -2.3045
15687TIP3   OH268551   0.406   4.225   2.645  0.3227  0.0291 -0.2684
15687TIP3    H168552   0.456   4.306   2.660  2.3596 -1.2289 -0.0535
15687TIP3    H268553   0.315   4.252   2.649  0.9791  2.3974 -0.5809
15688TIP3   OH268554   2.749   1.054   2.677 -0.1968  0.2330  0.5454
15688TIP3    H168555   2.810   1.002   2.625  0.4163  0.4590  1.0225
15688TIP3    H268556   2.672   1.063   2.622  0.0184 -0.4684  0.1262
15689TIP3   OH268557   5.481   5.214   0.969  0.7077  1.0750 -0.4792
15689TIP3    H168558   5.535   5.290   0.990  0.2723  0.9497  1.1602
15689TIP3    H268559   5.531   5.139   1.002  0.5379  0.7608 -0.9252
15690TIP3   OH268560   3.188   4.524   3.912 -0.6077 -0.1749  0.8579
15690TIP3    H168561   3.123   4.495   3.976 -0.6055  1.6130  1.6770
15690TIP3    H268562   3.180   4.619   3.910 -0.7660 -0.1887 -1.9903
15691TIP3   OH268563   2.185   0.725   3.859 -0.1517 -0.0427  0.5848
15691TIP3    H168564   2.269   0.764   3.883  0.1412  0.6381 -1.4121
15691TIP3    H268565   2.205   0.668   3.784 -1.6036  0.9243 -0.5946
15692TIP3   OH268566   3.854   4.475   2.820 -0.4436  0.2166 -0.1131
15692TIP3    H168567   3.794   4.401   2.825  1.4538 -1.4618 -1.1427
15692TIP3    H268568   3.897   4.476   2.906 -0.5092  0.1377 -0.0797
15693TIP3   OH268569   3.183   0.070  12.759  0.4120 -0.4602 -0.2064
15693TIP3    H168570   3.111   0.036  12.813  0.2109 -1.5779 -1.1549
15693TIP3    H268571   3.261   0.030  12.797  0.2395 -1.4973 -0.9093
15694TIP3   OH268572   0.033   5.770   0.551  0.5292  0.1420  0.0533
15694TIP3    H168573   0.034   5.675   0.563  1.0577  0.0986 -0.3081
15694TIP3    H268574  -0.049   5.798   0.591  0.6537 -0.3965  0.7052
15695TIP3   OH268575   6.494   6.321  11.210 -0.6676 -0.1821  0.2194
15695TIP3    H168576   6.530   6.237  11.240  0.7038 -0.2475 -1.5392
15695TIP3    H268577   6.546   6.387  11.255 -1.0256 -0.2787  0.7738
15696TIP3   OH268578   6.481   4.189   4.869 -0.5427 -0.7138  0.2608
15696TIP3    H168579   6.459   4.281   4.886 -1.3075 -1.0395  1.0997
15696TIP3    H268580   6.576   4.185   4.880 -0.4140  0.1182 -0.4946
15697TIP3   OH268581   0.226   1.922   1.537  0.4211  0.1258 -0.7396
15697TIP3    H168582   0.203   1.833   1.512 -1.3215  0.6715 -1.1416
15697TIP3    H268583   0.197   1.976   1.463 -0.1593  1.1996  0.2601
15698TIP3   OH268584   2.055   2.296  16.464  0.4138 -0.3344  0.3008
15698TIP3    H168585   2.080   2.215  16.508  0.4804 -1.3788 -1.6442
15698TIP3    H268586   2.124   2.311  16.400 -0.6511  0.1814 -0.7327
15699TIP3   OH268587   2.087   4.112  16.108 -0.4734  0.4274  0.0306
15699TIP3    H168588   2.158   4.049  16.115 -1.2090 -0.5085 -0.7175
15699TIP3    H268589   2.049   4.117  16.196 -0.8709 -0.7293 -0.0738
15700TIP3   OH268590   6.135   3.124   0.434 -0.4651  0.4255 -0.4440
15700TIP3    H168591   6.109   3.194   0.495 -0.3107 -0.5266  0.7325
15700TIP3    H268592   6.057   3.070   0.426 -0.8933  1.2586 -2.1268
15701TIP3   OH268593   5.156   4.193  12.807 -0.3483  0.3646  0.2855
15701TIP3    H168594   5.147   4.166  12.899  0.1651 -1.5550 -0.1915
15701TIP3    H268595   5.239   4.153  12.779 -0.2586  1.3507 -0.8670
15702TIP3   OH268596   2.664   6.353  11.563 -0.2523 -0.4449 -0.0435
15702TIP3    H168597   2.654   6.314  11.476 -0.5973 -0.1674 -0.1257
15702TIP3    H268598   2.684   6.278  11.620 -1.5086 -0.8273 -0.0936
15703TIP3   OH268599   6.661   2.079  13.447 -0.1081  0.7354  0.3239
15703TIP3    H168600   6.579   2.126  13.460 -0.0525  0.6364  1.0454
15703TIP3    H268601   6.728   2.137  13.481  0.0656  0.5588  0.2850
15704TIP3   OH268602   5.610   6.018  12.194 -0.4188  0.1378  0.0262
15704TIP3    H168603   5.618   6.057  12.107  1.8060 -0.4584 -0.0473
15704TIP3    H268604   5.600   5.924  12.177  2.3015 -0.2646  0.4519
15705TIP3   OH268605   1.667   2.800  14.470  0.3572  0.3499  0.4183
15705TIP3    H168606   1.620   2.882  14.486 -1.9836 -0.5895 -1.3349
15705TIP3    H268607   1.681   2.763  14.557 -2.4867  0.5180  1.0074
15706TIP3   OH268608   2.326   5.664  13.346 -0.2270 -0.3988 -0.5462
15706TIP3    H168609   2.354   5.602  13.278  0.3649 -0.7791  0.0367
15706TIP3    H268610   2.407   5.708  13.372 -0.2689 -1.0220  0.6697
15707TIP3   OH268611   5.223   0.703  14.581  0.0424  0.6031  0.3245
15707TIP3    H168612   5.279   0.733  14.652 -0.0439  0.6874  0.3568
15707TIP3    H268613   5.282   0.692  14.507  0.5989 -2.0651  1.1263
15708TIP3   OH268614   3.458   2.285   3.972  0.4691 -0.3229 -0.3619
15708TIP3    H168615   3.451   2.206   3.918  2.2674 -1.1801  0.5900
15708TIP3    H268616   3.469   2.251   4.061 -1.4007  1.0550  0.4098
15709TIP3   OH268617   4.957   1.186  15.015  0.5672  0.1310 -0.1643
15709TIP3    H168618   5.017   1.168  15.086 -2.4883 -0.8219  2.3050
15709TIP3    H268619   4.929   1.100  14.984 -2.1049  0.4742  1.0934
15710TIP3   OH268620   0.796   1.604   1.503 -0.2965 -0.0584  0.1042
15710TIP3    H168621   0.727   1.659   1.541 -1.9780 -1.5660 -0.6680
15710TIP3    H268622   0.750   1.551   1.437  2.0740  0.7779 -2.3359
15711TIP3   OH268623   5.151   0.702   4.793 -0.2072 -0.1724 -0.8384
15711TIP3    H168624   5.228   0.739   4.748  1.2848  0.2879  1.9316
15711TIP3    H268625   5.132   0.621   4.746  0.1900  1.1329 -3.3359
15712TIP3   OH268626   5.787   0.141  17.151 -0.1883  0.7363 -0.2816
15712TIP3    H168627   5.738   0.071  17.194 -0.8808  1.2612 -0.2097
15712TIP3    H268628   5.825   0.191  17.223  0.9493 -0.0212 -0.3528
15713TIP3   OH268629   1.357   3.790  15.040 -0.5249  0.0287  0.5897
15713TIP3    H168630   1.298   3.839  15.098 -0.9655 -0.8536  0.8856
15713TIP3    H268631   1.443   3.832  15.053 -0.8152  0.4573  1.1559
15714TIP3   OH268632   6.530   3.018   0.807 -0.0100 -0.5857  0.3807
15714TIP3    H168633   6.500   2.977   0.726 -0.5524 -1.5139  1.0348
15714TIP3    H268634   6.531   3.112   0.787  0.7524 -0.8704 -0.9777
15715TIP3   OH268635   5.283   1.917   1.757 -0.0636  0.0483  1.3470
15715TIP3    H168636   5.223   1.847   1.783 -0.8519  0.5555  0.8933
15715TIP3    H268637   5.309   1.893   1.667  1.4312 -0.8621  1.9996
15716TIP3   OH268638   1.353   0.978  13.743  0.4445  0.0527  0.2754
15716TIP3    H168639   1.358   0.900  13.688  1.8642 -1.1945  2.0726
15716TIP3    H268640   1.421   1.036  13.709  0.8494 -0.4186  0.2783
15717TIP3   OH268641   5.447   1.585   4.338 -0.8325 -0.1620  0.1639
15717TIP3    H168642   5.436   1.663   4.393 -1.2440 -0.9411  1.1988
15717TIP3    H268643   5.526   1.603   4.286 -1.5918  1.4560 -0.4898
15718TIP3   OH268644   5.360   1.077   2.510 -0.0779  0.8452 -0.3266
15718TIP3    H168645   5.396   0.993   2.540  0.8492  0.8325 -1.4369
15718TIP3    H268646   5.417   1.103   2.438 -0.5445  2.2899 -0.1916
15719TIP3   OH268647   1.708   4.324   1.581 -0.0585  0.1531  0.7285
15719TIP3    H168648   1.688   4.343   1.673  0.4538  1.0218  0.6741
15719TIP3    H268649   1.652   4.250   1.559 -0.4331  0.1484  1.6460
15720TIP3   OH268650   1.797   3.893   3.834  0.2663  0.1076 -0.2551
15720TIP3    H168651   1.789   3.980   3.873  0.3241  0.0640 -0.1454
15720TIP3    H268652   1.882   3.861   3.865  0.1481 -0.0759 -0.1197
15721TIP3   OH268653   4.156   6.496  12.859 -0.0001 -0.3732 -0.3017
15721TIP3    H168654   4.061   6.505  12.865  0.0300  0.3876 -0.8309
15721TIP3    H268655   4.182   6.451  12.939 -0.5746  1.4095  0.9208
15722TIP3   OH268656   3.973   4.785  13.042  0.4155  0.0533  0.4319
15722TIP3    H168657   3.914   4.797  12.967  0.9402  3.1948  0.4494
15722TIP3    H268658   3.916   4.755  13.113 -0.6184  0.0498 -0.3860
15723TIP3   OH268659   0.890   2.199  13.753 -0.2425 -0.2988 -0.3874
15723TIP3    H168660   0.931   2.285  13.760 -1.7929  0.5116 -1.1315
15723TIP3    H268661   0.882   2.184  13.659  0.9585 -1.7299 -0.2883
15724TIP3   OH268662   2.050   2.868  15.152  0.9289  0.3443  0.0361
15724TIP3    H168663   2.128   2.864  15.097  0.1922  0.6315 -1.0545
15724TIP3    H268664   2.048   2.784  15.197  1.0859 -0.2458 -1.0372
15725TIP3   OH268665   3.884   2.311  11.394 -0.5128 -0.4364 -0.2631
15725TIP3    H168666   3.812   2.248  11.385 -1.1488  0.4503 -1.4289
15725TIP3    H268667   3.844   2.389  11.431  0.0238 -0.2217 -0.1236
15726TIP3   OH268668   6.691   0.284   3.248 -0.5290  0.0299  0.8470
15726TIP3    H168669   6.668   0.210   3.192  0.2208  0.0247  0.5346
15726TIP3    H268670   6.759   0.331   3.200 -2.5511  2.2171  0.0139
15727TIP3   OH268671   2.390   1.334  16.077 -0.1412 -0.1086 -0.7745
15727TIP3    H168672   2.297   1.312  16.077 -0.3558  0.7775 -0.4699
15727TIP3    H268673   2.401   1.393  16.003 -0.3437  1.8544  0.6987
15728TIP3   OH268674   3.127   2.175   6.116  0.2118 -0.2180 -0.1719
15728TIP3    H168675   3.096   2.221   6.195  0.5797 -0.3713  0.0631
15728TIP3    H268676   3.144   2.086   6.146 -0.2025 -0.4252 -0.5585
15729TIP3   OH268677   2.411   4.235   1.468  0.2270  0.0347 -0.5703
15729TIP3    H168678   2.406   4.146   1.432 -1.3231 -0.4792  0.8781
15729TIP3    H268679   2.348   4.236   1.539  2.4984  1.3486  1.5072
15730TIP3   OH268680   1.544   4.787  11.380 -0.4138 -0.2783 -0.1689
15730TIP3    H168681   1.623   4.779  11.327 -0.7424  1.9165 -1.0402
15730TIP3    H268682   1.484   4.722  11.344 -0.0377  0.0709 -1.4363
15731TIP3   OH268683   3.583   5.765  12.396 -0.5967  0.1164 -0.1241
15731TIP3    H168684   3.556   5.775  12.488 -0.6886  1.3197 -0.2662
15731TIP3    H268685   3.676   5.787  12.396 -0.7978  1.0077 -0.4509
15732TIP3   OH268686   1.817   4.711   1.625  0.5025 -0.5241  0.0764
15732TIP3    H168687   1.791   4.779   1.687  1.0072  0.6385 -0.9428
15732TIP3    H268688   1.910   4.727   1.609  0.2963 -0.5441 -1.2596
15733TIP3   OH268689   3.105   6.450   2.630 -0.0945  0.4431 -0.0792
15733TIP3    H168690   3.036   6.512   2.654  0.1137 -0.1138  2.1209
15733TIP3    H268691   3.058   6.370   2.605 -0.3564  1.3901 -2.7370
15734TIP3   OH268692   3.812   3.861   1.004  0.6494 -0.3686  0.1808
15734TIP3    H168693   3.808   3.771   1.036  0.0531 -0.4099 -0.0042
15734TIP3    H268694   3.786   3.914   1.079  1.3559 -0.3194  0.4002
15735TIP3   OH268695   4.513   4.471   1.855 -0.1654 -0.3807  0.7394
15735TIP3    H168696   4.429   4.445   1.818 -0.5266 -0.2120  1.4418
15735TIP3    H268697   4.503   4.565   1.873  0.0937 -0.4093  1.0345
15736TIP3   OH268698   5.854   1.264  15.936 -0.1334 -0.4343  0.3403
15736TIP3    H168699   5.842   1.349  15.893 -1.7852  0.0012  1.6016
15736TIP3    H268700   5.787   1.262  16.004  0.3014 -2.4957  0.7466
15737TIP3   OH268701   3.113   6.237   3.262 -0.2734 -0.1663 -0.0074
15737TIP3    H168702   3.092   6.150   3.228  1.8340 -0.3557 -0.9277
15737TIP3    H268703   3.172   6.220   3.336 -1.0220  0.4230  0.7194
15738TIP3   OH268704   4.003   6.603   3.578  0.1359  0.4900 -0.5892
15738TIP3    H168705   4.018   6.596   3.484 -2.0980 -1.1653 -0.8659
15738TIP3    H268706   3.950   6.682   3.588  0.6846  0.8739 -0.6542
15739TIP3   OH268707   2.186   2.846  16.476  0.1620  0.0426 -0.1885
15739TIP3    H168708   2.163   2.932  16.442  1.4208 -0.3822 -2.2172
15739TIP3    H268709   2.129   2.785  16.429  0.1970 -0.3388  0.2598
15740TIP3   OH268710   5.983   1.029  12.478  0.2279  0.1699 -0.2357
15740TIP3    H168711   5.946   0.945  12.449  0.6572  0.1543 -0.7462
15740TIP3    H268712   6.063   1.039  12.427  1.5372 -0.3269  1.6542
15741TIP3   OH268713   4.278   5.015   4.613  0.1805  0.1045  0.2059
15741TIP3    H168714   4.219   4.992   4.685 -0.3909  3.5105  0.9082
15741TIP3    H268715   4.353   4.957   4.624 -0.1409  0.1872  3.2405
15742TIP3   OH268716   1.233   3.462  12.081  0.1753  0.4972  0.8965
15742TIP3    H168717   1.176   3.392  12.112 -0.5604  1.0032  0.7064
15742TIP3    H268718   1.201   3.540  12.127  0.1805  0.9338  0.1597
15743TIP3   OH268719   2.806   0.587   5.113  0.2929  0.5483  0.2663
15743TIP3    H168720   2.755   0.521   5.159 -0.1819  2.4698  2.5827
15743TIP3    H268721   2.751   0.614   5.040  0.3947 -1.4047 -0.5631
15744TIP3   OH268722   5.520   1.539  16.845  0.9587  0.0515 -0.0747
15744TIP3    H168723   5.490   1.561  16.934 -0.3768  0.2470 -0.5645
15744TIP3    H268724   5.548   1.623  16.808 -1.2664  0.4979 -0.8587
15745TIP3   OH268725   5.505   0.700  15.399  0.1073 -0.5948 -0.8066
15745TIP3    H168726   5.481   0.644  15.326  1.7271 -1.1288 -0.9318
15745TIP3    H268727   5.537   0.640  15.466 -0.1393  0.0025 -0.1525
15746TIP3   OH268728   3.218   6.504   3.199  0.7950 -0.0199  0.2536
15746TIP3    H168729   3.245   6.537   3.285 -0.6992  0.3797  0.5858
15746TIP3    H268730   3.171   6.423   3.219  0.5913 -0.0105 -0.1965
15747TIP3   OH268731   6.307   3.457   2.447  0.2221  0.9045  0.2240
15747TIP3    H168732   6.386   3.424   2.404  0.2761 -0.6641  1.4965
15747TIP3    H268733   6.293   3.398   2.521 -0.5194  2.8886  1.7010
15748TIP3   OH268734   4.529   4.178  15.373  0.2316 -1.1198  0.3442
15748TIP3    H168735   4.472   4.139  15.440 -2.3179  1.5999 -0.1667
15748TIP3    H268736   4.474   4.184  15.295  1.1148  1.8202 -0.1009
15749TIP3   OH268737   2.962   0.750   4.381 -0.1742 -0.4697  0.3050
15749TIP3    H168738   2.907   0.672   4.373  0.0445 -0.4098 -2.1356
15749TIP3    H268739   2.907   0.822   4.349  0.0567  0.2105  1.3864
15750TIP3   OH268740   5.822   3.673   4.479 -0.5668 -0.3195 -0.1400
15750TIP3    H168741   5.858   3.585   4.488 -0.0362 -0.1831 -0.8675
15750TIP3    H268742   5.898   3.730   4.468 -0.7639  0.5701  2.7231
15751TIP3   OH268743   6.136   3.864  15.454 -0.2918  0.2069 -0.5487
15751TIP3    H168744   6.085   3.880  15.374  1.5209  0.7570 -1.6261
15751TIP3    H268745   6.086   3.797  15.500 -0.9017 -0.8223 -2.6159
15752TIP3   OH268746   5.012   0.887   5.457 -0.6613  0.1873  0.1242
15752TIP3    H168747   4.931   0.844   5.430  0.4926 -0.8179 -1.8125
15752TIP3    H268748   5.026   0.955   5.391  0.9287 -0.7220 -0.4917
15753TIP3   OH268749   2.909   1.789   0.733 -0.2115  0.2642  0.6195
15753TIP3    H168750   2.869   1.871   0.703 -0.4615  0.2055  0.7918
15753TIP3    H268751   2.996   1.814   0.763  0.3188  0.2154 -0.8403
15754TIP3   OH268752   3.130   1.413   1.883 -0.1672  0.2777  0.3359
15754TIP3    H168753   3.052   1.455   1.845 -0.9711 -0.7823  0.7682
15754TIP3    H268754   3.153   1.345   1.819 -0.0354  0.1134  0.5591
15755TIP3   OH268755   0.894   2.084   3.246  0.1054 -0.6128 -0.2951
15755TIP3    H168756   0.810   2.128   3.228  0.0503  0.1579  1.7550
15755TIP3    H268757   0.942   2.147   3.299  1.0356 -2.0471  0.5531
15756TIP3   OH268758   4.034   1.397  15.697 -0.0868  0.2284 -0.0008
15756TIP3    H168759   4.012   1.455  15.624  2.8344  1.0757 -0.2786
15756TIP3    H268760   3.960   1.406  15.758 -2.1173  0.2382 -2.3689
15757TIP3   OH268761   6.539   2.677   3.238  0.6062  0.3739  0.0895
15757TIP3    H168762   6.445   2.658   3.246  0.7511 -0.0744  0.7583
15757TIP3    H268763   6.580   2.592   3.225  0.7419  0.7472 -2.1299
15758TIP3   OH268764   4.185   2.492   2.175  0.3735 -0.3715  0.3828
15758TIP3    H168765   4.133   2.461   2.249 -0.1404  1.8545  0.9884
15758TIP3    H268766   4.122   2.537   2.119  0.8093 -1.8153 -1.3101
15759TIP3   OH268767   5.163   1.279  10.812 -0.7603  0.5105 -0.0651
15759TIP3    H168768   5.087   1.326  10.778 -0.9564  0.6805  0.5947
15759TIP3    H268769   5.229   1.347  10.827 -0.0978  0.2273 -1.6460
15760TIP3   OH268770   2.936   4.517  16.217  0.6907 -0.2850  0.2566
15760TIP3    H168771   2.945   4.428  16.251  1.1362  0.4951  2.3134
15760TIP3    H268772   2.873   4.559  16.276  0.0324  0.5842 -1.0535
15761TIP3   OH268773   3.307   3.264  13.636  0.2758 -0.5348 -0.0242
15761TIP3    H168774   3.268   3.216  13.709 -0.4044 -1.3103 -0.8849
15761TIP3    H268775   3.312   3.200  13.565 -0.6903  0.6669 -1.1960
15762TIP3   OH268776   6.323   6.365   0.498  0.2407 -0.0735 -0.6038
15762TIP3    H168777   6.286   6.431   0.440 -0.7935 -0.4279 -0.3541
15762TIP3    H268778   6.269   6.370   0.577 -0.1242 -1.5218 -0.7594
15763TIP3   OH268779   6.064   3.934   1.091 -0.2272  0.3508  0.3016
15763TIP3    H168780   5.985   3.934   1.037 -0.3802  0.4878  0.5276
15763TIP3    H268781   6.043   3.878   1.165 -0.5702  1.4221  1.0319
15764TIP3   OH268782   0.483   3.294   5.516 -0.0362  0.1339  0.3848
15764TIP3    H168783   0.446   3.349   5.447 -1.8511 -1.0878  0.3469
15764TIP3    H268784   0.577   3.294   5.499 -0.5210 -0.8764 -2.6595
15765TIP3   OH268785   3.376   3.066   0.642  0.1394  0.8355  0.2836
15765TIP3    H168786   3.402   2.993   0.698  1.0482  0.3372 -0.7435
15765TIP3    H268787   3.378   3.143   0.698  0.0669  0.1993  1.1574
15766TIP3   OH268788   4.454   5.782  13.700  0.3631  0.1115  0.0142
15766TIP3    H168789   4.408   5.742  13.626  0.8366 -0.0106 -0.2145
15766TIP3    H268790   4.545   5.789  13.671  0.8209 -1.1608  1.0698
15767TIP3   OH268791   6.688   5.839  12.699  0.9438 -0.3702 -0.0414
15767TIP3    H168792   6.713   5.865  12.610  1.5814  0.6047  0.4141
15767TIP3    H268793   6.761   5.867  12.754  0.6415 -1.1483  0.7713
15768TIP3   OH268794   2.372   4.817   2.602 -0.2766 -0.2098  0.3942
15768TIP3    H168795   2.291   4.866   2.616 -0.1151 -0.0307  0.7297
15768TIP3    H268796   2.437   4.885   2.584 -0.6802 -0.4979 -2.2983
15769TIP3   OH268797   1.622   1.392   1.466  0.2550  0.4768  0.3147
15769TIP3    H168798   1.627   1.358   1.555 -1.2360  1.3677  0.7537
15769TIP3    H268799   1.605   1.486   1.477 -3.0019  0.0995 -0.8754
15770TIP3   OH268800   1.197   1.787  16.822  0.1887 -0.1615  1.0614
15770TIP3    H168801   1.146   1.860  16.857 -1.7628  0.5453 -2.9424
15770TIP3    H268802   1.155   1.709  16.857 -2.7264  0.4691 -0.8116
15771TIP3   OH268803   1.229   2.620  12.676  0.1202  0.1283  0.1886
15771TIP3    H168804   1.316   2.659  12.672 -0.0875  0.4127 -1.7352
15771TIP3    H268805   1.203   2.629  12.768  2.3945 -0.6127  0.9376
15772TIP3   OH268806   0.217   0.931   3.389 -0.9035 -0.0455 -0.3940
15772TIP3    H168807   0.304   0.972   3.382 -0.5280 -0.8458 -0.4099
15772TIP3    H268808   0.218   0.861   3.324 -1.9921  0.6870 -1.2283
15773TIP3   OH268809   4.535   1.546  15.574 -0.2228 -0.5674 -0.4953
15773TIP3    H168810   4.513   1.636  15.553 -0.3657 -0.9322 -1.9803
15773TIP3    H268811   4.451   1.503  15.591 -0.4935 -1.2859 -3.4123
15774TIP3   OH268812   0.599   2.984   2.038  0.0955 -0.0186 -0.5171
15774TIP3    H168813   0.544   2.911   2.068  2.8544 -1.3489  1.5507
15774TIP3    H268814   0.679   2.942   2.007  0.9713  2.0442 -1.1371
15775TIP3   OH268815   1.070   1.769  11.467 -0.9194 -0.1381 -0.1964
15775TIP3    H168816   1.056   1.855  11.507 -0.1390 -0.4885  0.8899
15775TIP3    H268817   1.140   1.784  11.403 -1.6215  0.2720 -0.8718
15776TIP3   OH268818   1.148   4.019   1.347 -0.2918 -0.7951  0.1859
15776TIP3    H168819   1.207   4.035   1.421 -0.2055 -0.6080  0.0785
15776TIP3    H268820   1.112   3.932   1.363  0.9102 -1.4172 -0.3539
15777TIP3   OH268821   2.440   0.726  12.105  0.1958  0.2486  0.2260
15777TIP3    H168822   2.371   0.661  12.088 -0.4284  0.8873  0.2960
15777TIP3    H268823   2.403   0.809  12.075  1.2235  0.4807 -0.4173
15778TIP3   OH268824   3.819   3.985   3.792  0.3752 -0.3937  0.0745
15778TIP3    H168825   3.876   4.011   3.720  1.6795  1.4359  1.7018
15778TIP3    H268826   3.855   3.903   3.824  1.1103 -0.0815  0.0468
15779TIP3   OH268827   6.021   4.120   3.502  0.3075 -0.0596 -0.0219
15779TIP3    H168828   5.990   4.182   3.569  0.6205 -1.0659  1.0787
15779TIP3    H268829   6.030   4.173   3.423 -0.5752  1.0483  0.6006
15780TIP3   OH268830   1.668   5.808   1.247 -0.2585  0.0809  0.3242
15780TIP3    H168831   1.697   5.895   1.219 -1.4153 -0.5740 -3.1410
15780TIP3    H268832   1.573   5.810   1.235 -0.2867 -1.6575  0.2154
15781TIP3   OH268833   1.412   2.218  16.421 -0.1967 -0.4523  0.1887
15781TIP3    H168834   1.405   2.134  16.466  0.2031  0.0944  1.3178
15781TIP3    H268835   1.416   2.282  16.492 -0.3912  0.5086 -0.6557
15782TIP3   OH268836   2.982   3.572  14.874 -0.4501 -0.1830  0.0084
15782TIP3    H168837   3.078   3.580  14.878 -0.5603  1.4582  0.0239
15782TIP3    H268838   2.955   3.641  14.813 -1.4885 -1.8308 -1.4070
15783TIP3   OH268839   0.291   0.391  14.411 -0.2135  0.0192  0.4078
15783TIP3    H168840   0.216   0.392  14.471 -0.9156 -1.5262 -0.4243
15783TIP3    H268841   0.260   0.346  14.333  1.7977 -1.3342  0.3331
15784TIP3   OH268842   1.367   0.312  12.198 -0.3299 -0.1156  0.2494
15784TIP3    H168843   1.352   0.330  12.290  1.4357 -0.9876  0.7135
15784TIP3    H268844   1.458   0.285  12.192  0.7902  3.7413 -2.3075
15785TIP3   OH268845   6.199   5.466  12.459  0.4646 -1.1310  0.1643
15785TIP3    H168846   6.134   5.449  12.391  2.0883 -1.7372 -1.2752
15785TIP3    H268847   6.148   5.476  12.539 -1.7166  2.1710 -1.5230
15786TIP3   OH268848   1.759   6.478  12.268  0.0385 -0.1649 -0.5710
15786TIP3    H168849   1.734   6.570  12.260  0.8797  0.2962  1.5706
15786TIP3    H268850   1.854   6.481  12.283  0.3303 -1.4925 -2.0818
15787TIP3   OH268851   3.084   4.613  14.289 -0.5818 -0.2971  0.1239
15787TIP3    H168852   3.156   4.662  14.329 -0.3234 -1.6570  1.3282
15787TIP3    H268853   3.050   4.673  14.221  1.5355  0.4271 -0.3416
15788TIP3   OH268854   6.162   0.988  16.954 -0.5076  0.0483 -0.1813
15788TIP3    H168855   6.137   1.068  17.000  0.4704  0.6292 -0.6371
15788TIP3    H268856   6.186   0.927  17.024  2.0825  1.3041  0.1049
15789TIP3   OH268857   0.757   5.956  15.894 -0.3698 -0.0233 -0.2299
15789TIP3    H168858   0.772   5.863  15.876 -1.6142 -0.2159 -0.3332
15789TIP3    H268859   0.795   5.971  15.980  0.8076 -0.3666 -0.6752
15790TIP3   OH268860   4.030   1.431  13.908 -0.9135  0.9390 -0.0507
15790TIP3    H168861   3.946   1.400  13.943  0.3959 -1.4774  1.1046
15790TIP3    H268862   4.043   1.378  13.829  0.7073 -0.5777  1.1945
15791TIP3   OH268863   5.123   2.037  14.594  0.1708  0.2098  0.5822
15791TIP3    H168864   5.183   1.978  14.549  0.1745  0.4611  0.2574
15791TIP3    H268865   5.180   2.094  14.646  0.2414  0.7004 -0.0240
15792TIP3   OH268866   3.873   6.635  10.238 -0.3373 -0.1366 -0.2184
15792TIP3    H168867   3.960   6.673  10.249  0.3211 -1.9089  1.0095
15792TIP3    H268868   3.888   6.560  10.180 -1.3654  0.5820 -1.4386
15793TIP3   OH268869   4.504   6.230  14.235 -0.1405 -0.0849 -0.1329
15793TIP3    H168870   4.551   6.153  14.204 -1.0186 -0.1560 -1.3125
15793TIP3    H268871   4.434   6.195  14.290  1.0906  0.0184  1.5612
15794TIP3   OH268872   4.918   0.494   0.522 -0.6402  0.5600  0.4391
15794TIP3    H168873   4.888   0.530   0.439  0.8287 -0.7829 -0.7266
15794TIP3    H268874   4.839   0.479   0.573 -1.8351 -1.3279 -1.8812
15795TIP3   OH268875   0.764   3.997  16.685  0.4235  0.3589 -0.4821
15795TIP3    H168876   0.714   3.930  16.638  2.6336 -1.6132 -0.1326
15795TIP3    H268877   0.713   4.014  16.764 -0.1915 -0.9170 -0.5844
15796TIP3   OH268878   2.782   5.015  13.273  0.8756 -0.6702 -0.0914
15796TIP3    H168879   2.822   5.005  13.187  0.7679  2.7761 -0.6056
15796TIP3    H268880   2.688   5.020  13.256  0.4755 -4.2400  0.6911
15797TIP3   OH268881   1.146   1.699   5.238 -0.4616 -0.2898  0.2878
15797TIP3    H168882   1.133   1.662   5.325 -1.7855  0.1455  0.2847
15797TIP3    H268883   1.174   1.625   5.184  0.0525 -0.6220  1.0044
15798TIP3   OH268884   6.767   0.574  15.559 -0.2005  0.1183  0.5578
15798TIP3    H168885   6.719   0.574  15.477  1.0466  1.8380 -0.1996
15798TIP3    H268886   6.859   0.574  15.533  0.2068  1.2558  1.9538
15799TIP3   OH268887   4.141   6.609  15.753  0.0129  0.0066  0.8593
15799TIP3    H168888   4.104   6.525  15.723 -0.9869  0.4476  0.8560
15799TIP3    H268889   4.099   6.625  15.837 -2.1341  1.9918 -0.5136
15800TIP3   OH268890   6.696   0.649   4.719 -0.2651  0.1556  0.4503
15800TIP3    H168891   6.740   0.715   4.772  1.3907 -0.9151  0.4396
15800TIP3    H268892   6.701   0.683   4.630 -1.0775  0.8874  0.6712
15801TIP3   OH268893   5.593   4.442  10.394  0.1186 -0.3585 -0.5090
15801TIP3    H168894   5.660   4.374  10.387 -0.2344 -0.5428 -2.0635
15801TIP3    H268895   5.596   4.488  10.311 -0.7645  0.4999 -0.0780
15802TIP3   OH268896   2.237   4.460  12.339  0.1671 -0.5544 -0.2871
15802TIP3    H168897   2.232   4.364  12.331  1.8977 -0.6436 -0.4417
15802TIP3    H268898   2.282   4.488  12.260 -0.2384  0.3971 -0.1851
15803TIP3   OH268899   0.993   3.352   2.531 -0.2468 -0.2474 -0.0037
15803TIP3    H168900   0.911   3.321   2.492  0.1009 -1.5618  0.2736
15803TIP3    H268901   0.965   3.401   2.608 -0.7692 -1.3581  0.5410
15804TIP3   OH268902   5.549   2.986   1.274 -0.5310  0.4303 -0.3649
15804TIP3    H168903   5.567   2.925   1.346  3.1648  2.0110  0.1624
15804TIP3    H268904   5.585   2.943   1.196 -0.1840  0.8238 -0.4247
15805TIP3   OH268905   4.073   3.457   5.241  0.7153 -0.6363  0.5589
15805TIP3    H168906   4.133   3.391   5.275  1.4333 -0.1250  0.3027
15805TIP3    H268907   4.008   3.469   5.311  1.9378  0.0953  1.5952
15806TIP3   OH268908   2.868   0.068  12.639  0.1496 -0.1955 -0.1057
15806TIP3    H168909   2.845   0.120  12.563  0.9608  1.8966  1.0186
15806TIP3    H268910   2.824   0.112  12.712  0.7440 -1.1722  0.8499
15807TIP3   OH268911   5.513   4.270  14.354  0.3698  0.1425  0.1725
15807TIP3    H168912   5.519   4.297  14.262  0.5306  1.0637  0.4413
15807TIP3    H268913   5.577   4.326  14.399 -0.6461  0.6128  1.0425
15808TIP3   OH268914   1.758   1.767   0.272  0.1686  0.4678  0.3859
15808TIP3    H168915   1.773   1.836   0.336 -2.6190  0.6442  0.8932
15808TIP3    H268916   1.723   1.813   0.195  1.7540  0.0364 -0.6078
15809TIP3   OH268917   0.572   5.464   4.424 -0.1802 -1.2899 -0.1970
15809TIP3    H168918   0.559   5.395   4.359 -1.5522 -1.6109  0.3995
15809TIP3    H268919   0.626   5.423   4.492  0.3332 -1.2916 -0.6098
15810TIP3   OH268920   2.095   0.407  12.734 -0.2084  0.1486  0.4540
15810TIP3    H168921   2.182   0.447  12.731 -0.2049  0.0597 -1.5985
15810TIP3    H268922   2.036   0.478  12.706 -0.7520  0.1012  1.4752
15811TIP3   OH268923   4.606   1.712  13.364  0.1984  0.0041 -0.4546
15811TIP3    H168924   4.511   1.725  13.360  0.1211 -0.8288 -1.7326
15811TIP3    H268925   4.621   1.671  13.449 -0.4388  1.2383  0.2698
15812TIP3   OH268926   2.175   0.871  17.278  0.3522  0.1886  0.0225
15812TIP3    H168927   2.210   0.811  17.211 -0.6967 -1.6983  1.1211
15812TIP3    H268928   2.253   0.911  17.317  1.1586 -1.4645  0.1567
15813TIP3   OH268929   1.597   1.570  16.822 -0.4332  0.5642 -0.1906
15813TIP3    H168930   1.558   1.526  16.898 -1.2939  1.4191 -0.1227
15813TIP3    H268931   1.614   1.500  16.760  2.3048 -0.4634  1.6121
15814TIP3   OH268932   5.114   2.570  12.887 -0.2988  0.6267 -0.1255
15814TIP3    H168933   5.024   2.541  12.872  0.2145 -0.2309 -1.5504
15814TIP3    H268934   5.114   2.662  12.861 -0.4815  0.3196 -1.2028
15815TIP3   OH268935   6.323   0.731   5.410  0.0104 -0.2341  0.0562
15815TIP3    H168936   6.299   0.733   5.503 -0.8879 -0.5736 -0.1620
15815TIP3    H268937   6.267   0.797   5.370  0.4296 -0.0584 -0.2401
15816TIP3   OH268938   3.473   2.353   5.817 -0.5518 -0.1511  0.7669
15816TIP3    H168939   3.508   2.430   5.773 -1.4803  0.1435  0.5273
15816TIP3    H268940   3.476   2.284   5.751 -0.0337 -0.2341  0.8772
15817TIP3   OH268941   4.333   1.336  10.471 -0.5076 -1.5831 -0.4983
15817TIP3    H168942   4.409   1.368  10.521 -2.9012  0.1685  2.1347
15817TIP3    H268943   4.335   1.241  10.483  0.9798 -1.5095 -0.0288
15818TIP3   OH268944   5.530   3.423  15.986 -0.1066 -0.4634  0.0150
15818TIP3    H168945   5.553   3.358  16.052  0.0023  0.4034  0.8281
15818TIP3    H268946   5.602   3.485  15.986 -1.1030  0.7165  0.6039
15819TIP3   OH268947   1.592   3.385  15.593  0.7536 -0.2026 -0.2564
15819TIP3    H168948   1.677   3.425  15.610  0.3178 -0.0329  1.6586
15819TIP3    H268949   1.532   3.428  15.654 -0.3635 -1.5161 -0.3873
15820TIP3   OH268950   2.898   6.595  16.914 -0.2726  0.2029 -0.4496
15820TIP3    H168951   2.855   6.610  16.829 -0.3167 -0.6597 -0.5866
15820TIP3    H268952   2.956   6.520  16.898 -1.5839 -1.0748  0.7379
15821TIP3   OH268953   3.396   4.774  11.134  0.6510 -0.2939  0.1506
15821TIP3    H168954   3.335   4.841  11.165 -1.4745 -2.6634  1.3129
15821TIP3    H268955   3.388   4.777  11.038  0.1219  0.6825  0.2160
15822TIP3   OH268956   1.227   4.481   2.662 -0.4634 -0.6555 -0.1825
15822TIP3    H168957   1.181   4.438   2.591 -0.0959 -1.3305 -0.0112
15822TIP3    H268958   1.159   4.531   2.707 -0.8453 -0.8614 -0.5251
15823TIP3   OH268959   5.802   2.248   4.860  0.1341 -0.1720 -0.3053
15823TIP3    H168960   5.787   2.329   4.812 -0.3049  0.4564  0.8737
15823TIP3    H268961   5.789   2.179   4.794  1.6144  0.7259 -1.5780
15824TIP3   OH268962   0.787   6.674  14.597  0.1699 -0.1088  0.0046
15824TIP3    H168963   0.726   6.617  14.644  1.5475  0.3926  2.5095
15824TIP3    H268964   0.857   6.691  14.661  1.8930  0.9622 -2.1216
15825TIP3   OH268965   5.675   2.807  14.493  0.1258 -0.2675 -0.1587
15825TIP3    H168966   5.637   2.838  14.574 -0.7575  0.6682 -0.9149
15825TIP3    H268967   5.618   2.736  14.464 -0.2661  0.2222 -0.5909
15826TIP3   OH268968   6.457   1.686  13.951  0.3457  0.0940  0.4743
15826TIP3    H168969   6.462   1.620  14.020 -0.4343  0.9466  1.3791
15826TIP3    H268970   6.509   1.760  13.984 -1.1582  1.0400  0.7880
15827TIP3   OH268971   3.199   0.672  14.715 -0.1525  0.8036  0.0995
15827TIP3    H168972   3.109   0.647  14.693  0.1530 -0.2082 -0.0256
15827TIP3    H268973   3.215   0.631  14.800  0.7746 -0.4994 -0.6796
15828TIP3   OH268974   5.468   0.661  16.081  0.1388  0.1941  0.9846
15828TIP3    H168975   5.510   0.687  16.163  0.5743  1.8096  0.2647
15828TIP3    H268976   5.536   0.674  16.015 -0.3076 -0.8239  0.3171
15829TIP3   OH268977   4.570   4.738  12.181 -0.0484 -0.2491 -0.4232
15829TIP3    H168978   4.552   4.831  12.168 -0.2877 -0.1101  0.7665
15829TIP3    H268979   4.654   4.737  12.226  0.1292 -0.6234 -0.7679
15830TIP3   OH268980   3.464   0.011  10.461  0.9115  0.1399  0.3529
15830TIP3    H168981   3.499   0.073  10.526  0.6881 -0.0193  0.6297
15830TIP3    H268982   3.540  -0.017  10.410  1.3137 -0.7773  1.4291
15831TIP3   OH268983   4.782   1.685   2.705  0.5557  0.8724 -0.1740
15831TIP3    H168984   4.856   1.724   2.752  0.4907 -0.3604  0.9878
15831TIP3    H268985   4.775   1.737   2.625  4.0517 -0.3493 -1.3848
15832TIP3   OH268986   1.165   0.755  16.868  0.4729 -0.7148  0.2029
15832TIP3    H168987   1.129   0.843  16.883 -1.0476 -0.8680 -2.2496
15832TIP3    H268988   1.219   0.738  16.945 -0.9708  1.4714  1.7677
15833TIP3   OH268989   3.979   2.084  14.249 -0.5136 -0.0414 -0.8339
15833TIP3    H168990   3.905   2.134  14.216 -1.3246 -1.4208 -1.1386
15833TIP3    H268991   3.941   2.002  14.281  0.8699 -0.7837 -1.0254
15834TIP3   OH268992   2.177   3.721  14.779  0.5292 -0.3180 -0.0624
15834TIP3    H168993   2.160   3.806  14.738 -0.5280  1.0663  3.1306
15834TIP3    H268994   2.097   3.670  14.764  0.1730  0.1549  0.2332
15835TIP3   OH268995   3.976   1.892  12.567  0.3660  0.2962  0.0207
15835TIP3    H168996   3.898   1.868  12.516 -0.6909  0.5352  1.4823
15835TIP3    H268997   4.049   1.851  12.521 -0.6824 -0.2946 -1.1309
15836TIP3   OH268998   2.754   0.090   3.125  0.2830 -0.4016  0.3639
15836TIP3    H168999   2.706   0.173   3.119 -1.8933 -1.6509 -0.1301
15836TIP3    H269000   2.701   0.036   3.184  0.6697 -2.0834 -0.7867
15837TIP3   OH269001   6.502   6.285  17.122  0.2004  0.4198  0.0938
15837TIP3    H169002   6.543   6.320  17.043  0.6725  2.4303  1.2046
15837TIP3    H269003   6.575   6.246  17.171  0.2115  0.7699  0.3618
15838TIP3   OH269004   3.997   3.606   4.886  0.2730  0.5261 -0.0549
15838TIP3    H169005   3.961   3.654   4.812  1.9556  1.4874 -0.2796
15838TIP3    H269006   4.092   3.616   4.877  0.5383 -0.3199  1.5846
15839TIP3   OH269007   2.571   2.517  13.663  0.5107  0.6120 -0.6156
15839TIP3    H169008   2.590   2.470  13.744 -2.9389  0.4161  0.1653
15839TIP3    H269009   2.543   2.604  13.692  1.6899  1.3840 -1.7531
15840TIP3   OH269010   6.264   0.487  12.669 -0.2180  0.3326 -0.5864
15840TIP3    H169011   6.249   0.550  12.740  0.9970  2.9248 -2.5503
15840TIP3    H269012   6.207   0.517  12.598  0.6034 -0.6205 -1.6652
15841TIP3   OH269013   2.523   5.640   5.397 -0.2202  0.3575 -0.0617
15841TIP3    H169014   2.562   5.718   5.437 -0.4907 -0.0079  0.9390
15841TIP3    H269015   2.478   5.673   5.319  1.2618  0.9190 -0.7012
15842TIP3   OH269016   4.670   2.504  16.224 -0.5073 -0.3566 -0.7817
15842TIP3    H169017   4.614   2.571  16.264 -2.0887 -1.6162 -0.8218
15842TIP3    H269018   4.650   2.510  16.130 -0.0798 -0.3514 -0.8714
15843TIP3   OH269019   6.180   2.676   5.836 -0.2015 -0.4763  0.5137
15843TIP3    H169020   6.163   2.750   5.778 -0.6634 -1.4031 -0.5491
15843TIP3    H269021   6.202   2.716   5.920  2.3169  0.9169 -0.7646
15844TIP3   OH269022   5.440   5.095  16.267  0.0573 -0.0284 -0.0229
15844TIP3    H169023   5.512   5.115  16.207  1.3915 -0.9600  1.2161
15844TIP3    H269024   5.408   5.010  16.238 -0.8053  0.5596 -0.8128
15845TIP3   OH269025   1.982   2.555  17.010  0.3812  0.4583 -0.0513
15845TIP3    H169026   2.029   2.561  16.927  0.6083  0.4913  0.0818
15845TIP3    H269027   1.987   2.463  17.035 -2.9998 -0.3360 -2.0140
15846TIP3   OH269028   4.122   2.210  16.999 -0.1283  0.3997  0.7304
15846TIP3    H169029   4.101   2.242  17.087  0.7856 -0.7276  1.3755
15846TIP3    H269030   4.075   2.127  16.991  1.0938 -0.3148  0.7931
15847TIP3   OH269031   4.541   4.581  13.896 -0.1224  0.0534  0.0571
15847TIP3    H169032   4.584   4.622  13.821  2.4875  0.8688  1.9139
15847TIP3    H269033   4.532   4.489  13.871  0.4333  0.3706 -1.3819
15848TIP3   OH269034   6.293   0.147   0.067 -0.4018 -0.1059 -0.3182
15848TIP3    H169035   6.274   0.230   0.021 -0.4988  0.0604  0.0221
15848TIP3    H269036   6.303   0.172   0.158  0.8590 -0.2911 -0.4004
15849TIP3   OH269037   5.960   1.025  15.259  0.0499 -0.2761  0.2704
15849TIP3    H169038   5.924   1.096  15.313  1.2852  0.6041 -0.0501
15849TIP3    H269039   6.054   1.040  15.260  0.1694 -0.8403 -1.3142
15850TIP3   OH269040   4.419   6.312   2.083 -0.2689  0.1392 -0.2010
15850TIP3    H169041   4.499   6.298   2.032 -0.7733 -1.5867 -0.5397
15850TIP3    H269042   4.364   6.367   2.027  0.8312  1.7171  0.2183
15851TIP3   OH269043   0.616   0.149   1.004 -0.6293  0.1973 -0.0457
15851TIP3    H169044   0.710   0.135   1.008 -0.5403  0.0515 -2.0161
15851TIP3    H269045   0.606   0.234   0.960 -1.3920  0.8385  1.3491
15852TIP3   OH269046   6.601   3.989  16.744  0.2234 -0.3360 -0.2314
15852TIP3    H169047   6.574   3.904  16.707  0.4722 -0.6482  0.2988
15852TIP3    H269048   6.695   3.980  16.758  0.3058  0.1459 -0.4641
15853TIP3   OH269049   2.405   2.131  17.219 -0.5985 -0.0755 -0.1003
15853TIP3    H169050   2.357   2.063  17.265 -0.1583 -0.2608  0.0915
15853TIP3    H269051   2.445   2.086  17.144 -2.5190  0.5205 -1.5012
15854TIP3   OH269052   3.014   5.218  15.500  0.3360 -0.1087 -0.1560
15854TIP3    H169053   3.095   5.195  15.545  0.5911  1.2773  0.0999
15854TIP3    H269054   3.042   5.253  15.415 -0.0066  0.1260 -0.1732
15855TIP3   OH269055   2.474   3.788   2.621 -0.4749 -0.3025 -0.4196
15855TIP3    H169056   2.421   3.725   2.572 -1.5929 -0.0891  0.4842
15855TIP3    H269057   2.510   3.846   2.554  0.5356 -1.8472 -1.2617
15856TIP3   OH269058   0.902   1.316   5.074 -0.0942  0.0283  0.3265
15856TIP3    H169059   0.846   1.239   5.077 -0.1495  0.0693  0.3542
15856TIP3    H269060   0.919   1.337   5.166  2.6159 -1.8942  0.3191
15857TIP3   OH269061   1.040   2.442   3.705 -0.2887 -0.4733  0.3761
15857TIP3    H169062   1.052   2.501   3.630 -3.2924  0.5994  0.6638
15857TIP3    H269063   1.111   2.378   3.696  0.9009  1.0585 -1.9814
15858TIP3   OH269064   0.251   4.572  16.190  0.0689  0.2976 -0.7653
15858TIP3    H169065   0.283   4.496  16.238 -3.4836  0.4174  1.9989
15858TIP3    H269066   0.287   4.647  16.237  0.9959  0.3605 -1.5723
15859TIP3   OH269067   0.612   5.115   3.887  0.3008  0.8318  0.0228
15859TIP3    H169068   0.535   5.101   3.942  0.3358  0.7134  0.0414
15859TIP3    H269069   0.661   5.032   3.892  0.2906  0.8101 -0.2042
15860TIP3   OH269070   2.490   6.338   4.191 -0.2000 -0.4834 -0.1075
15860TIP3    H169071   2.414   6.322   4.136  0.5903 -1.0232 -1.0559
15860TIP3    H269072   2.454   6.375   4.272 -1.4448 -0.5856 -0.6088
15861TIP3   OH269073   5.069   5.108   3.999 -0.4584  0.0157 -0.1734
15861TIP3    H169074   4.984   5.145   4.018  0.2926  0.9295  1.4736
15861TIP3    H269075   5.131   5.179   4.015  0.6856 -0.8583 -0.6028
15862TIP3   OH269076   6.817   4.565  12.884  0.2543  0.5732  0.3276
15862TIP3    H169077   6.769   4.528  12.958 -0.1643  1.5786  0.5690
15862TIP3    H269078   6.788   4.656  12.879  0.3755  0.5604 -0.9937
15863TIP3   OH269079   4.046   3.656  15.023 -0.1220 -0.6628  0.0458
15863TIP3    H169080   4.124   3.704  15.050 -0.7211  0.7841 -0.7727
15863TIP3    H269081   4.072   3.564  15.028  1.0716 -0.2789  1.5188
15864TIP3   OH269082   3.504   6.338   0.941 -0.6106 -0.2757  0.5833
15864TIP3    H169083   3.457   6.262   0.907  0.2820 -0.6791  0.2680
15864TIP3    H269084   3.482   6.340   1.034 -1.4273 -0.3318  0.4024
15865TIP3   OH269085   3.867   3.353   4.985 -0.6164  0.4273 -0.1703
15865TIP3    H169086   3.926   3.425   4.959 -1.2089  1.2197  0.6554
15865TIP3    H269087   3.840   3.376   5.074 -0.0725 -1.3117  0.4554
15866TIP3   OH269088   1.756   3.581  12.253  0.2576  0.2298  0.4111
15866TIP3    H169089   1.843   3.621  12.244  1.0859 -1.2677  1.4571
15866TIP3    H269090   1.708   3.641  12.310  1.5414 -0.3008  2.1111
15867TIP3   OH269091   6.813   1.301   5.771  0.1161 -0.1474  0.9809
15867TIP3    H169092   6.756   1.372   5.801  1.1586  0.3901  1.7307
15867TIP3    H269093   6.783   1.225   5.820 -0.6157 -0.0962  0.6210
15868TIP3   OH269094   6.703   3.972   1.393 -0.3890  0.2945 -0.9006
15868TIP3    H169095   6.672   3.891   1.433 -0.0084  1.1623  1.2092
15868TIP3    H269096   6.660   3.974   1.307 -1.2053 -1.6245 -0.5599
15869TIP3   OH269097   5.537   1.892   0.291 -0.2239 -0.4325  0.6134
15869TIP3    H169098   5.579   1.820   0.338  0.0679 -0.9467 -0.4286
15869TIP3    H269099   5.450   1.898   0.330  0.4433 -0.0424  2.0655
15870TIP3   OH269100   0.077   5.914  14.713  0.4386 -0.2659  0.6745
15870TIP3    H169101   0.020   5.961  14.653  0.4056 -0.4050  0.5956
15870TIP3    H269102   0.165   5.933  14.682  0.3964 -0.9604  0.1093
15871TIP3   OH269103   1.207   2.425  14.570 -0.3300  0.1840  0.4206
15871TIP3    H169104   1.205   2.335  14.537 -0.2148  0.3653 -0.0780
15871TIP3    H269105   1.264   2.472  14.509  1.9334 -0.0399  2.3157
15872TIP3   OH269106   4.218   5.599  13.867  0.0335 -0.3838 -0.0447
15872TIP3    H169107   4.252   5.576  13.781 -1.8721 -1.3484 -0.5759
15872TIP3    H269108   4.158   5.672  13.850  0.2763 -0.0357  0.5855
15873TIP3   OH269109   4.941   2.655  13.828 -0.0703  0.0185  0.4295
15873TIP3    H169110   5.018   2.673  13.776  0.0352  0.5249  0.7616
15873TIP3    H269111   4.870   2.647  13.764  0.0127  0.8771  0.2314
15874TIP3   OH269112   0.307   6.036   1.943  0.0508 -0.5377 -0.6981
15874TIP3    H169113   0.249   6.005   2.014  1.6184  0.3313  1.0058
15874TIP3    H269114   0.259   6.109   1.904 -0.6270 -0.7178 -0.2312
15875TIP3   OH269115   3.912   2.880   0.999  0.1178  0.0907 -0.1025
15875TIP3    H169116   3.867   2.835   0.928 -2.7178  0.7802  1.1661
15875TIP3    H269117   3.887   2.830   1.078 -0.0798  1.6943  0.8667
15876TIP3   OH269118   5.460   5.285   2.517  0.2424 -0.2507  0.0158
15876TIP3    H169119   5.452   5.370   2.475  1.1348  0.0774  0.4757
15876TIP3    H269120   5.431   5.299   2.607  0.4073 -0.4188  0.0981
15877TIP3   OH269121   6.570   5.786   6.012  0.2258  0.6806  0.7003
15877TIP3    H169122   6.515   5.849   5.966  0.5255  0.4009 -0.0466
15877TIP3    H269123   6.514   5.751   6.081 -1.1998 -1.0374 -1.2453
15878TIP3   OH269124   0.562   6.606   6.215  0.5491 -0.3440 -0.3118
15878TIP3    H169125   0.542   6.699   6.217 -2.1624 -0.8843  0.1452
15878TIP3    H269126   0.529   6.576   6.131  0.6349 -1.0377 -0.1024
15879TIP3   OH269127   5.355   0.112   4.106  0.7581  0.0906 -0.0106
15879TIP3    H169128   5.451   0.112   4.104  0.7988 -1.8182  0.5355
15879TIP3    H269129   5.332   0.094   4.197 -0.1247  0.7847 -0.0890
15880TIP3   OH269130   1.716   1.817  11.789 -0.4242  0.0288 -0.1954
15880TIP3    H169131   1.630   1.849  11.763  0.6719  3.9024  0.7390
15880TIP3    H269132   1.764   1.806  11.707 -1.6630 -1.9017 -0.6966
15881TIP3   OH269133   6.019   5.634   5.228  0.4536  0.0341 -0.7916
15881TIP3    H169134   5.980   5.716   5.199 -0.8799  0.3464  1.7823
15881TIP3    H269135   6.058   5.597   5.149 -1.7410  1.5673 -2.6420
15882TIP3   OH269136   1.183   0.396  16.345 -0.6252 -0.3089  0.4101
15882TIP3    H169137   1.140   0.426  16.425  0.6151 -1.7986  1.6659
15882TIP3    H269138   1.252   0.460  16.329 -1.9012  0.8907 -0.4002
15883TIP3   OH269139   0.741   2.706   3.191  0.1472 -0.3662  0.0032
15883TIP3    H169140   0.654   2.740   3.209  0.8585  1.3469  0.3815
15883TIP3    H269141   0.785   2.778   3.145  2.4107  0.1123  2.7527
15884TIP3   OH269142   2.907   0.573   2.692 -0.0042  0.3205 -0.5310
15884TIP3    H169143   2.877   0.500   2.746 -0.4549  0.9120  0.0338
15884TIP3    H269144   2.884   0.548   2.602  1.7237 -1.1599 -0.5908
15885TIP3   OH269145   0.596   2.174   3.795  0.5868 -0.3085 -1.0812
15885TIP3    H169146   0.593   2.096   3.740 -2.5780 -1.5163  0.6937
15885TIP3    H269147   0.504   2.196   3.810  1.4298  1.9292  1.0122
15886TIP3   OH269148   4.554   2.112   5.286 -0.0643 -0.5601 -0.2826
15886TIP3    H169149   4.480   2.052   5.298  0.8984 -1.7219  0.0456
15886TIP3    H269150   4.600   2.110   5.370  1.1272 -0.9767 -0.9178
15887TIP3   OH269151   6.316   3.841   6.065  0.2065  0.2896  0.5959
15887TIP3    H169152   6.242   3.787   6.093  0.3530 -0.2534 -0.0447
15887TIP3    H269153   6.344   3.886   6.144 -1.2746  1.0594  0.6999
15888TIP3   OH269154   3.899   6.808  14.478  0.1046 -0.7916  0.4111
15888TIP3    H169155   3.859   6.833  14.561 -0.3782 -2.6490  0.7501
15888TIP3    H269156   3.966   6.875  14.463 -0.6685  0.2803  1.6465
15889TIP3   OH269157   2.761   5.762   5.058  0.3065  0.5526 -0.8875
15889TIP3    H169158   2.698   5.691   5.058  0.6725  0.2004  0.9940
15889TIP3    H269159   2.837   5.728   5.010  0.2794 -0.1474 -0.4290
15890TIP3   OH269160   5.128   2.253   6.185 -0.3189  0.8572 -0.2593
15890TIP3    H169161   5.143   2.221   6.096 -0.2161 -0.8419  0.3475
15890TIP3    H269162   5.033   2.253   6.195 -0.2546 -2.1275  0.7223
15891TIP3   OH269163   4.340   6.181  14.700 -0.1457 -0.0910  0.4969
15891TIP3    H169164   4.298   6.100  14.670 -1.0746  0.6471 -0.2751
15891TIP3    H269165   4.416   6.190  14.643 -1.1054  0.5509 -0.7306
15892TIP3   OH269166   0.153   5.543  16.601 -0.0557 -0.4954  0.6782
15892TIP3    H169167   0.170   5.450  16.588  0.2265 -0.4218  0.5017
15892TIP3    H269168   0.239   5.584  16.593 -0.3872 -0.0415 -0.8508
15893TIP3   OH269169   0.562   1.106  11.730  0.5383 -0.2151 -0.4269
15893TIP3    H169170   0.605   1.021  11.732  0.4402 -0.3378 -2.5247
15893TIP3    H269171   0.632   1.167  11.705  0.6890  0.3969  1.3946
15894TIP3   OH269172   6.020   4.169   3.807 -0.0890  0.3428  0.0497
15894TIP3    H169173   6.001   4.082   3.843 -0.7559  0.4797  0.0418
15894TIP3    H269174   6.108   4.162   3.771  0.9518  0.4461  2.4763
15895TIP3   OH269175   6.070   5.398   2.007  0.4578  0.3042 -0.4091
15895TIP3    H169176   6.127   5.474   1.994 -0.1812  0.7636 -0.5129
15895TIP3    H269177   5.984   5.426   1.977  0.1551 -0.3754 -0.1965
15896TIP3   OH269178   3.875   3.607   2.523 -0.4832 -0.0770 -0.1254
15896TIP3    H169179   3.914   3.695   2.531  1.5773 -0.6938 -2.5855
15896TIP3    H269180   3.895   3.565   2.607  0.4323  1.0903  0.2724
15897TIP3   OH269181   0.178   6.026   0.247 -0.3614  0.0986  0.2878
15897TIP3    H169182   0.087   6.032   0.276 -0.3908 -0.2196  0.2691
15897TIP3    H269183   0.212   5.948   0.292  0.0113  0.4389  0.5890
15898TIP3   OH269184   5.522   0.523  14.852 -0.3572  0.1669 -0.0277
15898TIP3    H169185   5.571   0.506  14.772 -1.0609 -0.3599 -0.3553
15898TIP3    H269186   5.575   0.586  14.900 -0.5269  1.4431 -1.4805
15899TIP3   OH269187   4.821   3.538  11.366 -0.4071  0.5487  0.4381
15899TIP3    H169188   4.767   3.483  11.421  0.0720 -0.2794  0.0842
15899TIP3    H269189   4.781   3.625  11.372 -3.1993 -0.5077 -1.6668
15900TIP3   OH269190   6.411   0.087   5.256  0.2616 -0.2006 -0.1855
15900TIP3    H169191   6.469   0.013   5.239  0.0915 -0.7064  1.3215
15900TIP3    H269192   6.351   0.055   5.324 -0.7769  0.8274 -0.5950
15901TIP3   OH269193   3.163   6.640  14.485  0.4118 -0.0791 -0.3500
15901TIP3    H169194   3.246   6.601  14.459 -0.6947 -2.2295 -0.7897
15901TIP3    H269195   3.122   6.573  14.541 -1.6551  0.3224 -1.3266
15902TIP3   OH269196   1.445   6.440  12.907  0.6603 -0.2692 -0.0619
15902TIP3    H169197   1.535   6.433  12.939  0.4386 -2.7874  0.1332
15902TIP3    H269198   1.391   6.438  12.986  0.3828 -0.3522 -0.2516
15903TIP3   OH269199   1.651   3.537   5.917 -0.0423  0.6158  0.1745
15903TIP3    H169200   1.681   3.483   5.845 -0.3806  1.4009 -0.5667
15903TIP3    H269201   1.657   3.480   5.994  0.8374 -0.0470 -0.3767
15904TIP3   OH269202   1.926   2.205  15.851 -0.2136  0.0207  0.5166
15904TIP3    H169203   1.858   2.145  15.882 -0.2760 -1.0769 -1.5954
15904TIP3    H269204   1.887   2.292  15.860 -0.7493 -0.3640  2.1077
15905TIP3   OH269205   4.451   4.002   3.141  0.0563  0.0120  0.2942
15905TIP3    H169206   4.497   4.051   3.209 -0.1100  1.6992 -0.7608
15905TIP3    H269207   4.514   3.994   3.070 -0.2301 -0.4933  0.0933
15906TIP3   OH269208   0.553   2.992  14.518  0.5397 -0.0165 -0.3928
15906TIP3    H169209   0.569   2.915  14.464  0.3180 -0.6663  0.4624
15906TIP3    H269210   0.570   3.066  14.460 -0.0333 -0.7084 -1.4408
15907TIP3   OH269211   3.684   1.758   0.364 -0.7282 -0.3335 -0.6343
15907TIP3    H169212   3.597   1.758   0.404 -0.2307  2.0466  0.5535
15907TIP3    H269213   3.726   1.680   0.399 -1.4314  0.0009  1.0538
15908TIP3   OH269214   5.521   3.840  12.082 -0.2259  0.5185 -0.5447
15908TIP3    H169215   5.616   3.843  12.082 -0.1770 -0.7511 -0.3941
15908TIP3    H269216   5.500   3.747  12.080 -1.4351  0.5531  3.9485
15909TIP3   OH269217   5.748   5.120  15.210  0.7574 -0.1783  0.3096
15909TIP3    H169218   5.821   5.173  15.175  1.0959 -0.9175 -0.1240
15909TIP3    H269219   5.672   5.150  15.161  1.4783 -2.2366 -2.1855
15910TIP3   OH269220   4.398   0.287   6.194  0.6247 -0.0233  0.1193
15910TIP3    H169221   4.346   0.241   6.260  1.5220 -0.1607  0.7246
15910TIP3    H269222   4.337   0.298   6.121 -0.7796  1.2978  1.4454
15911TIP3   OH269223   5.768   3.832  11.264  0.1272 -0.2609 -0.2580
15911TIP3    H169224   5.848   3.784  11.243  1.2343  1.4801 -0.0873
15911TIP3    H269225   5.740   3.797  11.349  0.8498 -0.6818 -0.1962
15912TIP3   OH269226   6.698   6.636  12.512 -0.6253 -0.4872 -0.2187
15912TIP3    H169227   6.730   6.725  12.527  1.4497 -0.7095 -3.0647
15912TIP3    H269228   6.605   6.647  12.494 -0.5358  1.0165  0.1415
15913TIP3   OH269229   1.240   6.778  11.297 -0.6664  0.0431 -0.1352
15913TIP3    H169230   1.192   6.837  11.239  0.6642  2.6039  1.2911
15913TIP3    H269231   1.258   6.701  11.243 -2.3432  0.9645 -2.0761
15914TIP3   OH269232   2.600   1.018   4.478 -0.7108 -0.1310  0.0333
15914TIP3    H169233   2.508   0.992   4.480 -0.7463 -0.0819 -0.8136
15914TIP3    H269234   2.648   0.936   4.489 -0.8542 -0.0952  0.9891
15915TIP3   OH269235   5.177   0.754   5.897 -0.1715 -0.4518  0.6333
15915TIP3    H169236   5.131   0.800   5.967 -2.1939 -1.4050 -0.0432
15915TIP3    H269237   5.224   0.684   5.941  0.9818  0.7679  1.3756
15916TIP3   OH269238   4.231   6.443  14.336  0.4472  0.0554 -0.4577
15916TIP3    H169239   4.153   6.489  14.367  1.1924  1.0119  0.0031
15916TIP3    H269240   4.196   6.367  14.289 -0.8203  1.8285 -2.4293
15917TIP3   OH269241   3.443   6.563  17.077 -0.0773  0.0746  0.2974
15917TIP3    H169242   3.454   6.655  17.053 -0.5174 -0.5663 -2.6226
15917TIP3    H269243   3.423   6.564  17.170 -1.0647  3.0017  0.0990
15918TIP3   OH269244   5.049   3.319   1.048  0.3244  0.2020  0.2305
15918TIP3    H169245   5.030   3.411   1.063  2.2634  0.7098 -0.3558
15918TIP3    H269246   4.978   3.289   0.991  0.6816  1.7950 -1.0851
15919TIP3   OH269247   3.474   1.788   4.979 -0.0936  0.3365 -0.2400
15919TIP3    H169248   3.432   1.702   4.975 -0.1649  0.4471 -2.4897
15919TIP3    H269249   3.567   1.770   4.968  0.1651  0.3499  1.7878
15920TIP3   OH269250   6.581   4.098  14.292 -0.0135 -0.3190  0.5140
15920TIP3    H169251   6.658   4.043  14.281  0.7411  1.0257 -1.0643
15920TIP3    H269252   6.530   4.086  14.212 -1.2209 -0.8457  1.3475
15921TIP3   OH269253   4.730   6.794   2.269 -0.0157  0.3095  0.0174
15921TIP3    H169254   4.823   6.793   2.248 -0.1393  1.3870 -0.5958
15921TIP3    H269255   4.686   6.809   2.185 -0.6659  1.5464  0.5676
15922TIP3   OH269256   0.483   5.367   5.842 -0.4779  0.3737 -0.1056
15922TIP3    H169257   0.425   5.376   5.917 -0.1562  0.0867  0.1794
15922TIP3    H269258   0.531   5.286   5.858 -0.3832  0.3277 -0.6035
15923TIP3   OH269259   2.316   4.429   2.066  0.2287  0.0813 -0.2167
15923TIP3    H169260   2.251   4.460   2.004 -0.5051 -0.9166  0.0489
15923TIP3    H269261   2.397   4.425   2.015  0.0066  0.8956 -0.6589
15924TIP3   OH269262   1.807   6.692  17.268  0.2099 -0.5926 -0.3905
15924TIP3    H169263   1.775   6.622  17.211 -1.2836  0.5308 -0.9728
15924TIP3    H269264   1.840   6.759  17.208 -0.1850  0.0417  0.0976
15925TIP3   OH269265   1.223   4.864   3.837 -0.0890  0.7453 -0.1347
15925TIP3    H169266   1.192   4.804   3.905 -0.8777  1.6622  0.3213
15925TIP3    H269267   1.225   4.810   3.757 -1.6186  0.3380  0.0934
15926TIP3   OH269268   5.520   6.171   6.172 -0.6558  0.4936  0.6869
15926TIP3    H169269   5.549   6.258   6.200  0.7729 -0.1222  1.1562
15926TIP3    H269270   5.586   6.111   6.207 -0.2050 -0.5452 -1.8531
15927TIP3   OH269271   1.202   5.514  13.318  0.1522 -0.3801 -0.0833
15927TIP3    H169272   1.155   5.573  13.260 -1.3825  0.8965  2.3869
15927TIP3    H269273   1.291   5.548  13.321 -0.1633  0.4716 -0.4303
15928TIP3   OH269274   5.963   5.020   1.027 -0.3689  0.7492 -0.2744
15928TIP3    H169275   5.952   4.963   0.951 -2.1849  2.6790 -1.4938
15928TIP3    H269276   6.057   5.019   1.045  0.0099 -0.1034 -2.2268
15929TIP3   OH269277   1.835   3.481  13.511  0.1938  0.4624  0.6935
15929TIP3    H169278   1.769   3.428  13.557 -2.1376  1.9577 -0.7885
15929TIP3    H269279   1.840   3.442  13.424 -0.9805  2.1394 -0.1633
15930TIP3   OH269280   4.434   0.997   5.292  0.2845  0.4478  0.2472
15930TIP3    H169281   4.372   0.949   5.347  0.0241  1.4626  0.8598
15930TIP3    H269282   4.519   0.961   5.314  0.0507 -0.0072  0.4160
15931TIP3   OH269283   0.976   4.423   2.498 -0.0336 -0.1602 -0.1718
15931TIP3    H169284   0.930   4.350   2.456 -0.6861 -0.0876  0.4036
15931TIP3    H269285   0.940   4.501   2.457 -0.4007 -0.1062  0.2428
15932TIP3   OH269286   6.467   3.283   0.817  0.1117 -0.4633  0.1551
15932TIP3    H169287   6.546   3.331   0.841  1.1289 -1.7629 -0.5449
15932TIP3    H269288   6.404   3.304   0.886  0.5833  1.7339 -0.0530
15933TIP3   OH269289   2.655   6.455  11.850  0.2743 -0.2449 -0.3383
15933TIP3    H169290   2.651   6.389  11.781 -0.9097 -0.1758 -0.3542
15933TIP3    H269291   2.676   6.406  11.929 -0.2539 -0.5889 -0.4127
15934TIP3   OH269292   3.594   4.339  12.156 -0.5273  0.2596 -0.3174
15934TIP3    H169293   3.685   4.310  12.170 -1.1926 -1.5492  0.4345
15934TIP3    H269294   3.590   4.426  12.196  1.1005  0.7387 -1.1358
15935TIP3   OH269295   4.383   0.172   4.952  0.2476 -0.2312 -0.2644
15935TIP3    H169296   4.291   0.162   4.928  0.3871 -0.4937 -0.6934
15935TIP3    H269297   4.391   0.264   4.977 -0.1142 -0.1901 -0.2905
15936TIP3   OH269298   4.458   5.206  14.850 -0.2379 -0.3768 -0.1756
15936TIP3    H169299   4.458   5.301  14.834  0.3027 -0.6513 -1.9046
15936TIP3    H269300   4.424   5.197  14.939 -2.1002  1.3302 -0.6661
15937TIP3   OH269301   3.517   1.695   4.184 -0.6741 -0.2061 -0.7521
15937TIP3    H169302   3.534   1.638   4.109 -1.6765  0.2719 -1.3568
15937TIP3    H269303   3.571   1.659   4.254  1.3695  0.1767 -2.0760
15938TIP3   OH269304   5.589   4.919  10.752  0.3167 -0.7932 -0.0140
15938TIP3    H169305   5.549   4.889  10.834  1.0618 -0.9750  0.2861
15938TIP3    H269306   5.680   4.891  10.758  0.1474 -1.6131 -1.3247
15939TIP3   OH269307   0.212   1.567   0.437 -0.3232 -0.3992  0.3453
15939TIP3    H169308   0.183   1.551   0.347 -1.6971  0.0291  0.7086
15939TIP3    H269309   0.168   1.500   0.489  0.6891 -0.8190  0.6662
15940TIP3   OH269310   3.337   5.252  10.436 -0.5491 -0.0791  0.8367
15940TIP3    H169311   3.425   5.272  10.405 -1.8658  2.3584 -1.4670
15940TIP3    H269312   3.307   5.181  10.380 -0.8537  0.5705  0.1702
15941TIP3   OH269313   4.805   3.309   2.365  0.5227 -0.1525 -0.4127
15941TIP3    H169314   4.716   3.312   2.330  0.8301  1.4948 -1.1023
15941TIP3    H269315   4.859   3.348   2.296  1.5114  0.6287  0.7917
15942TIP3   OH269316   2.662   1.593  13.605  0.3668  0.4197  0.1817
15942TIP3    H169317   2.594   1.541  13.650  0.9838  1.1325  1.9777
15942TIP3    H269318   2.718   1.624  13.675  2.1204  0.4985 -1.2332
15943TIP3   OH269319   0.719   4.804  13.169 -0.4124 -0.5261 -0.1003
15943TIP3    H169320   0.637   4.758  13.187 -0.6426  0.1840  0.7044
15943TIP3    H269321   0.721   4.875  13.234  1.5358 -1.4153  0.8446
15944TIP3   OH269322   2.333   1.777   2.897  0.4559  0.4127 -0.4456
15944TIP3    H169323   2.320   1.843   2.964 -0.3172  0.6991 -0.8812
15944TIP3    H269324   2.325   1.824   2.814 -4.2231 -0.9257 -0.8627
15945TIP3   OH269325   3.092   3.362   4.164 -0.0696 -1.0650  0.3887
15945TIP3    H169326   3.170   3.310   4.182  0.4456 -0.3494  0.2602
15945TIP3    H269327   3.067   3.338   4.075  0.9152 -0.1805 -0.1529
15946TIP3   OH269328   0.234   4.888  11.458  0.8429 -0.2892  0.0827
15946TIP3    H169329   0.229   4.924  11.370 -0.0833 -0.0375  0.2367
15946TIP3    H269330   0.322   4.913  11.489  0.4280  1.3365 -0.0265
15947TIP3   OH269331   2.330   3.312   5.247  0.5464  0.1105 -0.1875
15947TIP3    H169332   2.399   3.310   5.313 -0.0472  3.6132  0.6520
15947TIP3    H269333   2.366   3.365   5.176 -0.4279  0.0472 -0.7338
15948TIP3   OH269334   6.408   6.120   0.783  0.1993  0.0041 -0.2593
15948TIP3    H169335   6.466   6.125   0.708 -1.4791 -0.7189 -1.6248
15948TIP3    H269336   6.359   6.203   0.782  0.4883  0.1882  0.3070
15949TIP3   OH269337   6.152   4.747  16.856  0.1656  0.4941 -0.4375
15949TIP3    H169338   6.070   4.758  16.808  0.6409  0.2107 -1.3390
15949TIP3    H269339   6.207   4.695  16.797  0.3750 -0.8115  0.8867
15950TIP3   OH269340   2.839   4.827   0.053  0.2328  0.6755 -0.0509
15950TIP3    H169341   2.931   4.819   0.031 -0.0660  1.2638 -1.5355
15950TIP3    H269342   2.827   4.920   0.076 -0.3351  0.9700 -1.4983
15951TIP3   OH269343   4.686   3.843  11.100 -0.2889  0.6727  0.0906
15951TIP3    H169344   4.668   3.870  11.009  1.5743  0.2491 -0.4193
15951TIP3    H269345   4.715   3.923  11.143 -1.2206  0.8842  0.3323
15952TIP3   OH269346   6.563   3.765   2.313  0.0334 -0.3084 -0.0726
15952TIP3    H169347   6.558   3.831   2.383  2.7756  1.8620 -1.8321
15952TIP3    H269348   6.492   3.788   2.253  1.6937  1.8395 -1.2794
15953TIP3   OH269349   4.849   1.862   4.828 -0.8212 -0.0323 -0.2048
15953TIP3    H169350   4.800   1.812   4.893 -0.9099 -1.8492 -1.6213
15953TIP3    H269351   4.926   1.808   4.809 -1.0450  0.2470 -1.9463
15954TIP3   OH269352   5.658   2.122   0.840 -0.5443 -0.0159  0.5051
15954TIP3    H169353   5.632   2.204   0.883 -0.0579 -0.3411  1.4230
15954TIP3    H269354   5.747   2.140   0.808 -0.9990  0.3106 -0.5930
15955TIP3   OH269355   1.548   5.822  12.286  0.0109 -0.6484  0.3055
15955TIP3    H169356   1.602   5.770  12.345  0.6269  1.3511  1.5357
15955TIP3    H269357   1.588   5.808  12.200  0.4941 -1.7596  0.6958
15956TIP3   OH269358   3.947   6.110   1.037  0.1563  0.0767 -0.7071
15956TIP3    H169359   4.041   6.119   1.050  0.4907  0.5585 -3.2746
15956TIP3    H269360   3.919   6.048   1.105  2.0971  0.9052  0.8564
15957TIP3   OH269361   4.053   6.480   3.337 -0.1427 -0.0413  0.1631
15957TIP3    H169362   4.120   6.474   3.405 -0.0213 -1.1923 -0.0592
15957TIP3    H269363   3.989   6.413   3.360 -0.2209 -0.2776 -0.7376
15958TIP3   OH269364   1.166   4.557  15.158 -0.0710 -0.2302  0.1119
15958TIP3    H169365   1.260   4.552  15.141 -0.0942 -0.7208  0.1343
15958TIP3    H269366   1.160   4.610  15.238  0.2323 -0.8710  0.5600
15959TIP3   OH269367   6.162   4.040  12.331  0.0486  0.0617 -0.1267
15959TIP3    H169368   6.221   3.970  12.303  0.4565  0.8783 -1.3445
15959TIP3    H269369   6.099   3.997  12.388 -0.8457 -1.6766 -2.3537
15960TIP3   OH269370   5.568   5.786  10.561 -0.7924 -0.1242 -0.8211
15960TIP3    H169371   5.638   5.849  10.582 -1.0118 -0.2411  0.2783
15960TIP3    H269372   5.614   5.704  10.545 -0.8111 -0.7054  1.9324
15961TIP3   OH269373   4.577   4.099   0.363 -0.7011  0.0217  0.0673
15961TIP3    H169374   4.580   4.123   0.270  0.6460 -3.1195 -0.7880
15961TIP3    H269375   4.504   4.036   0.368 -0.1513 -0.5429  0.9314
15962TIP3   OH269376   5.564   6.325   2.912 -0.4904 -0.2063 -0.0304
15962TIP3    H169377   5.609   6.294   2.990 -1.6468  0.1800  0.8179
15962TIP3    H269378   5.634   6.348   2.850  0.3978 -3.3979 -0.2726
15963TIP3   OH269379   2.721   6.249  17.103  0.0420 -0.1482  0.3995
15963TIP3    H169380   2.812   6.275  17.086  0.5281 -2.1083 -0.1293
15963TIP3    H269381   2.717   6.237  17.198  0.5282 -0.7453  0.3484
15964TIP3   OH269382   4.487   3.694  15.873 -0.1156  0.3705 -0.0983
15964TIP3    H169383   4.542   3.645  15.935  0.0319  0.4090 -0.1994
15964TIP3    H269384   4.513   3.786  15.886  0.8277  0.2555 -1.1300
15965TIP3   OH269385   1.594   6.761   2.005 -0.4307  0.3020  0.1039
15965TIP3    H169386   1.573   6.826   2.071 -1.1021 -1.2589  1.4695
15965TIP3    H269387   1.615   6.682   2.054  1.8627 -0.1295 -1.4614
15966TIP3   OH269388   4.308   2.889  14.804 -0.2472  0.8340 -0.1056
15966TIP3    H169389   4.223   2.871  14.763  0.6210 -1.2842 -0.9976
15966TIP3    H269390   4.356   2.939  14.737  0.1660 -0.2599 -0.6385
15967TIP3   OH269391   1.635   2.785  16.437 -0.4349 -0.2885  0.4935
15967TIP3    H169392   1.574   2.849  16.473 -1.2420 -0.5978 -0.3406
15967TIP3    H269393   1.600   2.763  16.351  1.6437  0.6671 -0.6450
15968TIP3   OH269394   3.913   3.334  14.648  0.1606 -0.3903 -0.0371
15968TIP3    H169395   3.978   3.264  14.659 -1.3900 -1.6310  1.5917
15968TIP3    H269396   3.861   3.331  14.729 -0.8635  1.6884 -0.5851
15969TIP3   OH269397   0.791   5.796   5.231 -0.0049  0.3529  0.8984
15969TIP3    H169398   0.775   5.887   5.204  0.1595  0.0158 -0.3983
15969TIP3    H269399   0.806   5.801   5.325  0.5873  1.7548  0.7455
15970TIP3   OH269400   4.659   1.385  14.403 -0.1442  0.7549  0.6670
15970TIP3    H169401   4.573   1.403  14.367 -0.1025 -0.0255  0.1602
15970TIP3    H269402   4.716   1.377  14.326 -0.1551 -1.4310  0.8630
15971TIP3   OH269403   5.666   4.535  14.254 -0.0539 -0.2868 -0.1540
15971TIP3    H169404   5.717   4.457  14.273 -1.2066 -0.7834  0.8831
15971TIP3    H269405   5.664   4.539  14.158 -1.8591 -2.7431 -0.2405
15972TIP3   OH269406   0.997   2.355  12.233 -0.2428  0.3629 -0.1248
15972TIP3    H169407   0.987   2.348  12.328  1.1809 -0.9932 -0.0572
15972TIP3    H269408   1.050   2.433  12.220  0.8030 -0.2671  0.2895
15973TIP3   OH269409   3.867   3.268   4.230  0.4355  0.8472 -0.4118
15973TIP3    H169410   3.864   3.266   4.134  0.3979  1.3251 -0.4242
15973TIP3    H269411   3.775   3.265   4.257  0.4518  0.5765 -0.3873
15974TIP3   OH269412   5.144   6.227  14.386  0.3925 -0.6483 -0.8426
15974TIP3    H169413   5.205   6.249  14.457 -0.9541 -1.5865  0.6359
15974TIP3    H269414   5.201   6.205  14.312  1.8195  0.5492 -0.1260
15975TIP3   OH269415   4.678   4.506   2.365  0.0657  0.3011 -0.1578
15975TIP3    H169416   4.652   4.561   2.439 -1.3038 -1.0381  0.3792
15975TIP3    H269417   4.762   4.469   2.390  0.2852  0.9792  0.1130
15976TIP3   OH269418   0.494   3.583  12.842 -0.0922 -0.2112  0.0751
15976TIP3    H169419   0.494   3.494  12.878 -1.6368  0.6200  2.2511
15976TIP3    H269420   0.583   3.596  12.812  0.8838 -1.5695  2.2019
15977TIP3   OH269421   3.237   6.314   4.217 -0.2152 -0.4433  0.0366
15977TIP3    H169422   3.173   6.379   4.245 -1.3521 -0.5517 -2.1592
15977TIP3    H269423   3.211   6.234   4.263 -1.9939 -0.6143 -1.2303
15978TIP3   OH269424   2.164   3.332  14.499 -0.3542  0.0375  0.1993
15978TIP3    H169425   2.115   3.277  14.560 -0.8031  0.5132  0.2744
15978TIP3    H269426   2.151   3.291  14.414 -2.5286  1.2363 -0.0956
15979TIP3   OH269427   3.166   2.552  10.722 -0.0768  0.3731  0.4306
15979TIP3    H169428   3.178   2.623  10.658 -1.4927  0.8686  0.7143
15979TIP3    H269429   3.072   2.542  10.729  0.1171 -1.7802  0.1489
15980TIP3   OH269430   4.558   1.859   3.064 -0.1404 -0.1972 -0.2406
15980TIP3    H169431   4.621   1.788   3.055  0.1508  0.1816 -1.3447
15980TIP3    H269432   4.554   1.876   3.158 -1.2355 -2.5733  0.1905
15981TIP3   OH269433   5.253   5.015  11.160  0.6054 -0.0879  0.4400
15981TIP3    H169434   5.184   4.968  11.207  0.6773 -0.4479  0.1872
15981TIP3    H269435   5.310   5.049  11.229 -0.3169  0.9834  0.6995
15982TIP3   OH269436   1.584   6.290   2.739  0.1427 -0.5825  0.4841
15982TIP3    H169437   1.675   6.262   2.729  0.2369  0.1837 -0.8215
15982TIP3    H269438   1.574   6.361   2.677 -1.1632 -0.2011  1.1283
15983TIP3   OH269439   5.394   5.832  13.910  0.0415 -0.1883  0.3624
15983TIP3    H169440   5.373   5.819  13.818  1.0819  0.8258 -0.0223
15983TIP3    H269441   5.310   5.851  13.952 -0.3973 -0.4388 -0.4047
15984TIP3   OH269442   0.225   0.495  15.527 -0.6249  0.1380  0.3860
15984TIP3    H169443   0.256   0.426  15.468 -1.7042  1.4117 -1.7710
15984TIP3    H269444   0.269   0.478  15.610  1.1145 -1.6049 -0.8442
15985TIP3   OH269445   3.952   1.389   6.031 -0.4569  0.3915 -0.4539
15985TIP3    H169446   3.938   1.451   5.960 -2.1620 -0.8699 -1.2456
15985TIP3    H269447   3.982   1.442   6.104  0.1372  1.8633 -1.7507
15986TIP3   OH269448   4.071   3.127  14.709 -0.0859 -0.5507  0.6828
15986TIP3    H169449   4.049   3.034  14.704 -2.5691  0.1010 -1.0150
15986TIP3    H269450   4.072   3.146  14.803 -1.2490 -1.9020  0.9890
15987TIP3   OH269451   3.376   3.123   2.577  0.3780 -0.3408 -0.5364
15987TIP3    H169452   3.340   3.198   2.624  1.5968  0.2421 -0.5012
15987TIP3    H269453   3.436   3.082   2.640  1.9439  0.3870 -1.5132
15988TIP3   OH269454   0.149   6.814   3.909 -0.4283  0.2083  0.4693
15988TIP3    H169455   0.230   6.796   3.958 -0.0210 -0.8947 -0.5877
15988TIP3    H269456   0.177   6.821   3.818 -1.6072 -0.7614  0.0235
15989TIP3   OH269457   0.687   3.135  13.368  0.1034  0.5974 -0.6678
15989TIP3    H169458   0.703   3.043  13.386  2.1489  0.7130 -1.8480
15989TIP3    H269459   0.605   3.136  13.318  0.2501 -0.5913 -0.9448
15990TIP3   OH269460   4.589   6.120   5.268  0.6204 -0.0884  0.7857
15990TIP3    H169461   4.607   6.157   5.354 -1.0678  0.4293  0.9165
15990TIP3    H269462   4.532   6.045   5.284  1.6269 -0.9894  0.2537
15991TIP3   OH269463   2.236   5.548  16.812 -0.2719  0.3570  0.2802
15991TIP3    H169464   2.174   5.595  16.868  0.7011 -0.7081  2.3019
15991TIP3    H269465   2.282   5.617  16.764 -2.1042  1.2129 -0.3144
15992TIP3   OH269466   4.130   5.811   2.537  0.0221  0.2372 -0.3247
15992TIP3    H169467   4.142   5.815   2.442  0.1916  4.1527 -0.2375
15992TIP3    H269468   4.215   5.836   2.573 -0.8584  1.7641  0.7677
15993TIP3   OH269469   4.304   1.401  15.572  0.3535  0.6482  0.3038
15993TIP3    H169470   4.295   1.305  15.575 -0.7515  0.7209 -0.6236
15993TIP3    H269471   4.254   1.431  15.648  1.2902  0.4482  1.0015
15994TIP3   OH269472   6.148   6.621  11.596  0.0176  0.0187 -0.1666
15994TIP3    H169473   6.096   6.594  11.520 -1.3986 -0.0253  0.8071
15994TIP3    H269474   6.235   6.637  11.560 -0.9464  1.2669 -2.0525
15995TIP3   OH269475   2.800   6.290   2.989  0.5239 -0.3969 -0.6808
15995TIP3    H169476   2.764   6.256   3.071 -0.6131 -1.1193 -1.4780
15995TIP3    H269477   2.891   6.260   2.990  0.6988  0.1177  0.6021
15996TIP3   OH269478   0.025   0.376  15.354  0.4851  0.3888  0.5548
15996TIP3    H169479   0.083   0.449  15.373  0.6059  0.6351 -0.7371
15996TIP3    H269480  -0.063   0.410  15.373  0.5879  0.6612  0.5441
15997TIP3   OH269481   6.627   4.661   2.713 -0.8307  0.3706 -0.3762
15997TIP3    H169482   6.650   4.687   2.624  1.2858 -1.0968 -0.2943
15997TIP3    H269483   6.575   4.582   2.702 -1.2462  0.6323 -0.3238
15998TIP3   OH269484   2.082   1.857   0.185 -0.7213  0.2054  0.2504
15998TIP3    H169485   1.995   1.895   0.175 -1.3910 -1.2460  0.5283
15998TIP3    H269486   2.068   1.763   0.183  1.0484 -0.0620 -1.5039
15999TIP3   OH269487   4.931   3.262  16.145 -0.1732  0.2127 -0.0774
15999TIP3    H169488   4.853   3.234  16.096 -0.2078  0.7149 -0.3150
15999TIP3    H269489   4.927   3.357  16.142  0.2011  0.2386  0.3148
16000TIP3   OH269490   2.673   5.707   2.594  0.0687  0.0481 -0.3127
16000TIP3    H169491   2.691   5.691   2.502  1.4379  0.7132 -0.1746
16000TIP3    H269492   2.751   5.676   2.640 -1.0877 -1.3818  0.7448
16001TIP3   OH269493   3.130   2.768  11.436  0.0210 -0.3625  1.0846
16001TIP3    H169494   3.203   2.827  11.454 -0.5171  1.4185 -2.1805
16001TIP3    H269495   3.165   2.705  11.374 -0.4445 -1.2792  1.7339
16002TIP3   OH269496   4.736   1.117  15.895 -0.3538 -0.7281  0.3302
16002TIP3    H169497   4.714   1.062  15.971  0.9807 -1.0520  0.4957
16002TIP3    H269498   4.796   1.182  15.930 -0.9910  0.1098 -0.1307
16003TIP3   OH269499   6.540   3.463   6.686 -0.5004 -0.3827  0.0157
16003TIP3    H169500   6.567   3.439   6.774  1.0777 -0.9377 -0.5981
16003TIP3    H269501   6.620   3.458   6.634 -1.2695  0.6126 -1.3111
16004TIP3   OH269502   4.627   1.829   5.053 -0.7417 -0.0766  0.0581
16004TIP3    H169503   4.582   1.772   5.115  0.6492 -0.5341  0.6774
16004TIP3    H269504   4.592   1.805   4.968  0.5188 -2.5917  0.1906
16005TIP3   OH269505   2.604   1.280   4.409  0.3273  0.3812  0.0379
16005TIP3    H169506   2.617   1.186   4.419  0.3296  0.4434  0.6479
16005TIP3    H269507   2.665   1.306   4.339  0.5595 -0.0110  0.0946
16006TIP3   OH269508   5.587   0.621   1.146  0.1822 -0.0362  0.1801
16006TIP3    H169509   5.662   0.662   1.101  0.6415 -1.2130 -0.1514
16006TIP3    H269510   5.534   0.584   1.075  0.6223 -1.4224  0.5573
16007TIP3   OH269511   4.967   3.717  13.402 -0.3259 -0.5869  0.3835
16007TIP3    H169512   4.956   3.622  13.408  1.1795 -0.7108  1.6792
16007TIP3    H269513   5.048   3.734  13.451 -0.7664  1.3937  0.4471
16008TIP3   OH269514   0.018   0.542  15.851  0.2982  0.1839  0.6446
16008TIP3    H169515   0.019   0.446  15.850  0.7216  0.1715  1.4819
16008TIP3    H269516  -0.011   0.567  15.764 -0.7983 -0.7253  0.7410
16009TIP3   OH269517   6.517   5.718   5.355  0.5475 -0.1073 -0.0416
16009TIP3    H169518   6.582   5.656   5.389  1.3117 -1.2426 -3.3418
16009TIP3    H269519   6.444   5.663   5.326  0.4952  0.6808 -1.4384
16010TIP3   OH269520   2.126   0.984  12.109 -0.8046  0.2718 -0.6254
16010TIP3    H169521   2.220   0.991  12.090 -0.9840  1.0603 -1.2566
16010TIP3    H269522   2.085   1.047  12.050 -1.9419 -1.6754 -1.9524
16011TIP3   OH269523   1.031   6.597  16.032 -0.0276 -0.1673  0.3004
16011TIP3    H169524   0.989   6.511  16.038  0.5459 -0.3813  1.5454
16011TIP3    H269525   0.960   6.660  16.043 -0.5827 -0.4666 -1.5172
16012TIP3   OH269526   3.964   1.681  15.102 -0.0708 -0.2013  0.4444
16012TIP3    H169527   3.921   1.743  15.043  1.0755 -0.3714 -0.5763
16012TIP3    H269528   4.049   1.663  15.061  0.1470 -1.4277  1.4033
16013TIP3   OH269529   2.813   2.488   3.030 -0.2473 -0.4939  0.5145
16013TIP3    H169530   2.719   2.483   3.044  0.0704  0.0244  3.0456
16013TIP3    H269531   2.851   2.444   3.106  1.5379 -2.5189 -1.4783
16014TIP3   OH269532   5.657   4.236  15.876  0.6180 -0.3945 -0.1572
16014TIP3    H169533   5.634   4.213  15.786  1.3847 -0.7867 -0.2581
16014TIP3    H269534   5.633   4.329  15.884 -0.3735 -0.6240 -0.4524
16015TIP3   OH269535   0.386   1.842   6.794  0.3434 -0.1050  0.2061
16015TIP3    H169536   0.482   1.837   6.803  0.3166 -0.5672  0.2560
16015TIP3    H269537   0.353   1.777   6.855  0.0607 -1.3232 -1.2223
16016TIP3   OH269538   5.669   3.971  15.614 -0.3446 -0.4869 -0.6677
16016TIP3    H169539   5.699   3.903  15.553 -0.0926 -0.7573 -0.2448
16016TIP3    H269540   5.592   3.931  15.657 -0.3595 -0.3993 -0.6136
16017TIP3   OH269541   5.507   5.433  12.720  0.4940 -0.0515 -0.2533
16017TIP3    H169542   5.507   5.479  12.636  2.1143  1.0005  0.3158
16017TIP3    H269543   5.594   5.394  12.726 -0.7722 -3.1333 -0.6640
16018TIP3   OH269544   1.418   6.431   4.539  0.8963  0.1215 -0.2285
16018TIP3    H169545   1.376   6.359   4.585  1.7735 -0.5392 -0.4611
16018TIP3    H269546   1.413   6.505   4.600  0.8035 -0.3729  0.3641
16019TIP3   OH269547   6.666   2.581   4.268  0.3074 -0.7047 -0.2936
16019TIP3    H169548   6.629   2.596   4.356  2.0029  0.0792  0.3099
16019TIP3    H269549   6.676   2.486   4.263 -0.7007 -0.8352 -0.0202
16020TIP3   OH269550   3.116   0.510   0.330 -0.1515  0.7193  0.1533
16020TIP3    H169551   3.169   0.545   0.258  0.5400 -0.1102  0.2501
16020TIP3    H269552   3.178   0.497   0.401 -0.0714 -2.1728 -0.3993
16021TIP3   OH269553   4.773   5.500   5.454  0.0522  0.3359  0.2122
16021TIP3    H169554   4.768   5.552   5.374  2.3024  2.0262  1.1397
16021TIP3    H269555   4.855   5.451   5.446 -0.1314 -0.1294  1.0910
16022TIP3   OH269556   5.339   3.016  13.038  0.1178  0.0931 -0.7943
16022TIP3    H169557   5.308   3.106  13.038 -2.0847 -0.6388 -0.4070
16022TIP3    H269558   5.399   3.011  13.112  0.2352  1.2272 -0.8063
16023TIP3   OH269559   0.842   0.226  15.618  0.0558 -0.0569  0.1306
16023TIP3    H169560   0.771   0.276  15.578 -0.0182 -1.5219 -1.6638
16023TIP3    H269561   0.799   0.154  15.664  0.3098 -0.3893 -0.1412
16024TIP3   OH269562   1.766   2.831   2.838  0.3176 -0.5753 -0.1602
16024TIP3    H169563   1.838   2.826   2.901  0.4149 -0.7625 -0.2865
16024TIP3    H269564   1.748   2.740   2.814  1.0937 -0.4341 -1.3277
16025TIP3   OH269565   2.739   1.820   5.464  0.2402  0.4544  0.3306
16025TIP3    H169566   2.719   1.726   5.456 -0.6725  0.8189 -2.3127
16025TIP3    H269567   2.655   1.862   5.481  0.4440  0.9134  0.2202
16026TIP3   OH269568   2.326   0.895   4.527  0.0961  0.2070 -0.3923
16026TIP3    H169569   2.374   0.813   4.518 -0.8284 -0.4009  0.1084
16026TIP3    H269570   2.269   0.898   4.451  0.2589  0.4808 -0.5052
16027TIP3   OH269571   0.454   6.549   5.980  0.1064 -0.2822 -0.0732
16027TIP3    H169572   0.372   6.533   5.933 -0.8138 -0.3711  1.5432
16027TIP3    H269573   0.484   6.462   6.006  1.5825 -0.4041 -2.0538
16028TIP3   OH269574   3.012   4.582   0.329 -0.3884  0.2828 -0.0820
16028TIP3    H169575   3.041   4.555   0.242 -0.6869  0.4655 -0.2386
16028TIP3    H269576   3.021   4.503   0.383 -0.5239  0.0827 -0.3560
16029TIP3   OH269577   2.976   6.191  12.004  0.3889 -0.2301 -0.2150
16029TIP3    H169578   3.009   6.235  11.925  0.9746  1.3664  0.9049
16029TIP3    H269579   3.046   6.204  12.068 -1.0281  0.3514  1.2178
16030TIP3   OH269580   1.162   0.206   2.978  0.0775  0.4488 -0.0571
16030TIP3    H169581   1.159   0.172   2.888 -0.4242 -0.0828  0.1608
16030TIP3    H269582   1.195   0.296   2.968 -0.0898  0.4365 -0.7842
16031TIP3   OH269583   2.354   1.345  11.690  0.4391  0.0105 -0.0179
16031TIP3    H169584   2.267   1.363  11.725  1.0323 -0.0799  1.5555
16031TIP3    H269585   2.412   1.406  11.736  1.6182 -1.9103  1.1317
16032TIP3   OH269586   6.308   1.582   3.284  0.1437 -0.6988 -0.0480
16032TIP3    H169587   6.219   1.595   3.253  1.5019  1.5113 -3.4338
16032TIP3    H269588   6.332   1.665   3.326  0.9430 -0.8474 -0.1895
16033TIP3   OH269589   3.858   2.843  15.011 -0.3422  0.2457  0.3225
16033TIP3    H169590   3.879   2.805  14.926 -1.1324 -1.8076  1.0103
16033TIP3    H269591   3.817   2.927  14.991 -0.1839 -0.0488 -1.3012
16034TIP3   OH269592   4.778   1.579  16.179  0.1250  0.3673 -0.1539
16034TIP3    H169593   4.708   1.641  16.200  0.5109  0.3878  1.0833
16034TIP3    H269594   4.858   1.622  16.209  0.6298  0.1576 -1.1823
16035TIP3   OH269595   4.986   0.587  15.534 -0.1791  0.4791  0.0363
16035TIP3    H169596   5.026   0.585  15.621  0.2940 -0.2297 -0.1963
16035TIP3    H269597   4.945   0.673  15.529 -1.8990 -0.2042  1.7222
16036TIP3   OH269598   2.368   5.876  12.855 -0.7381  0.2278  0.1680
16036TIP3    H169599   2.327   5.864  12.769 -1.8241  0.3799  0.6516
16036TIP3    H269600   2.352   5.968  12.876  0.7704  0.5549 -0.0919
16037TIP3   OH269601   1.739   5.419  11.801 -0.3674 -0.7372  0.3264
16037TIP3    H169602   1.646   5.437  11.788 -0.5797 -1.8645  0.2089
16037TIP3    H269603   1.784   5.468  11.732 -0.9841 -1.3242 -0.4960
16038TIP3   OH269604   2.199   3.508   0.344 -0.2458  0.1653  0.1550
16038TIP3    H169605   2.183   3.602   0.343 -3.9227 -0.3863  0.4954
16038TIP3    H269606   2.201   3.483   0.251  0.3096  0.4783  0.0763
16039TIP3   OH269607   5.341   3.694   4.683 -0.0039 -0.2329 -0.4043
16039TIP3    H169608   5.330   3.784   4.714  1.5964  0.0279 -0.5857
16039TIP3    H269609   5.289   3.641   4.744  0.1327  0.6686  0.5061
16040TIP3   OH269610   0.432   1.929  11.719 -0.6077 -1.2088 -0.2270
16040TIP3    H169611   0.510   1.985  11.721 -0.8056 -0.9367 -0.0439
16040TIP3    H269612   0.375   1.965  11.786 -1.6341 -0.3022 -1.5464
16041TIP3   OH269613   5.362   1.355   1.212  0.1273 -0.1899  0.0466
16041TIP3    H169614   5.338   1.424   1.151  0.9357  0.3341  0.3125
16041TIP3    H269615   5.378   1.278   1.157  0.4594  0.1739 -0.3677
16042TIP3   OH269616   4.132   5.309  13.127  0.4813  0.2210 -0.0341
16042TIP3    H169617   4.172   5.223  13.124  0.4466  0.1178  1.7372
16042TIP3    H269618   4.168   5.356  13.052  1.2211 -1.0182 -0.4550
16043TIP3   OH269619   2.293   0.447   1.707 -0.1303 -0.4170 -0.0669
16043TIP3    H169620   2.326   0.423   1.793 -1.2475 -0.0382  0.4723
16043TIP3    H269621   2.199   0.461   1.720 -0.3210 -0.4310 -1.3555
16044TIP3   OH269622   3.415   5.064  15.955  0.1284 -0.3331 -0.2454
16044TIP3    H169623   3.430   5.074  15.861 -1.1522 -2.8580 -0.7815
16044TIP3    H269624   3.485   5.006  15.984  1.1599  1.3086  0.6021
16045TIP3   OH269625   4.115   2.112   4.190 -0.1148 -0.2189  0.4079
16045TIP3    H169626   4.053   2.092   4.261  0.4810 -1.6698  0.5343
16045TIP3    H269627   4.113   2.034   4.135  0.0786  0.5622 -0.7077
16046TIP3   OH269628   3.793   4.269  15.142  0.2083 -0.0273 -0.2356
16046TIP3    H169629   3.708   4.225  15.150  0.0383 -0.0953 -2.0521
16046TIP3    H269630   3.857   4.203  15.168 -0.3909  0.6831  3.1722
16047TIP3   OH269631   1.033   3.822   2.242 -0.0446  0.2141 -0.2810
16047TIP3    H169632   1.107   3.761   2.245  0.4539  0.8169 -0.1883
16047TIP3    H269633   0.969   3.786   2.304  1.4159  1.2737  1.8981
16048TIP3   OH269634   1.513   5.932   0.357 -0.2558 -0.7376  0.5129
16048TIP3    H169635   1.575   5.880   0.306 -0.5785 -2.6970  2.0390
16048TIP3    H269636   1.558   5.947   0.440  0.5071  2.9310 -0.4931
16049TIP3   OH269637   5.663   6.383   5.566 -0.2019  0.3081 -0.2523
16049TIP3    H169638   5.609   6.416   5.638  0.4470 -0.6561  0.7054
16049TIP3    H269639   5.629   6.295   5.548  1.4633 -0.6023  0.8513
16050TIP3   OH269640   4.172   0.688  15.697 -0.4142 -0.3417  0.2195
16050TIP3    H169641   4.159   0.599  15.663  0.5182 -0.2626 -0.3605
16050TIP3    H269642   4.205   0.675  15.786 -0.8254 -0.5746  0.3371
16051TIP3   OH269643   4.580   6.268  14.560 -0.2162 -0.0612  0.0690
16051TIP3    H169644   4.648   6.240  14.499 -2.1265 -1.1449 -1.6500
16051TIP3    H269645   4.542   6.346  14.519 -0.3184  0.2656  0.7791
16052TIP3   OH269646   5.545   0.530  11.892  0.7502 -0.1615 -0.3436
16052TIP3    H169647   5.612   0.530  11.824  0.7443  0.5328 -0.3529
16052TIP3    H269648   5.467   0.567  11.850  1.2385  1.8810  0.5069
16053TIP3   OH269649   6.378   0.222   1.729  0.3357 -0.1571 -0.7133
16053TIP3    H169650   6.352   0.157   1.663 -1.4098 -0.4698  0.2414
16053TIP3    H269651   6.335   0.303   1.700  0.9063  0.0986 -0.8426
16054TIP3   OH269652   5.140   2.841  15.799 -0.0457 -0.0794  0.6362
16054TIP3    H169653   5.110   2.832  15.708  0.5521 -0.0186  0.4317
16054TIP3    H269654   5.185   2.759  15.818 -0.3902 -0.1929  0.9624
16055TIP3   OH269655   6.252   0.630   4.683  0.5710  0.3010  0.3608
16055TIP3    H169656   6.276   0.537   4.681 -0.3149  0.0531  0.7400
16055TIP3    H269657   6.309   0.671   4.618  0.1469 -0.7045 -0.6661
16056TIP3   OH269658   5.061   0.519   6.150  0.3183 -0.1861  0.5127
16056TIP3    H169659   5.078   0.439   6.101  1.0391  1.3262 -1.7858
16056TIP3    H269660   5.132   0.578   6.124 -1.2329  1.8228  0.7267
16057TIP3   OH269661   4.972   3.673   5.248  0.1474  0.2802  0.2395
16057TIP3    H169662   4.902   3.630   5.199 -0.4690  0.5231  0.9177
16057TIP3    H269663   5.002   3.607   5.310 -2.3546  1.5345  2.8807
16058TIP3   OH269664   3.070   0.088  16.367  0.3113 -0.4683  0.5009
16058TIP3    H169665   2.988   0.054  16.404  0.2894 -0.1930  0.7041
16058TIP3    H269666   3.045   0.168  16.322  0.2265 -1.1316 -0.6662
16059TIP3   OH269667   1.994   6.693  12.569 -0.1104 -0.0543 -0.2048
16059TIP3    H169668   1.950   6.696  12.653  2.3307 -2.4871  1.2343
16059TIP3    H269669   2.081   6.731  12.586  0.4763 -0.7560 -1.5512
16060TIP3   OH269670   3.513   6.500   1.281 -0.1705  0.3492  0.1347
16060TIP3    H169671   3.445   6.433   1.271  1.3844 -1.1414 -0.8333
16060TIP3    H269672   3.532   6.529   1.191 -0.8425  2.1256  0.5457
16061TIP3   OH269673   6.817   3.244   3.853 -0.3926  0.5534 -0.0778
16061TIP3    H169674   6.761   3.236   3.776 -0.5176 -3.3010  0.2873
16061TIP3    H269675   6.903   3.213   3.823  0.0881  1.0062  0.8013
16062TIP3   OH269676   1.451   6.233  16.495  0.0421  0.2917 -0.3631
16062TIP3    H169677   1.472   6.191  16.579 -1.1673 -0.1896 -0.2898
16062TIP3    H269678   1.421   6.161  16.439  1.1987  0.5486 -1.3443
16063TIP3   OH269679   1.076   0.455  15.582  0.6258 -0.1767  0.9133
16063TIP3    H169680   0.989   0.452  15.620 -0.9188  1.3770 -2.3288
16063TIP3    H269681   1.116   0.372  15.607 -3.0596 -2.4481 -0.5006
16064TIP3   OH269682   1.562   6.609  14.444  0.0302 -0.4784  0.4759
16064TIP3    H169683   1.471   6.581  14.450 -0.0871 -0.1808  0.1010
16064TIP3    H269684   1.558   6.698  14.411  0.4323 -0.1953  1.1821
16065TIP3   OH269685   2.117   4.361   3.097  0.2850 -0.0089 -0.0348
16065TIP3    H169686   2.022   4.350   3.108  0.3630  0.1566  0.8249
16065TIP3    H269687   2.127   4.452   3.068  0.2788  0.3926  1.2034
16066TIP3   OH269688   6.354   4.774   2.814 -0.2780 -0.7886 -0.1086
16066TIP3    H169689   6.439   4.749   2.778 -1.0092 -2.4403 -0.7525
16066TIP3    H269690   6.327   4.849   2.761  0.5971 -0.5032 -0.1569
16067TIP3   OH269691   6.403   0.915  13.057  0.2743  0.4541 -0.1242
16067TIP3    H169692   6.339   0.885  13.122 -0.0667 -0.7957 -1.0167
16067TIP3    H269693   6.350   0.952  12.987  0.4773 -1.3905 -1.2686
16068TIP3   OH269694   0.001   2.524  15.494  0.5910 -0.1206 -0.3682
16068TIP3    H169695  -0.075   2.547  15.548 -0.2657 -0.1938 -1.5216
16068TIP3    H269696  -0.022   2.439  15.456  1.5506 -0.4681 -0.1764
16069TIP3   OH269697   6.749   6.328   5.247 -0.1214  0.2910  0.1975
16069TIP3    H169698   6.654   6.336   5.238 -0.1302 -1.2150 -1.3905
16069TIP3    H269699   6.778   6.295   5.162  1.7505  0.2103  0.8529
16070TIP3   OH269700   4.173   0.256   4.681  0.0252 -0.5754 -0.4076
16070TIP3    H169701   4.203   0.333   4.633 -0.7160  0.0353  0.1019
16070TIP3    H269702   4.156   0.190   4.613  0.5086 -0.2458 -0.8503
16071TIP3   OH269703   5.507   2.172   0.342  0.4315 -0.1194  0.4141
16071TIP3    H169704   5.537   2.082   0.357 -1.5912 -0.7409  0.9798
16071TIP3    H269705   5.524   2.188   0.249 -0.2806 -1.5244  0.0217
16072TIP3   OH269706   0.134   3.540   4.782  0.1410  0.2149 -0.3971
16072TIP3    H169707   0.211   3.597   4.770  2.3336 -2.4297  0.6473
16072TIP3    H269708   0.130   3.489   4.701  0.0152 -0.2905 -0.0675
16073TIP3   OH269709   0.936   6.061  13.018  0.3478  0.4208  0.3315
16073TIP3    H169710   0.944   5.977  13.063  1.3007  0.6225  0.5451
16073TIP3    H269711   0.878   6.043  12.944 -0.6746 -0.0643  1.2440
16074TIP3   OH269712   0.873   3.892  10.764  0.1999  0.3731 -0.2614
16074TIP3    H169713   0.893   3.881  10.671 -0.6709  1.1399 -0.5503
16074TIP3    H269714   0.946   3.850  10.810  0.7894  0.2605 -1.2908
16075TIP3   OH269715   5.637   0.199  16.667 -0.0340 -0.1371 -0.3520
16075TIP3    H169716   5.728   0.171  16.655  0.2705  0.7588 -0.1943
16075TIP3    H269717   5.642   0.295  16.670 -1.2473  0.0260 -2.6490
16076TIP3   OH269718   0.730   6.712  12.561  0.1016  0.1225  0.5583
16076TIP3    H169719   0.703   6.776  12.496 -0.9551  0.6551  1.5052
16076TIP3    H269720   0.784   6.762  12.623 -0.5909  0.0801  1.2095
16077TIP3   OH269721   4.170   2.248  12.831 -0.5217 -0.0391 -0.0923
16077TIP3    H169722   4.125   2.217  12.753 -0.7349 -0.4457  0.1936
16077TIP3    H269723   4.243   2.301  12.797  0.1789 -1.3068 -0.5841
16078TIP3   OH269724   3.113   3.087  14.647 -0.2644 -0.1684 -0.6424
16078TIP3    H169725   3.020   3.069  14.660 -0.2721 -2.0558 -2.8980
16078TIP3    H269726   3.117   3.137  14.565  0.7803 -1.1562 -1.2152
16079TIP3   OH269727   3.230   4.449  11.928 -1.3381 -0.3366  0.9564
16079TIP3    H169728   3.215   4.374  11.870 -0.9318 -0.1538  0.6109
16079TIP3    H269729   3.167   4.437  11.999 -1.7223 -0.6597  0.5688
16080TIP3   OH269730   0.251   3.649   3.819 -0.5895 -0.1598 -0.5072
16080TIP3    H169731   0.227   3.716   3.884  0.0153 -1.1658  0.7660
16080TIP3    H269732   0.168   3.611   3.792 -0.7887 -0.2236  0.1948
16081TIP3   OH269733   1.662   1.718  12.970 -0.3652 -0.4516 -0.3610
16081TIP3    H169734   1.684   1.760  12.887 -0.2249  1.1921  0.4803
16081TIP3    H269735   1.689   1.781  13.037 -1.7501 -1.1335  0.8957
16082TIP3   OH269736   1.953   3.949   1.233 -0.6387 -0.1720 -0.1532
16082TIP3    H169737   1.914   3.975   1.150 -0.9849  0.9685  0.3609
16082TIP3    H269738   1.891   3.978   1.300  0.3647  0.3114  0.5898
16083TIP3   OH269739   5.543   3.890  13.764  0.1480 -0.0065  0.7514
16083TIP3    H169740   5.635   3.872  13.748 -0.4133 -1.7510 -0.6555
16083TIP3    H269741   5.525   3.852  13.850  0.9057  1.0655  1.4048
16084TIP3   OH269742   4.798   4.785   3.229 -0.1466  0.1262 -0.1379
16084TIP3    H169743   4.755   4.867   3.202 -0.0338  0.6995  1.3712
16084TIP3    H269744   4.799   4.790   3.324  1.2198 -0.9520 -0.0977
16085TIP3   OH269745   3.714   0.904  15.550  0.3989  0.3366 -0.0178
16085TIP3    H169746   3.687   0.948  15.469  1.7347  2.5287  0.7095
16085TIP3    H269747   3.804   0.876  15.533  0.5690  0.5157  0.6105
16086TIP3   OH269748   6.702   5.737  12.094  0.1174 -0.0956 -0.5793
16086TIP3    H169749   6.707   5.821  12.049  1.2756  0.3511  0.3640
16086TIP3    H269750   6.621   5.740  12.144  0.6375  0.8458  0.2078
16087TIP3   OH269751   1.416   6.079   5.955 -0.3049 -0.0356  0.0616
16087TIP3    H169752   1.411   6.151   6.018 -1.7203  0.8714 -1.0526
16087TIP3    H269753   1.409   6.122   5.870 -0.7014 -1.4599 -0.6276
16088TIP3   OH269754   0.392   6.389  13.480  0.6166  0.0967  0.4898
16088TIP3    H169755   0.398   6.304  13.524 -0.7518  0.0850  0.6754
16088TIP3    H269756   0.318   6.433  13.522 -0.2220  0.4003 -1.2567
16089TIP3   OH269757   5.689   6.556   4.710  0.2150  0.1237 -0.6156
16089TIP3    H169758   5.613   6.504   4.685  0.1272  0.2527 -0.6173
16089TIP3    H269759   5.710   6.608   4.632  0.9320 -0.6642 -0.9542
16090TIP3   OH269760   6.084   3.332   2.192 -0.3806  0.6711  0.5337
16090TIP3    H169761   6.108   3.385   2.116  0.5878 -0.9650 -0.3322
16090TIP3    H269762   6.162   3.333   2.247  0.3404 -1.4195 -0.4128
16091TIP3   OH269763   1.000   0.536  11.840  0.6729 -0.3474 -0.2955
16091TIP3    H169764   1.024   0.549  11.931 -3.7650  1.6612  0.7255
16091TIP3    H269765   1.040   0.611  11.794  0.1994  0.4516  0.5728
16092TIP3   OH269766   5.690   3.881   3.946  0.0448  0.3439  0.0224
16092TIP3    H169767   5.655   3.827   3.876  0.1988 -0.5730  0.6427
16092TIP3    H269768   5.778   3.905   3.916 -0.9882  2.4653 -1.4342
16093TIP3   OH269769   4.706   3.501   5.948 -0.5284 -0.5255 -0.5023
16093TIP3    H169770   4.743   3.438   6.010 -2.2015 -0.3357  0.7418
16093TIP3    H269771   4.682   3.448   5.872  1.8492 -0.7114 -1.1437
16094TIP3   OH269772   4.682   1.029   4.716  0.4601 -0.2797 -0.0828
16094TIP3    H169773   4.709   0.939   4.694  1.7907  0.1773 -0.3625
16094TIP3    H269774   4.587   1.026   4.714  0.4186 -0.5725 -4.8401
16095TIP3   OH269775   4.915   4.712   3.473 -0.2320 -0.0188 -0.0046
16095TIP3    H169776   4.841   4.705   3.533 -0.0120 -0.9195  0.1706
16095TIP3    H269777   4.958   4.626   3.477  1.0801  0.6335  0.2350
16096TIP3   OH269778   0.815   1.751   3.574 -0.4205 -0.3648  0.4190
16096TIP3    H169779   0.814   1.765   3.479  0.7144  0.0270  0.4531
16096TIP3    H269780   0.863   1.670   3.586  2.2491  1.2159  0.8167
16097TIP3   OH269781   0.856   3.556   0.696 -0.0223 -0.1739 -0.4610
16097TIP3    H169782   0.897   3.478   0.657  1.5333  0.4968 -0.2163
16097TIP3    H269783   0.848   3.618   0.623  1.2058  0.4055 -0.1215
16098TIP3   OH269784   2.213   1.737  13.940  0.1943  0.2879  0.1815
16098TIP3    H169785   2.156   1.760  14.014 -0.1927 -0.2203  0.0480
16098TIP3    H269786   2.208   1.812  13.881 -0.1319  0.3571  0.2950
16099TIP3   OH269787   4.852   1.947  11.022 -0.3131 -0.1306 -0.5328
16099TIP3    H169788   4.862   1.853  11.004  1.2524 -0.3385  1.2999
16099TIP3    H269789   4.911   1.989  10.959  3.3106 -0.7323  2.2690
16100TIP3   OH269790   4.034   6.603   2.633  0.3631  0.4069  0.2754
16100TIP3    H169791   3.990   6.613   2.717  0.5571 -1.6189  0.6578
16100TIP3    H269792   4.001   6.674   2.579 -0.8293  0.8947  1.6219
16101TIP3   OH269793   6.329   1.962   0.869 -0.2038  0.2220  0.5430
16101TIP3    H169794   6.357   1.906   0.942  1.1322  1.4507  0.9955
16101TIP3    H269795   6.242   1.992   0.894 -0.0822 -0.0062  1.2500
16102TIP3   OH269796   0.998   3.366   5.215  0.4898 -0.1044  0.4429
16102TIP3    H169797   1.066   3.300   5.206 -1.4522 -2.3640  1.8804
16102TIP3    H269798   1.013   3.405   5.302  2.2969  2.1865 -0.8368
16103TIP3   OH269799   6.062   1.676   3.226  0.3868  0.2351  0.0984
16103TIP3    H169800   6.063   1.770   3.208  0.0934  0.0740 -0.8032
16103TIP3    H269801   6.074   1.636   3.140  1.0435 -0.5483  0.5580
16104TIP3   OH269802   1.749   3.302   0.935  0.0071 -1.1528  0.4814
16104TIP3    H169803   1.748   3.380   0.990  0.8318 -1.7386  1.3406
16104TIP3    H269804   1.732   3.335   0.847  0.5218  0.0177  0.8050
16105TIP3   OH269805   6.690   0.914  13.672 -0.1479  0.0260  0.0474
16105TIP3    H169806   6.646   0.995  13.697  0.5105  0.3918  0.0240
16105TIP3    H269807   6.705   0.868  13.755  0.0673  0.2335  0.1237
16106TIP3   OH269808   4.637   3.782  11.353 -0.3065  0.5345 -0.1660
16106TIP3    H169809   4.643   3.808  11.260 -1.7721  0.0685 -0.3982
16106TIP3    H269810   4.600   3.859  11.396 -1.4683  0.0477 -0.2925
16107TIP3   OH269811   0.611   4.092   6.208  0.5216 -0.2162  0.0974
16107TIP3    H169812   0.547   4.050   6.264  0.5299 -1.3455 -0.7241
16107TIP3    H269813   0.570   4.174   6.182  0.8508  0.7161  2.3953
16108TIP3   OH269814   2.057   5.129  16.133 -0.1640  0.3779  0.1327
16108TIP3    H169815   2.017   5.211  16.161  0.4251  0.2784  1.3077
16108TIP3    H269816   2.120   5.155  16.065  1.5934  1.1799  2.0219
16109TIP3   OH269817   0.241   6.597   4.724 -0.1533  0.5187  0.1065
16109TIP3    H169818   0.199   6.528   4.777  0.7917 -0.0424  0.1406
16109TIP3    H269819   0.177   6.668   4.722 -2.1428 -1.2368 -1.8701
16110TIP3   OH269820   4.441   3.647  16.743 -0.5486  0.0336 -0.3526
16110TIP3    H169821   4.501   3.677  16.675  0.8919 -0.1692  0.8130
16110TIP3    H269822   4.480   3.566  16.776 -1.3384  0.0137  0.5595
16111TIP3   OH269823   4.462   6.130   2.690  0.9074  0.0555 -0.4473
16111TIP3    H169824   4.469   6.225   2.705  1.9574  0.0437 -0.7793
16111TIP3    H269825   4.543   6.095   2.727  0.7064 -0.6625 -0.6920
16112TIP3   OH269826   5.104   4.247   4.689 -0.0691 -1.0472 -0.3936
16112TIP3    H169827   5.098   4.236   4.594 -0.0523 -0.5725 -0.4490
16112TIP3    H269828   5.180   4.303   4.703 -1.7350  1.2687 -0.2840
16113TIP3   OH269829   0.108   5.746   6.131  0.2260  0.4273  0.2553
16113TIP3    H169830   0.089   5.779   6.044  3.4912  0.5371 -0.4975
16113TIP3    H269831   0.165   5.812   6.170  0.4471 -0.5894  1.6979
16114TIP3   OH269832   6.283   2.903   4.241 -0.0417 -0.2157  0.2797
16114TIP3    H169833   6.302   2.878   4.150 -1.4013 -0.3902  0.0423
16114TIP3    H269834   6.358   2.870   4.291  0.9014  0.2100 -0.8289
16115TIP3   OH269835   3.378   4.564  17.173  0.1190  0.3465  0.0642
16115TIP3    H169836   3.421   4.592  17.092 -0.2412 -0.0726 -0.2699
16115TIP3    H269837   3.445   4.576  17.240  0.1985  1.3664 -0.1755
16116TIP3   OH269838   1.539   5.333  13.497  0.2959 -0.2480 -0.4542
16116TIP3    H169839   1.444   5.322  13.509  0.1839 -0.1502 -1.2108
16116TIP3    H269840   1.557   5.289  13.414  0.7471  0.6001 -0.8085
16117TIP3   OH269841   4.966   5.468  11.864 -0.4262 -0.0971 -0.2520
16117TIP3    H169842   4.936   5.544  11.914 -1.4065 -0.6324 -0.0154
16117TIP3    H269843   5.036   5.431  11.916  0.3528  0.9002 -0.5809
16118TIP3   OH269844   3.899   1.951  15.231 -0.4614  0.6799 -0.2329
16118TIP3    H169845   3.814   1.994  15.229 -0.4809  0.6690  0.4999
16118TIP3    H269846   3.952   2.002  15.169 -0.8587  0.9692 -0.3408
16119TIP3   OH269847   3.073   0.303   2.377  0.2849  0.5198  0.6212
16119TIP3    H169848   3.014   0.306   2.452  1.0088 -2.4920  1.3847
16119TIP3    H269849   3.015   0.304   2.301 -0.6691 -0.4226  1.3208
16120TIP3   OH269850   0.568   3.389   5.019  0.2666  0.2355  0.2081
16120TIP3    H169851   0.505   3.319   4.999 -1.2607  1.2021  1.4375
16120TIP3    H269852   0.630   3.348   5.080  1.1875 -0.8916 -1.4650
16121TIP3   OH269853   5.845   5.985   6.014 -0.5352 -0.0938 -0.0816
16121TIP3    H169854   5.865   5.893   5.999  0.2281  0.1706 -0.7029
16121TIP3    H269855   5.791   5.985   6.094 -2.6508 -1.2990 -1.4538
16122TIP3   OH269856   1.016   2.641   2.052 -0.0104  0.3461  0.1626
16122TIP3    H169857   0.992   2.549   2.041  0.4783  0.5485 -3.1776
16122TIP3    H269858   1.083   2.656   1.985 -0.9399  3.4302 -0.1459
16123TIP3   OH269859   0.988   0.791   0.662 -0.0859  0.5074 -0.5738
16123TIP3    H169860   1.071   0.784   0.616  0.3326  0.3438  0.1976
16123TIP3    H269861   0.955   0.878   0.639  2.9412  2.8971  3.4788
16124TIP3   OH269862   2.770   0.355   4.560  0.0853  0.8191  0.6075
16124TIP3    H169863   2.841   0.402   4.604  1.5802 -0.7900 -0.0246
16124TIP3    H269864   2.804   0.266   4.549 -2.3858 -0.2125  1.0991
16125TIP3   OH269865   1.655   4.386   0.148 -0.1209 -0.2567 -0.1253
16125TIP3    H169866   1.742   4.400   0.112  0.2835 -0.6463  0.6908
16125TIP3    H269867   1.619   4.474   0.160  0.3558 -0.0838  0.0280
16126TIP3   OH269868   5.597   4.700  16.338 -0.0790 -0.1723 -0.0726
16126TIP3    H169869   5.650   4.729  16.264  0.5664  0.0469  0.4731
16126TIP3    H269870   5.507   4.721  16.312  0.3809  2.5729  0.4022
16127TIP3   OH269871   2.880   4.303  12.584  0.2273  0.2488 -0.0829
16127TIP3    H169872   2.889   4.351  12.502  0.7036 -0.9633 -0.7631
16127TIP3    H269873   2.811   4.349  12.632 -1.8287 -0.5177 -2.2314
16128TIP3   OH269874   5.202   0.272   5.950  0.6776  0.1213  0.1747
16128TIP3    H169875   5.154   0.217   5.889  0.8418 -0.3131  0.4365
16128TIP3    H269876   5.207   0.358   5.907  0.0751  0.0417 -0.0546
16129TIP3   OH269877   3.325   0.530   0.500  0.3919 -0.7988  0.0312
16129TIP3    H169878   3.369   0.506   0.581  0.6288 -2.5070 -0.5927
16129TIP3    H269879   3.389   0.515   0.431  0.7549  2.2026 -0.3771
16130TIP3   OH269880   3.436   5.810   3.665 -0.0128  0.2387 -0.0766
16130TIP3    H169881   3.488   5.730   3.679  0.6668  0.9278  1.5089
16130TIP3    H269882   3.391   5.824   3.748 -2.2071  0.0542 -1.2161
16131TIP3   OH269883   3.567   4.561  12.382  0.0334 -0.5042  0.4383
16131TIP3    H169884   3.480   4.591  12.408 -0.8784 -1.2767 -1.6376
16131TIP3    H269885   3.627   4.622  12.424 -1.6761  2.7955 -1.7629
16132TIP3   OH269886   4.215   4.885   4.171 -0.3148  0.6894 -0.2992
16132TIP3    H169887   4.257   4.800   4.160  0.4393  1.0554 -0.2561
16132TIP3    H269888   4.151   4.889   4.100 -1.7372 -0.7332  0.8462
16133TIP3   OH269889   0.443   1.599  15.659  0.4305 -0.0295  0.1245
16133TIP3    H169890   0.467   1.578  15.749 -0.2298  2.0287  0.7878
16133TIP3    H269891   0.349   1.583  15.654 -0.0758  2.5641  0.6173
16134TIP3   OH269892   2.367   2.249  15.395 -0.8686  0.2106  0.0972
16134TIP3    H169893   2.453   2.211  15.411 -0.5124  0.2834 -1.5439
16134TIP3    H269894   2.374   2.290  15.309 -1.6138  2.9236  1.2722
16135TIP3   OH269895   0.455   5.950  14.305  0.4452  0.2617  0.5004
16135TIP3    H169896   0.499   5.867  14.285  1.0267  0.5870  0.3971
16135TIP3    H269897   0.460   6.000  14.224  0.0336  0.3702  0.5420
16136TIP3   OH269898   5.639   4.404   0.334 -0.3427  0.5261  0.3237
16136TIP3    H169899   5.580   4.329   0.345  0.6120 -0.7867 -2.8251
16136TIP3    H269900   5.726   4.368   0.354  0.2360  0.5017 -2.1259
16137TIP3   OH269901   6.420   1.671  11.711 -0.2490 -0.3069  0.3420
16137TIP3    H169902   6.353   1.730  11.746 -0.1582 -0.6988  1.1890
16137TIP3    H269903   6.455   1.717  11.635 -2.1958 -0.5544 -0.7292
16138TIP3   OH269904   0.415   0.686  15.099 -0.2317  0.1908  0.1328
16138TIP3    H169905   0.491   0.663  15.045 -2.3988 -1.0923 -2.5036
16138TIP3    H269906   0.381   0.766  15.059 -0.5634  0.4814  0.9950
16139TIP3   OH269907   2.379   1.056   0.947 -0.1295 -0.0251  0.3505
16139TIP3    H169908   2.288   1.029   0.937 -0.1273  0.4320 -1.0968
16139TIP3    H269909   2.430   0.984   0.910 -0.0958  1.5337 -2.7745
16140TIP3   OH269910   4.594   5.479   5.929 -0.1648 -0.1141  0.1003
16140TIP3    H169911   4.602   5.384   5.929  0.8072 -0.0301 -0.3207
16140TIP3    H269912   4.532   5.498   5.858  1.7396 -0.2568 -1.6355
16141TIP3   OH269913   1.212   1.867   5.607 -0.8582  0.2620 -0.4260
16141TIP3    H169914   1.172   1.951   5.584 -0.1195  0.6432 -0.3430
16141TIP3    H269915   1.227   1.873   5.702 -0.6101  0.1182 -0.4560
16142TIP3   OH269916   6.432   4.613   0.563 -0.3658 -0.7107 -0.1901
16142TIP3    H169917   6.402   4.702   0.585  2.6330 -0.3965  3.1277
16142TIP3    H269918   6.493   4.626   0.491 -0.0947 -0.1004  0.1464
16143TIP3   OH269919   6.044   6.287  14.534  0.0134  0.0608 -0.1960
16143TIP3    H169920   6.028   6.273  14.628 -1.2683  0.6727 -0.3038
16143TIP3    H269921   5.958   6.310  14.499  0.4111 -0.5683 -1.6075
16144TIP3   OH269922   5.860   5.285   4.160 -0.2975 -0.2352  0.1458
16144TIP3    H169923   5.944   5.328   4.173 -0.4005 -0.5466  1.9068
16144TIP3    H269924   5.883   5.200   4.122  0.1067  0.0740 -0.3098
16145TIP3   OH269925   0.124   0.621  10.808  0.5121 -0.3558  0.0866
16145TIP3    H169926   0.161   0.534  10.817  0.8096 -0.0202  2.3259
16145TIP3    H269927   0.031   0.607  10.792  0.5202 -1.0734  0.6917
16146TIP3   OH269928   6.097   2.013   4.975 -0.0349  0.3902  0.0430
16146TIP3    H169929   6.164   2.080   4.973  1.6357 -1.2753 -1.3626
16146TIP3    H269930   6.022   2.055   5.017  0.5808  3.4710 -1.8479
16147TIP3   OH269931   3.120   3.874  16.121  0.0140 -0.1288  0.1350
16147TIP3    H169932   3.064   3.875  16.199 -1.0922  0.9939 -0.6611
16147TIP3    H269933   3.101   3.789  16.079  3.5031 -2.5286  3.0952
16148TIP3   OH269934   2.660   3.880   5.785  0.1885 -0.8537  0.3210
16148TIP3    H169935   2.597   3.876   5.713 -1.0684 -2.2568  1.4632
16148TIP3    H269936   2.740   3.842   5.748 -0.1384 -0.6206 -0.6420
16149TIP3   OH269937   0.591   5.666   1.435  0.5744 -0.3621 -0.4367
16149TIP3    H169938   0.512   5.718   1.423  0.8552 -0.3476 -2.3584
16149TIP3    H269939   0.586   5.635   1.526 -0.7976  0.9858 -0.0351
16150TIP3   OH269940   2.651   2.031   6.662 -0.1996  0.0985  0.2153
16150TIP3    H169941   2.734   2.065   6.695  0.4000 -1.3009  0.1616
16150TIP3    H269942   2.586   2.063   6.725  0.3956  1.0185  0.3745
16151TIP3   OH269943   6.704   0.814   4.041  0.5658  0.2084 -0.1010
16151TIP3    H169944   6.703   0.760   3.963  2.6155  1.6955 -1.1974
16151TIP3    H269945   6.705   0.904   4.008 -1.2735  0.9203  1.6594
16152TIP3   OH269946   0.841   5.272  16.427 -0.1274  0.1732  0.2298
16152TIP3    H169947   0.828   5.366  16.410 -1.9391  0.0022  0.6003
16152TIP3    H269948   0.833   5.263  16.522  1.4635 -0.1576  0.3432
16153TIP3   OH269949   6.615   0.102  15.706  0.0518 -0.4993  0.3431
16153TIP3    H169950   6.689   0.163  15.706 -1.5197  1.4789  1.4952
16153TIP3    H269951   6.606   0.074  15.797 -1.9241  1.0026  0.6678
16154TIP3   OH269952   3.417   4.826   3.940  0.0242 -0.2845 -0.1312
16154TIP3    H169953   3.480   4.863   3.878 -1.3536 -0.7818 -1.8615
16154TIP3    H269954   3.458   4.745   3.970  0.1800 -0.6369 -1.2875
16155TIP3   OH269955   2.774   2.281  16.573  0.4240  0.1430  0.0195
16155TIP3    H169956   2.744   2.235  16.494  0.6593 -0.9520  0.5563
16155TIP3    H269957   2.864   2.305  16.554  1.0347 -1.6157  0.5865
16156TIP3   OH269958   2.056   0.198   1.040  0.4159 -0.1587 -0.0717
16156TIP3    H169959   2.061   0.293   1.049 -1.1622 -0.1461  0.8270
16156TIP3    H269960   2.076   0.164   1.128 -0.9646 -0.5639  0.1033
16157TIP3   OH269961   5.161   0.576   0.303  0.4239  0.1208 -0.0448
16157TIP3    H169962   5.227   0.525   0.350 -0.6811 -0.8703  0.4486
16157TIP3    H269963   5.169   0.664   0.340  0.6172 -0.2875  0.9187
16158TIP3   OH269964   3.307   0.877  15.913  0.7607  0.1015 -0.2470
16158TIP3    H169965   3.325   0.945  15.848  0.4689  0.6277  0.2193
16158TIP3    H269966   3.213   0.884  15.930  0.8933  0.1786  0.4658
16159TIP3   OH269967   0.356   0.058   1.638  0.4003  0.1892  0.1360
16159TIP3    H169968   0.286   0.087   1.579 -0.2903  0.7512  1.2245
16159TIP3    H269969   0.366  -0.036   1.618  0.7930  0.5518 -1.4845
16160TIP3   OH269970   0.566   1.967  17.023 -0.5350 -0.1765 -0.2723
16160TIP3    H169971   0.510   1.952  17.099 -0.1876  0.6112  0.1418
16160TIP3    H269972   0.514   1.936  16.948 -1.5273  0.5541  0.1056
16161TIP3   OH269973   6.108   1.153   2.753 -0.2624 -0.3824  0.2342
16161TIP3    H169974   6.064   1.236   2.732 -2.5105 -1.9042 -1.4315
16161TIP3    H269975   6.050   1.111   2.816  1.0625 -0.5578  1.3590
16162TIP3   OH269976   4.988   6.807   5.268  0.2447 -0.2585  0.5893
16162TIP3    H169977   5.001   6.712   5.259  0.0602 -0.2206 -0.0643
16162TIP3    H269978   4.893   6.818   5.267  0.2531 -0.0993  1.0552
16163TIP3   OH269979   0.782   3.024   4.526 -0.0570  0.4001  0.4388
16163TIP3    H169980   0.829   2.941   4.515  0.0125  0.1936  2.0390
16163TIP3    H269981   0.731   3.034   4.446  0.0286 -1.1295  0.1754
16164TIP3   OH269982   1.263   0.660  12.587 -0.1741 -0.3013  0.2238
16164TIP3    H169983   1.315   0.682  12.510 -0.2174  2.9930  1.0592
16164TIP3    H269984   1.326   0.655  12.659 -0.3947 -1.3698  0.3604
16165TIP3   OH269985   4.762   5.925  13.055  0.2047  0.0997  0.2610
16165TIP3    H169986   4.838   5.975  13.086  0.6054 -0.6406  0.4890
16165TIP3    H269987   4.782   5.905  12.964 -0.9724  2.2736 -0.5028
16166TIP3   OH269988   6.626   1.337  12.353  0.0447  0.2010  0.1485
16166TIP3    H169989   6.615   1.402  12.283 -1.3873  1.2258  1.3003
16166TIP3    H269990   6.721   1.335  12.368  0.1338  1.8031 -0.1060
16167TIP3   OH269991   3.271   4.180  12.424 -0.3629  0.4410  0.4174
16167TIP3    H169992   3.344   4.211  12.478  1.5884 -1.5179 -0.9664
16167TIP3    H269993   3.225   4.118  12.479 -1.3891  2.1350  1.5135
16168TIP3   OH269994   6.459   6.192   2.622 -0.1887 -0.0432  0.1401
16168TIP3    H169995   6.381   6.222   2.667 -0.8118 -0.0800 -0.9194
16168TIP3    H269996   6.494   6.270   2.579 -0.3264 -0.2809 -0.4022
16169TIP3   OH269997   2.956   5.508   3.811 -0.2336  0.4214  0.3127
16169TIP3    H169998   2.987   5.496   3.722  0.7300 -0.4961  0.7694
16169TIP3    H269999   2.878   5.452   3.818 -0.1963  0.3484  0.1143
16170TIP3   OH270000   3.988   4.378   3.397  0.0450  0.1122 -0.1288
16170TIP3    H170001   4.054   4.310   3.411 -0.3460 -0.4443 -0.8770
16170TIP3    H270002   3.933   4.342   3.327  0.2694  1.5274 -1.0416
16171TIP3   OH270003   3.520   4.811   2.348  0.2299 -0.4274  0.2783
16171TIP3    H170004   3.496   4.873   2.417 -0.0915  2.2093 -2.1320
16171TIP3    H270005   3.447   4.749   2.345 -1.2415  1.2636  0.2486
16172TIP3   OH270006   3.132   5.575   4.527 -0.3566  0.0619 -0.0882
16172TIP3    H170007   3.111   5.636   4.598 -1.6229 -0.6061  0.1276
16172TIP3    H270008   3.180   5.504   4.569  0.2254  0.4125 -0.1620
16173TIP3   OH270009   4.668   4.421  17.207 -0.6884  0.1547 -0.1510
16173TIP3    H170010   4.672   4.500  17.153 -0.6093  0.1373 -0.1695
16173TIP3    H270011   4.730   4.361  17.168 -0.5602  0.1775  0.0157
16174TIP3   OH270012   2.566   3.404   2.720 -0.3179 -1.0666  0.0081
16174TIP3    H170013   2.607   3.443   2.644 -0.5424 -0.2006  0.3275
16174TIP3    H270014   2.497   3.465   2.745  1.9325  0.4017  2.9524
16175TIP3   OH270015   3.762   2.015   6.341  0.4594  0.3014  0.3404
16175TIP3    H170016   3.800   2.047   6.423  0.8706  0.9020 -0.0782
16175TIP3    H270017   3.777   2.086   6.279  3.1585 -1.4746 -1.1257
16176TIP3   OH270018   3.173   4.004   4.528  0.4376 -0.1203  0.1464
16176TIP3    H170019   3.240   3.967   4.586  0.2220 -0.9897 -0.1619
16176TIP3    H270020   3.187   3.960   4.445 -0.2055  0.0721 -0.0611
16177TIP3   OH270021   5.136   2.525   2.525 -0.2051 -0.0836 -0.1328
16177TIP3    H170022   5.194   2.598   2.546 -0.8525  1.2876 -2.7797
16177TIP3    H270023   5.050   2.553   2.556 -0.0353 -0.6916  0.8725
16178TIP3   OH270024   4.855   3.963  14.599 -0.0035 -0.5867 -0.4138
16178TIP3    H170025   4.929   3.913  14.564  1.2883  0.9478  0.0566
16178TIP3    H270026   4.815   4.003  14.522  0.1602 -0.7588 -0.5911
16179TIP3   OH270027   2.965   4.460  13.599 -0.0877 -0.3871  0.5350
16179TIP3    H170028   3.036   4.513  13.636  0.4263 -0.5994 -0.1418
16179TIP3    H270029   2.885   4.506  13.625  0.2900 -0.1502  1.3096
16180TIP3   OH270030   6.717   1.597   2.483 -0.4778 -0.1925 -0.0588
16180TIP3    H170031   6.662   1.532   2.528 -0.1433 -0.2182  0.3079
16180TIP3    H270032   6.654   1.656   2.442 -0.8140  1.0507  2.1574
16181TIP3   OH270033   1.664   4.705   0.588  0.1454  0.3957 -0.0755
16181TIP3    H170034   1.685   4.656   0.509  0.7038  0.7969 -0.1847
16181TIP3    H270035   1.606   4.648   0.638 -1.1057  0.5910 -1.2773
16182TIP3   OH270036   0.491   1.576   0.877  0.1147 -0.0213  0.1229
16182TIP3    H170037   0.529   1.660   0.851  0.2714 -0.5828 -1.5624
16182TIP3    H270038   0.556   1.537   0.936 -1.0151  2.0324  2.7945
16183TIP3   OH270039   2.250   4.088   1.034  0.3099 -0.7691 -0.6421
16183TIP3    H170040   2.264   4.108   1.126 -0.0320  1.1917 -1.0096
16183TIP3    H270041   2.338   4.069   1.000  0.5155 -0.7962 -0.0923
16184TIP3   OH270042   1.310   1.377  13.500 -0.5525 -0.0178 -0.5968
16184TIP3    H170043   1.370   1.451  13.503 -0.3297 -0.2449  1.2890
16184TIP3    H270044   1.318   1.342  13.411  1.1749  0.7007 -0.7319
16185TIP3   OH270045   1.250   5.122   0.058  0.2076 -0.2562 -1.2078
16185TIP3    H170046   1.288   5.037   0.080 -2.4069 -0.9816  0.7250
16185TIP3    H270047   1.309   5.186   0.097 -0.1189 -1.3279  1.0945
16186TIP3   OH270048   5.988   5.606   3.476  0.2200 -0.2673 -0.6566
16186TIP3    H170049   5.918   5.668   3.456  0.1103  0.4801  1.9028
16186TIP3    H270050   5.982   5.592   3.570  1.7308 -2.3905 -0.8474
16187TIP3   OH270051   5.127   3.965   1.826 -0.2025 -0.2105  0.2199
16187TIP3    H170052   5.066   4.030   1.862 -0.9069 -0.8810  0.2467
16187TIP3    H270053   5.072   3.890   1.806  0.6693 -0.9301  0.5198
16188TIP3   OH270054   0.788   1.784   3.861 -0.4273  0.0687  0.3743
16188TIP3    H170055   0.806   1.799   3.768 -1.2249 -0.6451  0.1006
16188TIP3    H270056   0.732   1.706   3.863 -0.4253  0.0809  1.4519
16189TIP3   OH270057   6.288   1.318   1.897  0.5320  0.0251  0.2839
16189TIP3    H170058   6.324   1.401   1.928  1.0126 -0.6815  1.6340
16189TIP3    H270059   6.362   1.273   1.857 -0.0181  0.7998 -1.6888
16190TIP3   OH270060   1.414   2.115   2.869  0.4662  0.2412  0.1217
16190TIP3    H170061   1.323   2.086   2.865  0.3322  0.4738  1.3391
16190TIP3    H270062   1.465   2.037   2.846 -0.0256  0.0944 -0.4983
16191TIP3   OH270063   2.801   1.272   4.214  0.8597  0.2082  0.7842
16191TIP3    H170064   2.869   1.336   4.235  1.8072  0.0337 -1.5722
16191TIP3    H270065   2.828   1.235   4.130 -1.8165 -0.3630  0.1273
16192TIP3   OH270066   3.442   3.347   5.783  0.6003 -0.5861 -0.4474
16192TIP3    H170067   3.365   3.357   5.840  0.0449 -1.4290 -1.0372
16192TIP3    H270068   3.415   3.383   5.699 -0.1675 -3.4331 -1.5048
16193TIP3   OH270069   0.596   5.429  12.725  0.2915 -0.3006 -0.5667
16193TIP3    H170070   0.676   5.478  12.745 -0.9438  1.3303  0.5050
16193TIP3    H270071   0.530   5.496  12.708 -2.0083 -1.4646  3.1122
16194TIP3   OH270072   5.784   2.953   0.891 -0.4184  0.4268 -0.4385
16194TIP3    H170073   5.850   2.973   0.824  0.6735 -1.7766 -0.0460
16194TIP3    H270074   5.834   2.951   0.973 -1.2348  0.2150  0.0511
16195TIP3   OH270075   3.549   2.602   3.279 -0.0633  0.3126  0.4344
16195TIP3    H170076   3.631   2.620   3.234 -0.5887 -0.7339 -0.9974
16195TIP3    H270077   3.534   2.508   3.264 -0.8709  0.2115  1.7743
16196TIP3   OH270078   1.289   6.373   0.420 -0.0077  0.3821  0.0692
16196TIP3    H170079   1.318   6.451   0.466  0.5758 -0.1598  0.6347
16196TIP3    H270080   1.278   6.401   0.329  0.0793  1.1463  0.2912
16197TIP3   OH270081   1.872   1.537  17.077 -0.0764  0.1817  0.5078
16197TIP3    H170082   1.872   1.620  17.125  0.7043  0.2889  0.3218
16197TIP3    H270083   1.809   1.551  17.006  0.8009  0.9656 -0.1179
16198TIP3   OH270084   0.356   1.315   2.733  0.4101  0.1431 -0.0232
16198TIP3    H170085   0.330   1.397   2.692 -0.4202 -0.5887 -0.9943
16198TIP3    H270086   0.278   1.259   2.728  1.5750 -1.4299 -1.3139
16199TIP3   OH270087   0.056   1.938   6.130 -0.1058 -0.7228  0.1910
16199TIP3    H170088  -0.021   1.920   6.184  0.9031 -1.5348  1.3743
16199TIP3    H270089   0.039   1.891   6.048 -0.5298 -1.5675  0.7488
16200TIP3   OH270090   1.386   4.043   4.559  0.3409  0.3317 -0.0128
16200TIP3    H170091   1.306   3.993   4.545  0.3735  0.2756 -0.0010
16200TIP3    H270092   1.451   3.977   4.583  0.5248  0.3065 -0.5594
16201TIP3   OH270093   4.076   1.536  15.415  0.0423 -0.9357 -0.0706
16201TIP3    H170094   4.155   1.497  15.451  0.0199 -0.4180  0.5563
16201TIP3    H270095   4.030   1.463  15.373  1.5014 -0.9825 -1.6226
16202TIP3   OH270096   4.138   2.060  11.058  0.3426 -0.1202 -0.0838
16202TIP3    H170097   4.119   2.101  11.143  3.1433  1.8891 -0.3487
16202TIP3    H270098   4.208   1.997  11.077  0.5765 -0.0731 -0.7759
16203TIP3   OH270099   0.308   2.080  10.314 -0.0049 -0.4588  0.2812
16203TIP3    H170100   0.312   2.044  10.402 -1.9802 -0.6446  0.3077
16203TIP3    H270101   0.372   2.152  10.315 -1.5629  0.9558  2.5461
16204TIP3   OH270102   3.158   4.411  10.644 -0.3530 -0.2666 -0.2098
16204TIP3    H170103   3.115   4.451  10.720  0.1302 -0.4632  0.1681
16204TIP3    H270104   3.096   4.423  10.573  0.1165  1.8862 -0.2970
16205TIP3   OH270105   1.711   2.786   4.089  0.1805  0.1426  0.1593
16205TIP3    H170106   1.669   2.803   4.004  0.3969 -0.7317 -0.1224
16205TIP3    H270107   1.747   2.698   4.081 -0.1411 -0.0978  1.2998
16206TIP3   OH270108   1.545   2.762   3.282 -0.3224 -0.4573  0.0463
16206TIP3    H170109   1.537   2.691   3.345 -0.1189 -0.5999 -0.0879
16206TIP3    H270110   1.625   2.742   3.234 -1.6406 -1.5350 -1.7543
16207TIP3   OH270111   6.655   4.966  14.173 -0.2145  0.5134  0.0406
16207TIP3    H170112   6.635   5.059  14.177  0.5956  0.6446  1.1759
16207TIP3    H270113   6.572   4.923  14.190 -0.4148  1.0287  0.3746
16208TIP3   OH270114   0.260   3.845   1.846  0.0049  0.2234 -0.0186
16208TIP3    H170115   0.300   3.882   1.924 -1.3846  0.3939  0.6353
16208TIP3    H270116   0.275   3.751   1.853 -0.2994  0.2191  0.5578
16209TIP3   OH270117   3.022   3.749  11.122 -0.2659 -0.2276  0.1719
16209TIP3    H170118   3.101   3.703  11.093  0.1612  0.7490 -0.2373
16209TIP3    H270119   2.951   3.709  11.071 -0.0546 -1.1842  0.6190
16210TIP3   OH270120   2.574   1.782  17.123 -0.2923  0.3746 -0.7141
16210TIP3    H170121   2.533   1.855  17.077 -1.2199 -0.0904 -0.6503
16210TIP3    H270122   2.545   1.704  17.075  0.2968  0.0235 -0.5008
16211TIP3   OH270123   4.991   3.272   0.727  0.1688  0.6929  0.2704
16211TIP3    H170124   5.074   3.236   0.695  0.0062  0.9296 -0.4419
16211TIP3    H270125   4.929   3.255   0.656 -0.1403  1.4578  0.3475
16212TIP3   OH270126   1.805   0.580   5.417  0.4104  0.1828  0.5576
16212TIP3    H170127   1.735   0.629   5.374 -0.8063 -0.1842  2.0881
16212TIP3    H270128   1.851   0.645   5.470 -1.0737 -0.2660  2.4249
16213TIP3   OH270129   5.705   2.567   5.882 -1.1365 -0.5098 -0.0634
16213TIP3    H170130   5.733   2.659   5.883 -1.1094 -0.5009 -0.7739
16213TIP3    H270131   5.783   2.518   5.906 -0.6700 -0.4471 -1.4043
16214TIP3   OH270132   4.922   2.292  16.156  0.0375  0.5723  0.3810
16214TIP3    H170133   4.923   2.264  16.065 -0.3845  2.1708 -0.1441
16214TIP3    H270134   4.831   2.316  16.173 -0.0759 -0.6069  1.5195
16215TIP3   OH270135   3.066   3.138   6.221 -0.2688 -0.0323  0.9301
16215TIP3    H170136   3.144   3.192   6.209  0.6862 -1.5423  0.1977
16215TIP3    H270137   3.047   3.143   6.314  0.7147  0.3526  1.1129
16216TIP3   OH270138   5.153   4.429  10.836  0.0127 -0.1821  0.3040
16216TIP3    H170139   5.234   4.413  10.885 -0.0201  3.5526  1.7232
16216TIP3    H270140   5.182   4.472  10.756 -0.4198 -0.4474  0.0056
16217TIP3   OH270141   1.780   1.636  13.745 -0.0919 -0.1482 -0.0967
16217TIP3    H170142   1.700   1.636  13.797  0.3284 -0.9303  0.5650
16217TIP3    H270143   1.781   1.721  13.702 -0.3871  0.5394  1.2508
16218TIP3   OH270144   2.456   6.370  13.782  0.2106 -0.4715 -0.2291
16218TIP3    H170145   2.464   6.310  13.708 -0.0160  0.0043 -0.6341
16218TIP3    H270146   2.406   6.444  13.749  0.2883 -0.1602  0.3400
16219TIP3   OH270147   4.038   4.329   1.105 -0.2231 -0.0076  0.6342
16219TIP3    H170148   4.065   4.401   1.161  0.7269  0.2900 -0.1899
16219TIP3    H270149   3.981   4.371   1.040  1.4749  0.2787 -0.7096
16220TIP3   OH270150   2.066   5.205  11.076 -0.8182  0.0393  0.1021
16220TIP3    H170151   2.013   5.251  11.011  0.1255 -0.1133 -0.7706
16220TIP3    H270152   2.001   5.159  11.131 -1.5648 -0.7370 -1.4088
16221TIP3   OH270153   0.214   3.535  11.255  0.1643  0.6281  0.5976
16221TIP3    H170154   0.298   3.540  11.302  0.3772 -0.4150  0.3459
16221TIP3    H270155   0.182   3.625  11.253  0.3010  0.7389  2.4709
16222TIP3   OH270156   2.055   3.127  16.020  0.2846  0.6271 -0.0642
16222TIP3    H170157   2.048   3.038  16.054 -0.3763 -0.0159 -1.8130
16222TIP3    H270158   2.038   3.183  16.095  3.1877 -0.6595  1.6751
16223TIP3   OH270159   2.474   0.589   2.161  0.4956  0.1994 -0.7339
16223TIP3    H170160   2.426   0.535   2.223  0.8459  2.2092  1.3659
16223TIP3    H270161   2.533   0.528   2.116  0.5488 -1.2221  1.2326
16224TIP3   OH270162   3.878   2.298   6.515 -0.3808  0.0200  0.0070
16224TIP3    H170163   3.872   2.392   6.530 -1.0018  0.2498 -1.5523
16224TIP3    H270164   3.903   2.290   6.423  1.2570 -1.3254  0.5388
16225TIP3   OH270165   2.034   6.055  16.257  0.3749  0.1456  0.0001
16225TIP3    H170166   2.061   6.147  16.254  1.1807 -0.1184 -1.5699
16225TIP3    H270167   2.039   6.031  16.350  0.0573  1.7082  0.4232
16226TIP3   OH270168   3.342   3.012   4.613  0.2977 -0.6427  0.4039
16226TIP3    H170169   3.347   2.990   4.520  2.0783 -0.2986  0.4105
16226TIP3    H270170   3.268   3.073   4.618 -0.1183 -1.0264 -0.7081
16227TIP3   OH270171   5.273   1.056   2.043 -0.4198  0.6429  1.1084
16227TIP3    H170172   5.237   1.061   1.955  1.0794  0.4121  0.4682
16227TIP3    H270173   5.322   0.974   2.045 -0.9427  0.3455  2.3580
16228TIP3   OH270174   4.293   5.874  11.283  0.1106 -0.2218  0.2375
16228TIP3    H170175   4.361   5.864  11.216 -0.9223 -1.0834 -0.7000
16228TIP3    H270176   4.242   5.950  11.254  1.0856  0.8604  1.3149
16229TIP3   OH270177   1.371   4.719   5.888  0.3671 -0.2055  0.3987
16229TIP3    H170178   1.452   4.712   5.938  0.3504 -0.2045  0.4260
16229TIP3    H270179   1.369   4.640   5.834  0.3476 -0.2440  0.4561
16230TIP3   OH270180   1.197   3.491   6.323 -0.0111 -0.8997  0.0070
16230TIP3    H170181   1.278   3.499   6.374 -0.3943 -1.0783  0.6534
16230TIP3    H270182   1.127   3.498   6.389 -0.4901 -2.7866 -0.2767
16231TIP3   OH270183   4.655   1.646   5.808 -0.4706 -0.6239 -0.4062
16231TIP3    H170184   4.670   1.600   5.726  0.1482  1.7922 -1.6631
16231TIP3    H270185   4.741   1.677   5.835 -0.8701 -0.2360  0.4580
16232TIP3   OH270186   1.542   0.047  14.712 -0.2188 -0.1864  0.1267
16232TIP3    H170187   1.530   0.124  14.656  2.8930 -0.5693 -1.1439
16232TIP3    H270188   1.505  -0.025  14.662 -0.8414  0.0671  0.2161
16233TIP3   OH270189   6.797   3.034  16.392 -0.1174 -0.3926  0.1345
16233TIP3    H170190   6.782   3.038  16.297  1.3309 -1.2399 -0.1349
16233TIP3    H270191   6.848   3.113  16.412 -0.7636 -0.0068  0.2836
16234TIP3   OH270192   0.228   3.938  11.950 -0.7249  0.6582 -0.0130
16234TIP3    H170193   0.231   3.849  11.985 -1.0410 -0.1753 -2.0058
16234TIP3    H270194   0.138   3.967  11.966 -1.9651 -1.1210 -3.3548
16235TIP3   OH270195   5.686   4.062  16.101 -0.1131  0.1063  0.2276
16235TIP3    H170196   5.688   4.144  16.053 -1.7677  1.3358  2.1549
16235TIP3    H270197   5.717   4.085  16.189 -0.7581 -1.2709  0.8389
16236TIP3   OH270198   1.477   6.696   4.103 -0.7050 -0.2592 -0.8130
16236TIP3    H170199   1.417   6.740   4.165  1.5048  0.3059  0.9976
16236TIP3    H270200   1.521   6.768   4.058 -0.8113 -0.6729 -1.5807
16237TIP3   OH270201   0.752   4.131  14.924 -0.4954 -0.2694  0.0706
16237TIP3    H170202   0.781   4.085  15.003  0.0653  0.5278  0.3387
16237TIP3    H270203   0.777   4.222  14.939 -0.3134 -0.1233 -1.0581
16238TIP3   OH270204   1.491   5.065  13.513  0.3313 -0.2201  0.2098
16238TIP3    H170205   1.451   5.151  13.526  1.8849  0.0605  3.7095
16238TIP3    H270206   1.419   5.003  13.526 -0.3337  0.4759 -0.1345
16239TIP3   OH270207   2.176   5.962  12.100  0.1173 -0.4190  0.3104
16239TIP3    H170208   2.118   5.892  12.130  1.4691 -1.6295  0.1663
16239TIP3    H270209   2.142   5.987  12.014 -0.0994 -1.2304  0.1568
16240TIP3   OH270210   2.888   0.205  14.892 -0.2104  0.1221 -0.1117
16240TIP3    H170211   2.952   0.263  14.933 -0.1059 -0.0940  0.0339
16240TIP3    H270212   2.863   0.143  14.961 -1.7786  1.1890  0.3052
16241TIP3   OH270213   1.125   0.742  15.619 -0.0240 -0.3767 -0.2009
16241TIP3    H170214   1.129   0.657  15.664 -1.6796 -0.0302  0.6416
16241TIP3    H270215   1.041   0.741  15.574  0.4994  0.3375 -1.2051
16242TIP3   OH270216   0.994   3.974   3.423 -0.2946 -0.2287 -0.0808
16242TIP3    H170217   0.995   3.888   3.381  0.6214  0.2624 -1.0891
16242TIP3    H270218   0.979   4.035   3.351 -2.2964  0.3641  0.8234
16243TIP3   OH270219   6.147   6.489   1.360  0.3319 -0.0479  0.2227
16243TIP3    H170220   6.124   6.541   1.283 -0.5273 -1.3572 -0.4249
16243TIP3    H270221   6.204   6.546   1.411  0.5796  0.9931 -1.1786
16244TIP3   OH270222   5.944   3.083  12.830 -0.0487 -0.2349 -0.4252
16244TIP3    H170223   5.965   3.152  12.893 -1.8086  0.5529 -0.6934
16244TIP3    H270224   5.958   3.124  12.744 -3.0764  0.4626 -0.6238
16245TIP3   OH270225   4.959   5.128   3.536  0.7170 -0.1049 -0.2542
16245TIP3    H170226   4.960   5.089   3.624 -0.8648 -3.9496 -1.8130
16245TIP3    H270227   5.047   5.112   3.502  0.5957 -0.7795 -0.2532
16246TIP3   OH270228   3.813   2.422  16.721 -0.1097  0.5091 -0.5276
16246TIP3    H170229   3.783   2.485  16.787 -0.1743 -1.4156  1.3564
16246TIP3    H270230   3.881   2.469  16.672  0.9521  1.5648  1.8571
16247TIP3   OH270231   4.713   6.225  11.613  0.0223 -0.4579 -1.0256
16247TIP3    H170232   4.728   6.297  11.674 -0.4921  0.0350 -1.4698
16247TIP3    H270233   4.621   6.201  11.626 -0.2850  0.1083 -2.0791
16248TIP3   OH270234   6.652   6.333   1.469  0.5630  0.1470 -0.3924
16248TIP3    H170235   6.562   6.333   1.503  0.5587 -1.5587 -0.3951
16248TIP3    H270236   6.653   6.404   1.405 -0.7601  0.2236 -0.3416
16249TIP3   OH270237   2.667   4.203  13.382  0.5447 -0.0767  0.2999
16249TIP3    H170238   2.743   4.175  13.332  1.6563 -0.7276  2.2907
16249TIP3    H270239   2.666   4.298  13.373  1.9379 -0.0152  0.7306
16250TIP3   OH270240   5.030   0.876   2.630  0.3897 -0.4577  0.6909
16250TIP3    H170241   5.046   0.939   2.559 -0.0469  0.4479  1.3807
16250TIP3    H270242   4.969   0.921   2.688  0.4956 -1.3200  1.4768
16251TIP3   OH270243   2.027   0.209   1.720  0.6753  0.1358  0.3389
16251TIP3    H170244   1.954   0.151   1.742  1.1999 -0.5398  0.3402
16251TIP3    H270245   1.990   0.273   1.659  0.3798 -0.9840 -0.6822
16252TIP3   OH270246   2.719   2.005  17.248  0.1101  0.6028  0.5304
16252TIP3    H170247   2.694   1.937  17.185  0.6359  1.3061 -0.4551
16252TIP3    H270248   2.639   2.024  17.297  0.0243 -0.9020  0.9919
16253TIP3   OH270249   1.207   3.939  16.736 -0.0691  0.2367 -0.3813
16253TIP3    H170250   1.194   3.950  16.830 -2.3571 -0.7272 -0.5367
16253TIP3    H270251   1.163   4.015  16.697  1.6078  1.0895 -0.6716
16254TIP3   OH270252   3.554   2.695  16.417 -0.2404 -0.0502  0.0639
16254TIP3    H170253   3.512   2.700  16.502 -0.2730 -2.0090  0.1831
16254TIP3    H270254   3.644   2.670  16.435 -0.5922 -1.8693 -0.5142
16255TIP3   OH270255   5.215   5.905   1.101 -0.3832 -0.8363  0.2089
16255TIP3    H170256   5.188   5.845   1.032  1.3774 -0.9514 -0.4164
16255TIP3    H270257   5.304   5.876   1.124  1.2268  2.5895 -1.3384
16256TIP3   OH270258   4.639   1.430   2.583  0.8658  0.0177 -0.5514
16256TIP3    H170259   4.629   1.450   2.676  0.8831 -1.0302 -0.3205
16256TIP3    H270260   4.557   1.388   2.558  2.0432 -2.6073 -0.2255
16257TIP3   OH270261   0.043   2.225   4.460  0.1081 -0.2804  0.0407
16257TIP3    H170262   0.055   2.144   4.413  0.8625  0.5716 -1.2570
16257TIP3    H270263   0.079   2.293   4.403 -0.7386  1.0028  0.9760
16258TIP3   OH270264   4.326   3.713   4.178  0.3779  0.1548 -0.0778
16258TIP3    H170265   4.358   3.648   4.241  1.2511  0.2953 -0.3666
16258TIP3    H270266   4.395   3.780   4.175 -0.0379  0.5668 -0.5561
16259TIP3   OH270267   1.274   0.733   3.337 -0.5728 -0.3552 -0.0433
16259TIP3    H170268   1.199   0.678   3.362 -1.9047  1.4078 -0.0788
16259TIP3    H270269   1.251   0.765   3.249  0.3171  0.0388 -0.1346
16260TIP3   OH270270   2.760   3.303  15.710  0.0994  0.1287 -0.5543
16260TIP3    H170271   2.802   3.235  15.763  1.1633  1.7396  0.7389
16260TIP3    H270272   2.667   3.280  15.710  0.2871 -0.6708  0.8419
16261TIP3   OH270273   1.261   0.395  15.184  0.3200  0.9390  0.2125
16261TIP3    H170274   1.228   0.470  15.233  1.5346  1.7086 -0.1316
16261TIP3    H270275   1.347   0.423  15.152 -0.0116  0.0886 -1.4839
16262TIP3   OH270276   5.417   3.978   3.851  0.2682 -0.3338 -0.1336
16262TIP3    H170277   5.416   4.072   3.834 -1.4700 -0.2248  0.4116
16262TIP3    H270278   5.503   3.960   3.888  1.4551  0.6457 -2.3330
16263TIP3   OH270279   3.973   2.426   0.889 -0.2480 -0.3060  0.5541
16263TIP3    H170280   4.054   2.444   0.842 -0.8555 -1.7326 -1.0840
16263TIP3    H270281   3.904   2.452   0.828 -1.0386  0.0402  1.5817
16264TIP3   OH270282   5.373   4.016   2.800 -0.3706 -0.0811 -0.0413
16264TIP3    H170283   5.293   3.964   2.807  0.0476 -0.7316 -0.0292
16264TIP3    H270284   5.401   4.005   2.709 -0.4304  0.3431 -0.1101
16265TIP3   OH270285   4.175   0.965   1.381  0.9014  0.0765 -0.2816
16265TIP3    H170286   4.188   1.035   1.444 -0.0479 -0.2408  0.2909
16265TIP3    H270287   4.140   1.009   1.303 -0.5568  0.1610  0.3872
16266TIP3   OH270288   0.749   1.526   2.766 -0.0610 -0.1048  0.0117
16266TIP3    H170289   0.777   1.510   2.676 -0.8147 -2.3488  0.1235
16266TIP3    H270290   0.689   1.600   2.760 -1.3958 -1.2749 -1.5954
16267TIP3   OH270291   0.782   1.127   2.158  0.0496 -0.2810 -0.8084
16267TIP3    H170292   0.800   1.149   2.067  0.2893  2.6518 -0.0915
16267TIP3    H270293   0.688   1.141   2.168  0.4407  1.8845  0.0188
16268TIP3   OH270294   2.745   1.918   4.462  0.3871  0.0573 -0.3580
16268TIP3    H170295   2.797   1.907   4.383 -0.0158  0.3742 -0.6712
16268TIP3    H270296   2.798   1.880   4.532 -0.2336 -2.2195 -1.1156
16269TIP3   OH270297   0.213   4.424  14.586 -0.0557 -0.8191  0.3632
16269TIP3    H170298   0.289   4.468  14.624 -1.0656  1.1576  0.2176
16269TIP3    H270299   0.233   4.331  14.591  1.0595 -0.4782  3.1284
16270TIP3   OH270300   1.090   3.699  14.476 -0.1552  0.1159  0.3335
16270TIP3    H170301   1.061   3.609  14.465 -0.0295 -0.0033  0.9434
16270TIP3    H270302   1.010   3.751  14.477 -0.1575  0.1881 -1.5293
16271TIP3   OH270303   1.905   1.663   1.184  0.5124 -0.0520 -0.0882
16271TIP3    H170304   1.927   1.581   1.141 -0.7080 -1.3868  1.7362
16271TIP3    H270305   1.815   1.682   1.156 -0.3055 -0.9512  1.8125
16272TIP3   OH270306   3.843   0.509   3.231 -0.0057  0.2228  0.3556
16272TIP3    H170307   3.881   0.596   3.217  1.4632 -0.4641  0.0598
16272TIP3    H270308   3.844   0.469   3.145 -0.6473 -0.1153  0.5043
16273TIP3   OH270309   6.188   5.409   2.474 -0.0037  0.3340  0.1978
16273TIP3    H170310   6.106   5.377   2.436 -0.8830  0.0731  2.2650
16273TIP3    H270311   6.186   5.377   2.564  0.7219  3.3119  1.3084
16274TIP3   OH270312   1.124   6.006  15.910 -0.2742 -0.1137 -0.4916
16274TIP3    H170313   1.171   6.080  15.949 -0.4827 -0.4671  0.4391
16274TIP3    H270314   1.099   5.951  15.984  0.0842 -1.2497 -1.1941
16275TIP3   OH270315   3.659   6.421  17.195  0.1858  0.0078  1.0935
16275TIP3    H170316   3.726   6.484  17.223  0.8251 -0.0190 -0.3429
16275TIP3    H270317   3.584   6.475  17.170  1.4394  0.3982 -2.1178
16276TIP3   OH270318   0.514   6.653  15.203 -0.2765 -0.1009  0.6431
16276TIP3    H170319   0.483   6.740  15.181 -2.1979 -0.5790  1.3375
16276TIP3    H270320   0.573   6.630  15.132 -1.3696  0.9380 -0.6408
16277TIP3   OH270321   2.650   3.095  16.855 -0.1048 -0.9483 -0.1991
16277TIP3    H170322   2.555   3.086  16.859 -0.0326 -1.7629 -0.1588
16277TIP3    H270323   2.683   3.009  16.883  0.6487 -0.4816  0.3611
16278TIP3   OH270324   3.113   1.260   2.883  0.2511  0.2116  0.2723
16278TIP3    H170325   3.058   1.193   2.924  1.9591 -0.9702  0.6996
16278TIP3    H270326   3.118   1.330   2.948  1.7176 -1.0070  1.5107
16279TIP3   OH270327   5.135   3.691   6.107 -0.7241  0.1642  0.3870
16279TIP3    H170328   5.052   3.644   6.116 -0.1908 -0.8134  0.2171
16279TIP3    H270329   5.184   3.668   6.186 -0.9266  1.3920  0.8858
16280TIP3   OH270330   0.527   4.519  16.947  0.0463  0.2525  0.2553
16280TIP3    H170331   0.602   4.526  17.007  1.3771 -2.0621 -1.0604
16280TIP3    H270332   0.562   4.473  16.871 -2.2057  1.1118 -1.3337
16281TIP3   OH270333   3.767   5.720   0.920 -0.0941  0.3436  0.3218
16281TIP3    H170334   3.726   5.659   0.982 -1.8036  2.2604  1.1507
16281TIP3    H270335   3.859   5.697   0.922 -0.6669 -2.0766  0.7622
16282TIP3   OH270336   4.164   5.052   1.328  0.0546  0.2028  0.2943
16282TIP3    H170337   4.173   5.138   1.371 -0.3527  0.7064 -0.6217
16282TIP3    H270338   4.086   5.060   1.275 -1.0829 -1.3817  1.6751
16283TIP3   OH270339   3.535   2.413  11.671  0.5258  0.0529 -0.5632
16283TIP3    H170340   3.537   2.322  11.701  1.4008  0.9256  2.2170
16283TIP3    H270341   3.624   2.429  11.638  1.3849  0.7963  1.9752
16284TIP3   OH270342   6.073   1.308  15.356 -0.1269  0.0146 -0.2435
16284TIP3    H170343   6.107   1.395  15.374  1.0018 -0.4324 -0.1693
16284TIP3    H270344   6.004   1.295  15.421  0.8659  0.1738  0.8537
16285TIP3   OH270345   0.165   5.019   1.106  0.3492 -0.5345  0.1956
16285TIP3    H170346   0.170   5.032   1.200  1.0680  0.5412  0.0153
16285TIP3    H270347   0.071   5.018   1.087  0.1797 -1.5600  1.0143
16286TIP3   OH270348   4.012   5.501  12.375 -0.1107 -0.6033 -0.1061
16286TIP3    H170349   4.040   5.547  12.296 -0.4365 -1.1407 -0.5417
16286TIP3    H270350   4.005   5.410  12.348 -1.6680 -0.5705  0.1501
16287TIP3   OH270351   3.070   6.144   2.938  0.3064 -0.0368  0.0525
16287TIP3    H170352   3.121   6.223   2.953  0.0085  0.4510 -1.3473
16287TIP3    H270353   3.080   6.128   2.844  0.0087 -1.4154  0.2503
16288TIP3   OH270354   6.804   6.595   5.366 -0.1785 -0.1790 -0.1631
16288TIP3    H170355   6.791   6.536   5.292 -1.0140 -0.7496  0.4340
16288TIP3    H270356   6.871   6.656   5.336 -0.3735 -0.5190 -1.3244
16289TIP3   OH270357   0.170   5.369   0.404  0.5950  0.6784  0.1316
16289TIP3    H170358   0.101   5.412   0.353 -1.8139 -2.3867  0.6659
16289TIP3    H270359   0.201   5.299   0.348  0.3549 -0.5519  1.5034
16290TIP3   OH270360   3.116   1.366   2.167  0.2396 -0.0983  0.4303
16290TIP3    H170361   3.064   1.438   2.202  1.3399  1.2589 -0.6533
16290TIP3    H270362   3.121   1.384   2.073 -0.4741 -2.2527 -0.0489
16291TIP3   OH270363   0.590   1.302   4.459 -0.1411  0.5422  0.3674
16291TIP3    H170364   0.559   1.247   4.388  0.3967 -0.3399  0.8165
16291TIP3    H270365   0.584   1.391   4.425  0.2600  0.1148 -0.8303
16292TIP3   OH270366   5.664   1.090  11.319 -0.1842  0.0239 -0.3541
16292TIP3    H170367   5.716   1.160  11.279 -1.0933  1.5572  1.1423
16292TIP3    H270368   5.729   1.023  11.342  1.3354  2.3268  2.3664
16293TIP3   OH270369   3.836   5.238   0.122  0.0530 -0.1882 -0.0743
16293TIP3    H170370   3.864   5.311   0.178  0.1173  0.0293 -0.3883
16293TIP3    H270371   3.873   5.259   0.036  0.1216 -0.6223 -0.1478
16294TIP3   OH270372   4.430   4.993  14.647 -0.7353 -0.1956  0.4421
16294TIP3    H170373   4.335   4.982  14.644 -0.7773  0.2075  0.2468
16294TIP3    H270374   4.442   5.084  14.675 -0.4084 -0.2603  0.5063
16295TIP3   OH270375   0.018   5.232  17.162  0.0406 -0.1956  0.0655
16295TIP3    H170376   0.090   5.205  17.218 -0.7570  0.0316  1.2213
16295TIP3    H270377   0.034   5.188  17.078  1.7313  0.1919  0.1795
16296TIP3   OH270378   1.000   1.244  17.152  0.5377 -0.1696  0.3386
16296TIP3    H170379   0.989   1.311  17.220 -1.6507  0.0255 -0.1656
16296TIP3    H270380   1.019   1.164  17.200 -0.2969  0.1086  1.1486
16297TIP3   OH270381   4.840   6.287  14.187  0.0062 -0.3616 -0.0731
16297TIP3    H170382   4.825   6.235  14.266 -0.4375 -0.5399 -0.2700
16297TIP3    H270383   4.928   6.263  14.159  0.2159 -0.1948  0.4450
16298TIP3   OH270384   0.510   4.459  15.395  0.0465 -0.0879 -0.2544
16298TIP3    H170385   0.484   4.447  15.304  0.9176  1.0802 -0.6652
16298TIP3    H270386   0.466   4.540  15.422  0.5149  0.0584  0.0845
16299TIP3   OH270387   2.687   4.469   4.408  0.2384 -0.4511  0.1937
16299TIP3    H170388   2.654   4.555   4.381  0.9763 -0.7605 -1.7513
16299TIP3    H270389   2.620   4.436   4.467 -1.0022  0.6391 -0.5645
16300TIP3   OH270390   3.877   2.056   1.924 -0.1281 -0.3460  0.1614
16300TIP3    H170391   3.874   2.030   2.016  0.3407 -1.5581 -0.1691
16300TIP3    H270392   3.938   2.130   1.923 -1.1010  0.4857  1.0190
16301TIP3   OH270393   3.376   6.419   2.106 -0.0320 -0.0297  0.3563
16301TIP3    H170394   3.293   6.465   2.121 -0.6303 -1.5571  1.8969
16301TIP3    H270395   3.352   6.326   2.110  1.5143 -0.4859 -0.6544
16302TIP3   OH270396   2.388   1.416   0.571 -0.4530 -0.2148 -0.0953
16302TIP3    H170397   2.449   1.392   0.501 -0.8509 -0.3232 -0.4073
16302TIP3    H270398   2.318   1.350   0.565 -0.8637  0.2204 -0.0793
16303TIP3   OH270399   4.916   4.154   1.868 -0.1428  0.6452 -0.3201
16303TIP3    H170400   4.943   4.221   1.805  2.7443 -0.4321 -0.2926
16303TIP3    H270401   4.827   4.179   1.893 -1.1560  1.4175 -4.3715
16304TIP3   OH270402   3.212   0.900   1.909 -0.0872 -0.1284 -0.1413
16304TIP3    H170403   3.148   0.966   1.936 -0.0011  0.5197 -1.4706
16304TIP3    H270404   3.236   0.856   1.990  0.9922  2.4851  1.0444
16305TIP3   OH270405   0.556   6.415   4.505 -0.4319 -0.3071 -0.1833
16305TIP3    H170406   0.590   6.381   4.422  0.0069  0.7821 -0.4540
16305TIP3    H270407   0.600   6.499   4.517  0.6636 -1.1286  1.8990
16306TIP3   OH270408   6.740   3.343   4.868 -0.3468  0.4909 -0.7893
16306TIP3    H170409   6.764   3.420   4.819  2.1134  0.3326  0.1170
16306TIP3    H270410   6.756   3.366   4.960  1.5678 -1.4436 -0.5833
16307TIP3   OH270411   0.529   3.087  11.951  0.5701 -0.3756  0.9923
16307TIP3    H170412   0.536   3.003  11.906 -0.0337 -0.2777  0.7046
16307TIP3    H270413   0.459   3.133  11.904 -0.1826 -0.3428  2.1410
16308TIP3   OH270414   5.204   0.331   5.598 -0.1032 -0.4516 -0.1519
16308TIP3    H170415   5.137   0.278   5.642 -0.6622 -0.7382 -1.3329
16308TIP3    H270416   5.222   0.285   5.516  3.3248 -1.6830  1.1893
16309TIP3   OH270417   3.154   6.417  15.497  0.3470 -0.3361  0.1863
16309TIP3    H170418   3.205   6.419  15.417 -2.1742 -1.0888 -1.5095
16309TIP3    H270419   3.213   6.382  15.563  2.1176 -0.7878 -1.5997
16310TIP3   OH270420   5.856   1.167  11.577  0.1104  0.3099  0.2296
16310TIP3    H170421   5.933   1.200  11.530 -0.3366  1.7452  0.4858
16310TIP3    H270422   5.834   1.236  11.639 -2.7457  0.9358 -1.3878
16311TIP3   OH270423   1.214   5.617   5.884  0.6854  0.5649  0.1017
16311TIP3    H170424   1.147   5.574   5.937 -1.3029  0.1966 -2.6051
16311TIP3    H270425   1.246   5.548   5.826 -0.5811  2.0316 -2.3997
16312TIP3   OH270426   5.070   3.896  11.817 -0.3508  0.4736  0.3529
16312TIP3    H170427   5.028   3.894  11.903  1.1597  0.2888  1.0968
16312TIP3    H270428   5.163   3.904  11.836  0.1425 -1.2900 -1.2442
16313TIP3   OH270429   4.261   2.366   2.468 -0.6018 -0.1993  0.3863
16313TIP3    H170430   4.179   2.382   2.515 -0.5423  1.6806 -0.1300
16313TIP3    H270431   4.329   2.390   2.531 -0.4258 -1.4504  0.6991
16314TIP3   OH270432   4.481   0.106  12.227  0.1163 -0.0645  0.3457
16314TIP3    H170433   4.388   0.091  12.241 -0.2570 -0.1521 -2.1543
16314TIP3    H270434   4.524   0.032  12.270 -0.9637 -0.1867  1.2348
16315TIP3   OH270435   4.076   5.707   0.841  0.1958  0.5263 -0.0268
16315TIP3    H170436   4.141   5.767   0.877 -0.8537  1.7374 -0.1197
16315TIP3    H270437   4.071   5.731   0.748 -1.3954  1.3908  0.2681
16316TIP3   OH270438   3.664   4.835  13.874 -0.0437  0.0273  0.1438
16316TIP3    H170439   3.583   4.792  13.847  0.7286 -0.0792 -2.1122
16316TIP3    H270440   3.731   4.767  13.865  0.6307  0.7087 -0.0638
16317TIP3   OH270441   0.713   2.432  13.520 -0.4725  0.4356  0.4465
16317TIP3    H170442   0.731   2.470  13.434 -0.7335 -1.4202 -0.4456
16317TIP3    H270443   0.777   2.362  13.530 -1.9663 -0.9176  0.7315
16318TIP3   OH270444   1.273   4.846   1.434  0.0839  0.2737  0.6176
16318TIP3    H170445   1.181   4.822   1.448  0.2697  0.5375  2.5132
16318TIP3    H270446   1.276   4.940   1.451  0.5714  0.4050 -0.1938
16319TIP3   OH270447   0.408   5.449   5.408 -0.0700 -0.2269 -0.0084
16319TIP3    H170448   0.472   5.451   5.337 -0.7937  1.3530 -0.6541
16319TIP3    H270449   0.333   5.498   5.374 -0.2168  1.0447  2.0261
16320TIP3   OH270450   3.932   3.810   5.089 -0.3199  0.3655  0.1311
16320TIP3    H170451   3.930   3.738   5.025 -0.3008 -1.2797  1.9422
16320TIP3    H270452   3.969   3.884   5.040 -1.3068 -0.5437 -2.0656
16321TIP3   OH270453   6.496   1.531  14.716  0.0381  0.1188 -0.1202
16321TIP3    H170454   6.410   1.511  14.677  0.1477 -0.8837  0.1278
16321TIP3    H270455   6.521   1.615  14.679 -1.3207  0.6906  0.2301
16322TIP3   OH270456   6.721   1.955   4.933 -0.1520 -0.1063 -0.5004
16322TIP3    H170457   6.752   1.955   5.024 -1.5357 -0.4555 -0.0105
16322TIP3    H270458   6.728   2.046   4.905 -2.4113  0.5429  0.9210
16323TIP3   OH270459   6.399   4.286   3.952 -0.3112  0.2179 -0.1621
16323TIP3    H170460   6.334   4.242   4.007 -0.3962  0.9050  0.2996
16323TIP3    H270461   6.442   4.215   3.903 -1.3213 -0.2520 -0.3795
16324TIP3   OH270462   4.561   1.285   4.952  0.2168  0.8831 -0.1319
16324TIP3    H170463   4.503   1.315   4.883 -1.7996  0.0837  1.1514
16324TIP3    H270464   4.536   1.193   4.966  1.3367  0.7185  0.9096
16325TIP3   OH270465   6.448   5.485   3.073 -0.3101 -0.5669  0.4758
16325TIP3    H170466   6.459   5.454   2.983 -1.0737 -0.1903  0.2515
16325TIP3    H270467   6.524   5.449   3.120  0.2961 -0.4464 -0.3971
16326TIP3   OH270468   4.650   5.001  13.060  0.4158  0.2583 -0.0676
16326TIP3    H170469   4.695   4.920  13.084 -0.5627  0.3614  2.2457
16326TIP3    H270470   4.701   5.070  13.103 -0.3920  0.6224  0.2982
16327TIP3   OH270471   5.646   5.969  16.648 -0.4627  0.0734 -0.5436
16327TIP3    H170472   5.603   5.890  16.617 -2.5945  0.8214  0.3703
16327TIP3    H270473   5.659   6.022  16.570  0.5123 -0.9398 -1.0861
16328TIP3   OH270474   3.627   4.806   0.536 -0.3597 -0.2866  0.0011
16328TIP3    H170475   3.556   4.769   0.588 -0.3799  1.2156  1.0719
16328TIP3    H270476   3.704   4.798   0.592  0.3453 -1.9167 -1.1593
16329TIP3   OH270477   5.090   2.672  11.246  0.4593 -0.2706  0.4020
16329TIP3    H170478   5.141   2.612  11.190  0.3160  0.7965 -0.9081
16329TIP3    H270479   5.023   2.617  11.285  0.4730 -1.0183 -0.5989
16330TIP3   OH270480   3.461   2.148   6.316 -0.3456 -0.1097 -0.0931
16330TIP3    H170481   3.411   2.220   6.355  0.9806 -0.2421  1.8818
16330TIP3    H270482   3.547   2.185   6.299 -0.8274 -0.1102 -2.7906
16331TIP3   OH270483   0.476   2.297  10.352 -0.5384 -0.3413 -0.0958
16331TIP3    H170484   0.475   2.373  10.294  0.8727  0.6299  1.1039
16331TIP3    H270485   0.520   2.328  10.431 -0.7567 -2.1615  0.7684
16332TIP3   OH270486   6.362   0.373  13.151 -0.3653  0.0767  0.1610
16332TIP3    H170487   6.394   0.430  13.081 -1.5845  0.9290  0.2717
16332TIP3    H270488   6.275   0.346  13.121  0.0451 -1.4024  0.3027
16333TIP3   OH270489   6.193   5.350  12.769 -0.0138  0.5009 -0.2689
16333TIP3    H170490   6.125   5.327  12.706  0.0938  0.1666 -0.2623
16333TIP3    H270491   6.151   5.414  12.827 -0.1277  0.7678 -0.6439
16334TIP3   OH270492   6.380   4.326  11.120 -0.0611  0.4449  0.3222
16334TIP3    H170493   6.460   4.373  11.143  0.5893 -0.8547  0.7086
16334TIP3    H270494   6.315   4.358  11.183  0.9887 -0.9358  2.1473
16335TIP3   OH270495   0.493   2.128   1.360  0.4616  0.2222 -0.2602
16335TIP3    H170496   0.524   2.070   1.290  0.4271  0.0654 -0.1443
16335TIP3    H270497   0.482   2.071   1.436 -0.8335  0.1307 -0.5017
16336TIP3   OH270498   6.659   4.926   0.214 -0.0194  0.2686  0.2090
16336TIP3    H170499   6.615   4.970   0.287  2.1978  2.2869  0.3850
16336TIP3    H270500   6.591   4.915   0.148 -1.9328 -1.0939  2.3429
16337TIP3   OH270501   0.705   1.808  14.872 -0.1688 -0.5804 -0.2333
16337TIP3    H170502   0.702   1.832  14.779  0.6124 -0.6070 -0.2743
16337TIP3    H270503   0.699   1.712  14.872 -0.1699 -0.5803 -0.2583
16338TIP3   OH270504   0.347   2.812  11.925  0.0042  0.6441 -1.2476
16338TIP3    H170505   0.389   2.779  11.845  2.0887  2.3356 -0.8956
16338TIP3    H270506   0.395   2.769  11.996  0.7746  2.1472 -0.8483
16339TIP3   OH270507   0.235   6.486  16.363 -0.7440 -0.3226 -0.0306
16339TIP3    H170508   0.206   6.526  16.281  0.4960 -2.3288 -1.4833
16339TIP3    H270509   0.235   6.392  16.345  0.0721 -0.7549  2.1053
16340TIP3   OH270510   4.264   0.392   3.653  0.0608 -0.7607  0.5527
16340TIP3    H170511   4.186   0.348   3.618 -0.8062  1.7435 -0.7720
16340TIP3    H270512   4.260   0.375   3.748 -2.7958  0.3172  0.6802
16341TIP3   OH270513   5.687   6.232  17.100 -0.7343 -0.2636 -0.0884
16341TIP3    H170514   5.680   6.158  17.039  0.7042 -1.3229  0.9945
16341TIP3    H270515   5.778   6.229  17.130 -0.7886  1.6989  0.2959
16342TIP3   OH270516   0.483   3.809  14.644 -0.1505  0.0095 -0.7724
16342TIP3    H170517   0.542   3.740  14.674 -0.5123 -0.7837 -1.9028
16342TIP3    H270518   0.483   3.873  14.716  0.3584 -1.0470  0.1724
16343TIP3   OH270519   1.648   2.186  11.373 -0.0966  0.0006 -0.1981
16343TIP3    H170520   1.707   2.207  11.300  1.3150 -0.6244  0.7479
16343TIP3    H270521   1.593   2.116  11.340  0.9994 -0.7535 -0.4438
16344TIP3   OH270522   1.707   1.686   3.100 -0.0685 -0.3911  0.4748
16344TIP3    H170523   1.669   1.638   3.174  0.7870 -3.0696 -0.7794
16344TIP3    H270524   1.695   1.628   3.025 -0.1706  1.9329 -1.3677
16345TIP3   OH270525   4.097   5.589  16.900 -0.6595  0.4157 -0.1472
16345TIP3    H170526   4.012   5.588  16.856 -0.1308 -0.6859 -1.1619
16345TIP3    H270527   4.154   5.639  16.842  0.0092 -0.9320 -0.6541
16346TIP3   OH270528   0.218   4.647   2.303  0.6487 -0.1059 -0.3217
16346TIP3    H170529   0.207   4.703   2.226 -0.3555  0.2995  0.1049
16346TIP3    H270530   0.167   4.690   2.372 -2.8773 -3.2251 -0.8302
16347TIP3   OH270531   1.063   2.737   5.929 -0.1636  0.3999 -0.0681
16347TIP3    H170532   1.119   2.716   5.855 -0.4661  2.2148 -0.8319
16347TIP3    H270533   1.123   2.751   6.002  0.4029  2.1362 -0.8351
16348TIP3   OH270534   2.439   2.443  16.836 -0.3513 -0.3218  0.0382
16348TIP3    H170535   2.485   2.474  16.758 -1.2232  0.0146 -0.3521
16348TIP3    H270536   2.360   2.402  16.802  0.0499 -1.6068  0.6522
16349TIP3   OH270537   3.877   3.716   1.877  0.1281  0.1681 -0.3060
16349TIP3    H170538   3.967   3.733   1.849  0.3585 -0.9770 -0.2625
16349TIP3    H270539   3.859   3.627   1.850 -0.5939 -0.0116  0.7259
16350TIP3   OH270540   5.547   4.185  13.305 -0.0680 -0.5573 -0.3896
16350TIP3    H170541   5.466   4.217  13.345 -0.2092 -2.8668  1.2880
16350TIP3    H270542   5.614   4.196  13.373 -0.1181 -3.6628  0.2178
16351TIP3   OH270543   1.145   3.858  12.475  0.0772  0.2921  0.4763
16351TIP3    H170544   1.064   3.898  12.506 -0.8876 -1.4246  0.2585
16351TIP3    H270545   1.212   3.924  12.490 -1.1932  1.3435  1.6437
16352TIP3   OH270546   1.198   4.395  16.747  0.0460 -0.1647 -0.4308
16352TIP3    H170547   1.131   4.327  16.759 -1.5926  1.3737 -0.6762
16352TIP3    H270548   1.162   4.452  16.679  0.8022  1.6720  0.6680
16353TIP3   OH270549   6.598   1.238  17.288  0.0231  0.1186 -0.2186
16353TIP3    H170550   6.546   1.195  17.221  2.4428 -1.0750 -1.3806
16353TIP3    H270551   6.650   1.168  17.327 -1.0008  0.8689  2.6175
16354TIP3   OH270552   6.659   4.927  15.810  0.6393  0.3444 -0.1160
16354TIP3    H170553   6.680   4.999  15.869  0.5415 -0.2707  0.6735
16354TIP3    H270554   6.588   4.960  15.756 -0.6262  0.2216  1.4480
16355TIP3   OH270555   0.873   1.324   2.567 -0.1752  0.5960  0.1123
16355TIP3    H170556   0.909   1.286   2.487  1.6807  1.0858  0.7028
16355TIP3    H270557   0.800   1.267   2.590  0.1864 -0.3761 -1.1197
16356TIP3   OH270558   4.324   6.178  15.321 -0.2222 -0.0903  0.3369
16356TIP3    H170559   4.348   6.220  15.404 -0.1956  1.5062 -0.4782
16356TIP3    H270560   4.322   6.084  15.342  3.7686 -0.0621  1.1821
16357TIP3   OH270561   3.128   4.755   5.586 -0.7762  0.3916  0.2056
16357TIP3    H170562   3.138   4.777   5.494 -0.6530  0.1031  0.1467
16357TIP3    H270563   3.052   4.697   5.588 -1.8130  1.7390  0.5104
16358TIP3   OH270564   2.717   4.005   3.836  0.2970 -0.0398 -0.0204
16358TIP3    H170565   2.787   4.020   3.899  0.1787 -2.3664  0.7106
16358TIP3    H270566   2.760   4.015   3.751  1.0220  0.6449  0.4148
16359TIP3   OH270567   6.253   4.951   0.691  0.2920 -0.1809 -0.1786
16359TIP3    H170568   6.231   4.879   0.750 -1.3849 -0.5158 -1.1736
16359TIP3    H270569   6.250   5.029   0.746 -1.6703 -0.4343  0.1221
16360TIP3   OH270570   4.718   2.278  14.363 -0.1330 -0.6868 -0.4609
16360TIP3    H170571   4.724   2.315  14.451  0.7495  0.5946 -1.0373
16360TIP3    H270572   4.795   2.312  14.318 -1.4916  0.0945 -2.2565
16361TIP3   OH270573   5.953   6.548  11.938  0.7641  0.0469 -0.0094
16361TIP3    H170574   6.024   6.508  11.989  0.4216  1.3710  1.5750
16361TIP3    H270575   5.992   6.626  11.900  0.6231 -0.1541 -0.5616
16362TIP3   OH270576   2.678   2.454   4.183  0.2131 -0.2406 -0.4642
16362TIP3    H170577   2.593   2.450   4.226 -1.3274  0.9844 -3.2713
16362TIP3    H270578   2.684   2.371   4.135 -0.1208  0.3805 -1.5779
16363TIP3   OH270579   2.441   3.618   2.861  0.3727  0.0993  0.1463
16363TIP3    H170580   2.348   3.634   2.844 -0.2746 -2.7322  0.7607
16363TIP3    H270581   2.486   3.691   2.819 -2.2275  2.4677  1.3361
16364TIP3   OH270582   2.732   4.538   3.550  0.6475 -0.1215  0.6076
16364TIP3    H170583   2.733   4.602   3.479  0.9680  0.4004  1.0859
16364TIP3    H270584   2.803   4.564   3.608  0.8813 -1.0008  0.7261
16365TIP3   OH270585   1.065   0.748   4.959  0.0269  0.3082  0.5662
16365TIP3    H170586   1.063   0.790   4.873  0.4307  1.0508  0.9130
16365TIP3    H270587   1.140   0.787   5.003 -0.8753  0.8323  1.6911
16366TIP3   OH270588   1.409   0.027  12.057 -0.2566 -0.2125  0.8507
16366TIP3    H170589   1.316   0.005  12.060 -0.1848 -0.5710  0.5900
16366TIP3    H270590   1.418   0.102  12.115 -1.4579  2.5691 -2.4147
16367TIP3   OH270591   6.029   1.882   1.356 -0.2062  0.2490  0.0222
16367TIP3    H170592   6.060   1.916   1.440 -0.3040  0.6221 -0.0923
16367TIP3    H270593   6.092   1.813   1.333  1.4427  2.0498 -0.9726
16368TIP3   OH270594   6.666   1.649   4.665  0.4114  0.1644 -0.4107
16368TIP3    H170595   6.742   1.676   4.717  1.5275 -1.8803 -0.9496
16368TIP3    H270596   6.592   1.660   4.725  1.0581  2.3991  0.0479
16369TIP3   OH270597   5.713   1.657   3.013 -0.7922  0.0138 -0.0436
16369TIP3    H170598   5.749   1.739   3.048 -0.5040  0.8376 -2.1498
16369TIP3    H270599   5.645   1.686   2.952  0.0496 -1.2550 -1.6277
16370TIP3   OH270600   3.945   1.398   4.931 -0.3683 -0.0831 -1.2563
16370TIP3    H170601   3.991   1.339   4.871  0.0833  2.0297 -3.0334
16370TIP3    H270602   4.015   1.446   4.976 -0.7834  1.0417 -1.8093
16371TIP3   OH270603   4.209   0.437   2.478  0.1356  0.5068 -0.0102
16371TIP3    H170604   4.301   0.421   2.457 -0.1948 -1.5175 -0.0212
16371TIP3    H270605   4.188   0.370   2.543 -1.4064  0.7824 -0.2229
16372TIP3   OH270606   6.609   0.893  15.612  0.3768 -0.4049 -0.8509
16372TIP3    H170607   6.701   0.919  15.611 -0.3731  2.7745  1.9516
16372TIP3    H270608   6.565   0.955  15.555 -0.7180  1.5333  1.9650
16373TIP3   OH270609   6.254   3.091   2.408  0.1766  0.2026 -0.1400
16373TIP3    H170610   6.180   3.117   2.353  1.1136  3.0998 -0.1130
16373TIP3    H270611   6.239   3.136   2.491  1.7853  0.5432 -0.0199
16374TIP3   OH270612   1.840   1.792  11.098 -0.4434 -0.2999  0.1861
16374TIP3    H170613   1.889   1.753  11.026  1.1776 -0.5236  1.3758
16374TIP3    H270614   1.901   1.854  11.138 -1.6076  0.4497  0.8431
16375TIP3   OH270615   1.924   4.922   4.541 -0.6835 -0.5876  0.0622
16375TIP3    H170616   1.966   4.921   4.455 -2.0503  0.8322 -0.6528
16375TIP3    H270617   1.868   4.845   4.541 -1.4818 -0.0167 -0.7448
16376TIP3   OH270618   1.837   1.597   5.327 -0.0477  0.4355 -0.2935
16376TIP3    H170619   1.873   1.519   5.285  1.7381  0.9501  0.2215
16376TIP3    H270620   1.752   1.570   5.361  0.3861 -1.1777 -0.4778
16377TIP3   OH270621   5.650   2.719   3.918 -0.6863  0.3422  0.8127
16377TIP3    H170622   5.612   2.800   3.951 -2.6695 -0.5256  0.7546
16377TIP3    H270623   5.617   2.711   3.828  0.3894  0.0213  0.4336
16378TIP3   OH270624   2.436   4.600  15.416  0.4685 -0.4495 -0.1551
16378TIP3    H170625   2.459   4.512  15.385  0.1495 -0.2843 -0.8747
16378TIP3    H270626   2.515   4.652  15.401 -0.1564 -0.0066 -2.1443
16379TIP3   OH270627   2.569   0.311   3.415  0.3087 -0.2073  0.2083
16379TIP3    H170628   2.536   0.401   3.418 -1.5234 -0.7906 -1.1474
16379TIP3    H270629   2.595   0.298   3.324 -0.7759 -1.4921  0.0687
16380TIP3   OH270630   1.468   4.673   2.587  0.0092 -0.2993 -0.0796
16380TIP3    H170631   1.431   4.590   2.618  0.3262 -0.0977  0.8694
16380TIP3    H270632   1.442   4.679   2.495 -2.0990 -0.2667  0.5037
16381TIP3   OH270633   3.343   1.537   4.953  0.3949  0.0431  0.4970
16381TIP3    H170634   3.379   1.461   4.999  1.1338  0.0323 -0.0893
16381TIP3    H270635   3.311   1.502   4.870 -0.5955  0.1278  0.8342
16382TIP3   OH270636   0.206   1.239  16.053 -0.1458  0.5298 -0.2177
16382TIP3    H170637   0.144   1.310  16.070 -1.2433 -0.3646 -0.4577
16382TIP3    H270638   0.176   1.167  16.107  1.1820  0.3519  0.2994
16383TIP3   OH270639   5.939   6.808   4.339 -0.0932 -0.0465 -0.0759
16383TIP3    H170640   5.923   6.889   4.387 -1.1275  0.4639 -1.2729
16383TIP3    H270641   6.031   6.787   4.358 -0.2999  0.5048  1.5769
16384TIP3   OH270642   6.354   0.747  11.707 -0.3383 -0.5660  0.0684
16384TIP3    H170643   6.274   0.731  11.757 -1.5035  1.4182 -1.0989
16384TIP3    H270644   6.324   0.779  11.622  1.6827  0.3420 -0.3492
16385TIP3   OH270645   1.362   4.189  13.070 -0.7972  0.0143 -0.0603
16385TIP3    H170646   1.426   4.124  13.040 -1.0902 -1.2621  1.9845
16385TIP3    H270647   1.335   4.158  13.157  0.0536  3.6087  1.5596
16386TIP3   OH270648   2.946   3.072  16.596  0.9012  0.7702 -0.6219
16386TIP3    H170649   2.935   2.987  16.639  2.5012  0.7549 -0.2021
16386TIP3    H270650   2.867   3.121  16.619 -0.6549 -1.0501 -1.9692
16387TIP3   OH270651   5.904   1.724   3.445  0.1763 -0.0693 -0.1429
16387TIP3    H170652   5.907   1.818   3.428  1.8939 -0.0654  0.1495
16387TIP3    H270653   5.937   1.684   3.365 -1.3618 -0.4803 -0.5951
16388TIP3   OH270654   6.156   0.923   1.574  0.1487  0.2070 -0.4913
16388TIP3    H170655   6.084   0.874   1.615  2.1245 -0.3480  2.4619
16388TIP3    H270656   6.118   1.010   1.557 -1.5117 -0.3717  0.1361
16389TIP3   OH270657   2.068   5.543  12.406 -0.3145  0.4159  0.7252
16389TIP3    H170658   2.140   5.603  12.390 -1.1596  1.1770 -0.2751
16389TIP3    H270659   2.010   5.553  12.330 -1.6833  0.1333  1.7050
16390TIP3   OH270660   4.844   5.231   5.666 -0.0572 -0.4990  0.3874
16390TIP3    H170661   4.818   5.281   5.743  2.4756 -0.0557  1.0035
16390TIP3    H270662   4.922   5.182   5.694 -1.3084 -3.2606 -0.7961
16391TIP3   OH270663   1.995   0.943   3.931 -0.2224  0.5708  0.0238
16391TIP3    H170664   2.064   0.877   3.921  0.3872  0.8712  2.0967
16391TIP3    H270665   2.041   1.022   3.959 -1.2855  1.0682  0.3962
16392TIP3   OH270666   0.296   3.131   3.458  0.6962 -0.4116  0.1690
16392TIP3    H170667   0.247   3.156   3.536  0.3432  0.0780 -0.2063
16392TIP3    H270668   0.312   3.037   3.468 -0.2055 -0.5498  0.3550
16393TIP3   OH270669   3.515   2.606   0.669 -0.3643 -0.8407 -0.1152
16393TIP3    H170670   3.484   2.654   0.592  1.2042 -0.8948 -0.8080
16393TIP3    H270671   3.584   2.662   0.705 -0.5655 -1.1822  0.8021
16394TIP3   OH270672   0.741   2.487   2.983  0.2904 -0.1583  0.7212
16394TIP3    H170673   0.652   2.520   2.968  1.2647  1.6889 -1.1938
16394TIP3    H270674   0.785   2.558   3.031  0.8759 -0.8837  1.2801
16395TIP3   OH270675   4.472   5.365  13.840 -0.2125 -0.1885  0.3520
16395TIP3    H170676   4.488   5.323  13.924  1.7351 -1.1030 -0.4606
16395TIP3    H270677   4.433   5.297  13.785 -0.2215  0.0212  0.0922
16396TIP3   OH270678   2.870   0.156   0.195 -0.3910  0.1349 -0.3524
16396TIP3    H170679   2.853   0.061   0.200 -1.0287  0.1952 -1.2083
16396TIP3    H270680   2.951   0.163   0.145 -0.1891  0.0231 -0.0383
16397TIP3   OH270681   2.974   5.174   1.932 -0.0959 -0.0948 -0.3395
16397TIP3    H170682   2.950   5.081   1.928 -0.0399 -0.0954 -0.7135
16397TIP3    H270683   3.047   5.182   1.870 -0.1423  0.2096 -0.3538
16398TIP3   OH270684   1.478   0.422   5.338  0.0564  0.0740 -0.0241
16398TIP3    H170685   1.393   0.379   5.341  0.4208 -0.5171  2.9485
16398TIP3    H270686   1.465   0.505   5.383  0.5785  0.9261 -1.3968
16399TIP3   OH270687   4.259   4.458  16.881 -0.2628 -0.1518  0.0415
16399TIP3    H170688   4.232   4.510  16.805 -0.7000 -0.7642 -0.2305
16399TIP3    H270689   4.350   4.435  16.864 -0.3477 -0.2526 -0.2831
16400TIP3   OH270690   3.378   4.759  15.577  0.2851 -0.0086  1.1337
16400TIP3    H170691   3.432   4.691  15.618  0.5478 -0.8600 -0.6125
16400TIP3    H270692   3.348   4.721  15.495  0.3691  1.9384  0.1540
16401TIP3   OH270693   0.745   2.770  14.753 -0.4094 -0.2567 -0.0799
16401TIP3    H170694   0.810   2.826  14.711 -0.9866  1.2395  0.9604
16401TIP3    H270695   0.667   2.780  14.699 -0.3662 -0.4257 -0.1723
16402TIP3   OH270696   6.681   4.945  12.473 -0.7900  1.1825 -0.1421
16402TIP3    H170697   6.721   4.882  12.533 -0.5521  0.5381 -0.9641
16402TIP3    H270698   6.737   4.943  12.396 -2.1008  0.6540 -1.1086
16403TIP3   OH270699   4.591   3.908  14.030 -0.3040  0.7232 -0.9456
16403TIP3    H170700   4.684   3.885  14.039 -0.0489  2.1514  0.0922
16403TIP3    H270701   4.573   3.893  13.937  0.9271  0.2977 -1.1335
16404TIP3   OH270702   6.033   2.902  15.555  0.0450  0.0774  0.4106
16404TIP3    H170703   6.071   2.930  15.471 -0.8333  1.5117  0.4787
16404TIP3    H270704   5.963   2.842  15.531 -0.3045  0.6051  0.1014
16405TIP3   OH270705   4.327   2.057   0.099  0.0769  0.1519 -0.3485
16405TIP3    H170706   4.324   1.991   0.030 -0.5645 -0.6642  0.4482
16405TIP3    H270707   4.393   2.120   0.069  0.3606 -0.5990 -1.3331
16406TIP3   OH270708   6.157   3.525   6.320  0.0954 -0.5070 -0.0493
16406TIP3    H170709   6.147   3.614   6.286 -2.4190 -0.0157  1.8365
16406TIP3    H270710   6.241   3.526   6.365 -0.1617  1.0928  0.4450
16407TIP3   OH270711   6.164   1.435   4.648 -0.2329  0.1627 -0.0976
16407TIP3    H170712   6.248   1.433   4.602 -0.8536 -0.1858 -1.2359
16407TIP3    H270713   6.164   1.355   4.701  0.9861  1.1623  1.4324
16408TIP3   OH270714   0.260   2.021  11.919  0.0847 -0.2716  0.4102
16408TIP3    H170715   0.271   2.115  11.908 -1.4035 -0.0769  0.4294
16408TIP3    H270716   0.320   1.998  11.990  1.1553  0.4853 -0.2398
16409TIP3   OH270717   4.519   6.118   3.053  0.0666  0.1288 -0.3258
16409TIP3    H170718   4.552   6.133   2.965 -1.5457 -1.7368 -1.2925
16409TIP3    H270719   4.563   6.038   3.082  0.0936  0.3688  0.2987
16410TIP3   OH270720   0.820   1.147   6.566  0.1027  0.1005 -0.2088
16410TIP3    H170721   0.743   1.203   6.574 -0.1511 -0.5331  1.9531
16410TIP3    H270722   0.869   1.183   6.492 -0.6065  2.5081  0.4761
16411TIP3   OH270723   3.903   1.695   4.764 -0.3115  0.3843 -0.0309
16411TIP3    H170724   3.948   1.772   4.728  0.2238 -0.2385 -0.7329
16411TIP3    H270725   3.964   1.623   4.747  0.3510  0.1974  2.9708
16412TIP3   OH270726   6.241   3.496  15.374 -0.1014 -0.0148  0.6791
16412TIP3    H170727   6.315   3.457  15.420  0.9929  0.9504 -0.2355
16412TIP3    H270728   6.253   3.470  15.283 -2.4761 -2.2495  0.9283
16413TIP3   OH270729   5.377   2.007  17.180 -0.1998  0.0966 -0.2757
16413TIP3    H170730   5.337   2.073  17.237  1.5917  0.5297  0.5387
16413TIP3    H270731   5.324   1.929  17.193 -2.1371  1.2426 -0.9717
16414TIP3   OH270732   6.524   2.012  11.565 -0.1064 -0.6979  0.1559
16414TIP3    H170733   6.474   2.052  11.636  0.8501 -0.9192  0.9565
16414TIP3    H270734   6.559   2.086  11.515  0.8063 -0.5200  1.0346
16415TIP3   OH270735   4.858   1.849   1.879  0.4239 -0.8341 -0.0778
16415TIP3    H170736   4.775   1.836   1.926  0.9189 -0.6457  0.8668
16415TIP3    H270737   4.836   1.831   1.788 -0.8134 -0.1233  0.0638
16416TIP3   OH270738   4.965   1.562   6.461 -0.6726  0.0384 -0.8313
16416TIP3    H170739   4.976   1.655   6.485  3.1690 -0.6360  0.2768
16416TIP3    H270740   4.964   1.516   6.545  0.0476 -1.1742 -1.4755
16417TIP3   OH270741   5.935   5.768   1.813 -0.0696 -0.2617  0.3617
16417TIP3    H170742   5.913   5.806   1.898 -1.9336 -0.5859  0.0367
16417TIP3    H270743   5.851   5.745   1.774  0.8033 -0.6930 -1.3142
16418TIP3   OH270744   4.153   5.828  10.082  0.1200  0.0930  0.4687
16418TIP3    H170745   4.144   5.746  10.131 -0.3654 -1.3379 -1.9151
16418TIP3    H270746   4.141   5.802   9.991 -0.1146  2.8640 -0.3198
16419TIP3   OH270747   2.361   2.920  12.224 -0.3465 -0.4473 -0.2913
16419TIP3    H170748   2.390   2.978  12.154  0.8435 -1.6567 -0.8321
16419TIP3    H270749   2.442   2.885  12.261 -1.0311 -1.6002  0.1572
16420TIP3   OH270750   2.549   4.136  13.076  0.0744  0.9585  0.3496
16420TIP3    H170751   2.594   4.105  13.155 -0.5674  0.5368  0.5492
16420TIP3    H270752   2.477   4.075  13.064  0.6052  0.5866 -0.9806
16421TIP3   OH270753   0.183   2.658  12.454  0.2436 -0.3178  0.5832
16421TIP3    H170754   0.154   2.711  12.379 -0.6458 -2.7579 -0.8334
16421TIP3    H270755   0.169   2.715  12.530 -0.6214  1.5196 -0.9036
16422TIP3   OH270756   5.090   1.889  13.878  0.4608  0.1330 -0.2678
16422TIP3    H170757   5.036   1.876  13.800  2.5743 -1.9936 -1.4361
16422TIP3    H270758   5.134   1.973  13.862  0.2735  0.0972 -1.0022
16423TIP3   OH270759   4.092   5.343  13.501  0.5572  0.3163  0.0506
16423TIP3    H170760   4.052   5.373  13.420  3.4052  1.2339 -1.0965
16423TIP3    H270761   4.087   5.418  13.560  0.3622  0.3443 -0.0012
16424TIP3   OH270762   0.231   5.642  11.877 -0.1845  0.0346  0.1723
16424TIP3    H170763   0.173   5.626  11.951  0.2119 -0.7734  0.3140
16424TIP3    H270764   0.277   5.559  11.864  0.9466  0.6684  0.0709
16425TIP3   OH270765   1.032   3.766  11.794 -0.5417 -0.0911  0.2297
16425TIP3    H170766   1.032   3.830  11.722 -1.6426  0.5713  0.8094
16425TIP3    H270767   1.070   3.814  11.868 -2.5490  0.3038  1.0176
16426TIP3   OH270768   5.755   5.435   2.027  0.2520  0.5507  0.5367
16426TIP3    H170769   5.714   5.460   2.110  0.2924  1.2952  0.3379
16426TIP3    H270770   5.704   5.360   1.996  0.3451  0.1647  1.3182
16427TIP3   OH270771   5.196   0.506  13.021  0.4325  0.5402  0.2716
16427TIP3    H170772   5.218   0.563  12.948 -0.3615 -1.5037 -1.6024
16427TIP3    H270773   5.104   0.524  13.038 -0.7395 -2.3596 -2.4348
16428TIP3   OH270774   3.219   4.471  13.976 -0.0027  0.5115  0.3684
16428TIP3    H170775   3.190   4.561  13.964 -1.9459  0.2182  2.5646
16428TIP3    H270776   3.169   4.421  13.911 -0.2480  0.7722  0.3564
16429TIP3   OH270777   5.981   0.762   2.599  0.3052 -0.2976  0.4548
16429TIP3    H170778   6.040   0.687   2.600  0.2053 -0.3802  2.6613
16429TIP3    H270779   5.927   0.751   2.678 -1.3890  0.7619 -0.5339
16430TIP3   OH270780   4.210   6.520  13.329 -0.4282 -0.6629 -0.0644
16430TIP3    H170781   4.178   6.560  13.410  0.9520 -0.0281  0.1906
16430TIP3    H270782   4.151   6.552  13.261  0.2800  1.3443  0.2302
16431TIP3   OH270783   1.420   2.067   2.076  0.3764 -0.1421 -0.2830
16431TIP3    H170784   1.439   2.053   1.983 -0.3337 -1.5714 -0.2259
16431TIP3    H270785   1.329   2.099   2.077  0.1468 -0.7897 -0.0467
16432TIP3   OH270786   3.885   3.517   3.053  0.3079 -0.4561  0.9809
16432TIP3    H170787   3.811   3.578   3.057  1.6853  1.3933 -0.4760
16432TIP3    H270788   3.962   3.572   3.073  1.2834 -2.3703  2.6847
16433TIP3   OH270789   4.586   6.620  15.293  0.3863  0.1534  0.3157
16433TIP3    H170790   4.591   6.713  15.268 -0.3169  0.2794  0.6319
16433TIP3    H270791   4.533   6.580  15.225  1.0458 -0.0981 -0.0453
16434TIP3   OH270792   1.905   6.593  13.863 -0.0483 -0.4399  0.0687
16434TIP3    H170793   1.990   6.549  13.854  0.0187 -0.5028  0.9774
16434TIP3    H270794   1.926   6.683  13.887 -0.2444 -0.5476  0.6551
16435TIP3   OH270795   4.911   4.790   5.463  0.3440  0.5963  0.1436
16435TIP3    H170796   4.939   4.742   5.385 -0.5290 -1.8131  1.2519
16435TIP3    H270797   4.914   4.725   5.533 -2.2888  1.7793  1.4365
16436TIP3   OH270798   5.700   6.075   5.023 -0.3836 -0.2893  0.2823
16436TIP3    H170799   5.631   6.119   4.973 -0.3090 -1.4675 -0.8577
16436TIP3    H270800   5.674   5.983   5.025  0.5022 -0.5357  0.9485
16437TIP3   OH270801   5.709   6.550  11.791 -0.6168 -0.1423  0.0321
16437TIP3    H170802   5.640   6.589  11.845  0.1706  1.0992  0.1564
16437TIP3    H270803   5.789   6.562  11.842  0.2653  1.7604 -1.7242
16438TIP3   OH270804   2.943   5.690   5.809 -0.2164  0.2430  0.1190
16438TIP3    H170805   3.020   5.738   5.839  1.0638 -1.8856  0.3460
16438TIP3    H270806   2.881   5.696   5.881  1.2357 -1.2895  1.5369
16439TIP3   OH270807   6.123   6.609  16.531  0.9328 -0.6569  0.5696
16439TIP3    H170808   6.165   6.578  16.451  1.4021 -2.8815  1.6242
16439TIP3    H270809   6.196   6.627  16.591  0.6092  1.4798  0.3627
16440TIP3   OH270810   5.887   4.887  12.142  0.4294 -0.1602 -0.3850
16440TIP3    H170811   5.866   4.855  12.054 -0.3292  1.0104 -0.6467
16440TIP3    H270812   5.967   4.937  12.131  0.3642 -0.0587 -0.4056
16441TIP3   OH270813   3.110   0.088   1.808 -0.1931 -0.4362  0.2500
16441TIP3    H170814   3.141   0.142   1.881  0.5779 -0.6352  0.0735
16441TIP3    H270815   3.141   0.134   1.730 -1.5875  0.1297  0.0231
16442TIP3   OH270816   1.257   4.979   1.786 -0.7798 -0.4668 -0.3211
16442TIP3    H170817   1.298   5.065   1.792 -1.4123  0.1112 -3.3864
16442TIP3    H270818   1.164   4.997   1.773 -1.6379 -1.7287  3.4421
16443TIP3   OH270819   4.097   3.836  16.082 -0.4210  0.2232 -0.1293
16443TIP3    H170820   4.042   3.914  16.077 -0.3307  0.2676 -0.4378
16443TIP3    H270821   4.146   3.836  16.000 -0.4926 -0.2149 -0.1694
16444TIP3   OH270822   2.487   0.778  10.580  0.0834 -0.2281 -0.2643
16444TIP3    H170823   2.430   0.737  10.515  0.2678 -0.0071 -0.5660
16444TIP3    H270824   2.503   0.709  10.645  0.2175 -0.5663 -0.6565
16445TIP3   OH270825   5.631   0.037   4.099 -0.2794 -0.1782 -0.3641
16445TIP3    H170826   5.705  -0.021   4.119 -1.4792 -1.6769 -0.0915
16445TIP3    H270827   5.571  -0.018   4.049 -1.5052  0.8030  0.0010
16446TIP3   OH270828   6.785   2.253  14.339 -0.1412 -0.2258  0.3568
16446TIP3    H170829   6.747   2.291  14.418 -1.5395  0.5289 -0.6786
16446TIP3    H270830   6.818   2.167  14.368 -0.7573 -0.0112  1.7245
16447TIP3   OH270831   0.424   1.366   0.150 -0.3159 -0.8295  0.4188
16447TIP3    H170832   0.475   1.327   0.079 -0.2616 -1.3321  0.7296
16447TIP3    H270833   0.335   1.335   0.134 -0.4998 -0.0636 -0.0465
16448TIP3   OH270834   3.131   0.093  12.486 -0.1249 -0.2998  0.3123
16448TIP3    H170835   3.107   0.001  12.472  1.8607 -0.7819 -0.0636
16448TIP3    H270836   3.097   0.114  12.573  0.2007 -1.6667  0.7758
16449TIP3   OH270837   1.220   4.654   3.643 -0.0178 -0.3494 -0.5216
16449TIP3    H170838   1.278   4.579   3.652  0.4015  0.1301  0.8485
16449TIP3    H270839   1.208   4.665   3.549  0.9151 -1.3643 -0.7554
16450TIP3   OH270840   1.927   2.843   1.043  0.3003  0.1409  0.1616
16450TIP3    H170841   1.988   2.914   1.066 -0.0394  0.1668  0.9746
16450TIP3    H270842   1.954   2.770   1.098 -0.7233  0.3084  0.8999
16451TIP3   OH270843   5.099   3.651  12.049  0.3450  0.4519  0.1723
16451TIP3    H170844   5.010   3.651  12.015  0.9581 -0.3430 -1.4726
16451TIP3    H270845   5.088   3.662  12.144 -1.4897  0.3730 -0.0071
16452TIP3   OH270846   4.148   2.712  11.137  0.1630 -0.0824  0.2387
16452TIP3    H170847   4.204   2.716  11.215  1.1300 -0.1406 -0.4475
16452TIP3    H270848   4.203   2.745  11.066 -0.7343  0.0357 -0.4150
16453TIP3   OH270849   6.031   6.745  11.194  0.3060  0.3328 -0.5019
16453TIP3    H170850   6.051   6.799  11.271  1.2200  0.3238 -0.7186
16453TIP3    H270851   6.117   6.718  11.161 -0.0975 -0.1335 -1.1950
16454TIP3   OH270852   6.650   1.174   5.141  0.2619  0.4410  0.5569
16454TIP3    H170853   6.572   1.131   5.175  0.2775  0.3801  0.5169
16454TIP3    H270854   6.648   1.156   5.047  1.4740 -1.4308  0.8633
16455TIP3   OH270855   4.213   0.905  14.607  0.2713 -0.0546 -0.0774
16455TIP3    H170856   4.254   0.830  14.651 -1.6243 -0.6724  0.6860
16455TIP3    H270857   4.124   0.907  14.642  0.7631  3.5680  1.1552
16456TIP3   OH270858   2.050   1.357  17.220 -0.0027 -0.5106 -0.5661
16456TIP3    H170859   1.969   1.360  17.169 -0.4604 -1.0982  0.1222
16456TIP3    H270860   2.049   1.437  17.272 -0.8399 -1.2044  0.4966
16457TIP3   OH270861   3.209   0.256   1.600  0.1864  0.6155  0.5699
16457TIP3    H170862   3.217   0.332   1.542 -0.5720 -0.4262 -0.9162
16457TIP3    H270863   3.288   0.205   1.583  0.3678  0.7213  1.0783
16458TIP3   OH270864   5.469   1.187   1.802  0.0598  0.7165  0.4202
16458TIP3    H170865   5.379   1.159   1.791 -0.3338  2.4770 -1.2392
16458TIP3    H270866   5.501   1.138   1.878 -2.4546  0.5056  1.3869
16459TIP3   OH270867   4.491   0.248  17.253 -0.3960  0.7681  0.2452
16459TIP3    H170868   4.460   0.166  17.291  0.3765 -0.4854 -1.7195
16459TIP3    H270869   4.414   0.284  17.208  0.3807 -1.4064 -3.0438
16460TIP3   OH270870   4.908   2.059  16.417 -0.1123  0.3698  0.1888
16460TIP3    H170871   4.966   2.069  16.492  2.0998  2.2704 -1.7038
16460TIP3    H270872   4.854   2.137  16.418 -0.0162  0.4421 -0.2435
16461TIP3   OH270873   3.915   5.067  14.835 -0.3701  0.1117 -0.4622
16461TIP3    H170874   3.925   4.990  14.891 -0.5782  0.1440 -0.3843
16461TIP3    H270875   3.823   5.069  14.812 -0.0743 -0.5474 -1.7274
16462TIP3   OH270876   6.571   0.566  13.897  0.4127  0.0855 -0.4330
16462TIP3    H170877   6.523   0.592  13.818  2.9052 -0.3731 -2.1610
16462TIP3    H270878   6.545   0.475  13.912  0.9500 -0.2631 -1.5483
16463TIP3   OH270879   5.051   6.733  13.052  0.1862 -0.3450  0.5757
16463TIP3    H170880   4.971   6.714  13.101  0.2378 -1.6765  0.1698
16463TIP3    H270881   5.081   6.648  13.021  1.1149  0.2787 -0.2887
16464TIP3   OH270882   3.764   1.535   6.255 -0.0885  0.2206 -0.6059
16464TIP3    H170883   3.826   1.599   6.221 -0.4308  0.8071 -0.1286
16464TIP3    H270884   3.817   1.457   6.273 -0.0301 -0.4239 -3.3217
16465TIP3   OH270885   6.384   5.891   1.951 -0.2689 -0.1452 -0.5355
16465TIP3    H170886   6.406   5.926   1.864 -0.1420  1.6821  0.2141
16465TIP3    H270887   6.451   5.825   1.968  0.8668  0.8726 -0.9984
16466TIP3   OH270888   2.732   1.112  14.096  0.2669  0.1317  0.3699
16466TIP3    H170889   2.685   1.148  14.020  2.2191  0.6274 -0.6508
16466TIP3    H270890   2.752   1.188  14.150  0.5592  0.0313  0.4044
16467TIP3   OH270891   1.164   2.347   4.035 -0.2695  0.0888 -0.4991
16467TIP3    H170892   1.161   2.259   3.998 -1.8579  0.4374 -1.2537
16467TIP3    H270893   1.126   2.403   3.967  1.8934  1.5616 -0.5701
16468TIP3   OH270894   6.522   4.703  13.423  0.3591  0.1717 -0.2450
16468TIP3    H170895   6.437   4.744  13.443  0.8922  1.8921 -1.3639
16468TIP3    H270896   6.539   4.645  13.497 -0.0740  2.5892  1.8058
16469TIP3   OH270897   6.080   1.320   3.184  0.0016 -0.1273  0.0678
16469TIP3    H170898   6.034   1.360   3.259  0.8959  1.0787 -0.0150
16469TIP3    H270899   6.104   1.394   3.129  1.4269 -0.8074 -0.2448
16470TIP3   OH270900   4.712   0.404   0.682  0.1425  0.1047 -0.1892
16470TIP3    H170901   4.693   0.376   0.772  0.8924 -2.1062 -0.6820
16470TIP3    H270902   4.640   0.370   0.630  2.7034 -3.9633 -1.2998
16471TIP3   OH270903   6.379   1.760  12.355  0.1916 -0.2763  0.2546
16471TIP3    H170904   6.325   1.752  12.434 -0.4953 -2.3463 -0.3916
16471TIP3    H270905   6.413   1.672  12.341 -0.8795 -0.2834 -2.5843
16472TIP3   OH270906   6.322   2.262   2.778 -0.0813 -0.0023 -0.2852
16472TIP3    H170907   6.342   2.303   2.863  0.0535 -0.2467 -0.1995
16472TIP3    H270908   6.392   2.200   2.764 -0.5144 -0.5086 -0.2176
16473TIP3   OH270909   2.283   0.991  12.594  0.1292 -1.2185  0.2473
16473TIP3    H170910   2.270   1.018  12.685 -2.4741  2.6573 -1.1328
16473TIP3    H270911   2.208   0.935  12.576  0.2285 -1.3595  0.2748
16474TIP3   OH270912   5.807   0.475  12.544 -0.3218 -0.1181  0.9229
16474TIP3    H170913   5.717   0.508  12.545 -0.6458 -0.8837 -0.7829
16474TIP3    H270914   5.797   0.381  12.527  0.7646 -0.3956  1.7463
16475TIP3   OH270915   1.704   1.149  14.581 -0.2930  0.1075 -0.1726
16475TIP3    H170916   1.673   1.107  14.661 -0.4466  0.5002 -0.0216
16475TIP3    H270917   1.624   1.178  14.536 -0.2830 -1.3564 -1.1677
16476TIP3   OH270918   1.058   2.888   4.107  0.0202  0.5307  0.6929
16476TIP3    H170919   0.985   2.940   4.073 -0.8954 -0.0158  1.8037
16476TIP3    H270920   1.052   2.805   4.060 -0.7052  0.1077  1.5132
16477TIP3   OH270921   3.936   5.447  15.469 -0.1877 -0.4684  0.2593
16477TIP3    H170922   4.005   5.454  15.403  0.1782 -0.2916  0.6531
16477TIP3    H270923   3.863   5.404  15.424 -0.0765 -0.0095 -0.3596
16478TIP3   OH270924   0.872   0.610   2.000 -0.8303  0.3552 -0.8845
16478TIP3    H170925   0.828   0.525   2.006  1.3040 -0.7550 -0.5305
16478TIP3    H270926   0.805   0.673   2.024 -1.7475 -1.4345  1.4301
16479TIP3   OH270927   1.405   5.146   0.306 -0.1804 -0.4460 -0.1434
16479TIP3    H170928   1.471   5.078   0.322 -0.2299 -0.5921 -0.5563
16479TIP3    H270929   1.455   5.227   0.307 -0.0861 -0.5065  0.1329
16480TIP3   OH270930   1.619   3.873  15.042 -0.3882  0.2631  0.0506
16480TIP3    H170931   1.661   3.787  15.047 -0.3685  0.2981  0.5330
16480TIP3    H270932   1.638   3.914  15.127 -1.3169  0.3119  0.2414
16481TIP3   OH270933   3.754   0.043   0.428  0.2072  0.4256 -0.1324
16481TIP3    H170934   3.843   0.008   0.437 -0.2238 -0.4562  0.9193
16481TIP3    H270935   3.748   0.112   0.494 -0.6957 -1.2665  1.6172
16482TIP3   OH270936   4.264   5.910  15.410  0.5188 -0.0165  0.3210
16482TIP3    H170937   4.307   5.847  15.351 -1.8974 -1.4029 -0.0387
16482TIP3    H270938   4.275   5.872  15.497  1.4936  0.5015  0.4250
16483TIP3   OH270939   3.117   0.025  16.624  1.0694 -0.1158  0.5794
16483TIP3    H170940   3.087   0.108  16.661  0.0328 -0.2696  0.0999
16483TIP3    H270941   3.138   0.045  16.533  1.2133 -0.2925  0.5754
16484TIP3   OH270942   3.128   5.424   6.304 -0.7070  0.4413  0.6134
16484TIP3    H170943   3.183   5.496   6.333 -0.3671  0.4125  0.0574
16484TIP3    H270944   3.187   5.348   6.303 -1.0963  0.1334  1.3257
16485TIP3   OH270945   6.702   5.606  16.562  0.0037  0.0685  0.7143
16485TIP3    H170946   6.792   5.576  16.567  0.1869  0.3534 -0.7431
16485TIP3    H270947   6.650   5.526  16.552  0.5482  0.1440 -3.9929
16486TIP3   OH270948   1.947   1.394   0.779 -1.0357 -0.1878  0.0018
16486TIP3    H170949   1.928   1.487   0.776 -0.0653 -0.0229 -1.0405
16486TIP3    H270950   1.979   1.379   0.868  3.4088  1.3805 -1.2362
16487TIP3   OH270951   5.013   5.563  16.734 -0.9832  0.2471 -0.8033
16487TIP3    H170952   4.950   5.494  16.713 -4.4433  3.1226 -0.3925
16487TIP3    H270953   5.036   5.602  16.650  1.2771 -1.5690 -1.0751
16488TIP3   OH270954   2.260   3.143   5.521  0.0030 -0.4772 -0.2485
16488TIP3    H170955   2.334   3.090   5.494  0.7897  0.7387 -0.5264
16488TIP3    H270956   2.268   3.224   5.470 -2.3363 -0.9041 -1.3628
16489TIP3   OH270957   4.097   5.541  16.264  0.5314  0.4058 -0.2226
16489TIP3    H170958   4.089   5.632  16.235 -2.7192 -0.4285 -2.1973
16489TIP3    H270959   4.058   5.539  16.351  0.0343  0.7869 -0.4370
16490TIP3   OH270960   5.653   3.989   1.082  0.0613 -0.2362  0.1774
16490TIP3    H170961   5.660   3.921   1.149  0.0328 -0.9430 -0.5242
16490TIP3    H270962   5.687   4.068   1.123  0.8639 -0.8677  0.7329
16491TIP3   OH270963   6.545   4.096  12.725 -0.2477 -0.2994 -0.7963
16491TIP3    H170964   6.528   4.189  12.739  2.1534  0.2486 -1.3118
16491TIP3    H270965   6.514   4.054  12.806 -2.0705  0.8256 -0.8831
16492TIP3   OH270966   5.730   6.216  14.553 -0.3860  0.0547 -0.8601
16492TIP3    H170967   5.668   6.164  14.605  1.1927 -1.3403 -0.3386
16492TIP3    H270968   5.791   6.151  14.518  2.0884  1.6243  0.4521
16493TIP3   OH270969   3.549   3.986  13.392  0.1139  0.0095  0.4537
16493TIP3    H170970   3.456   3.971  13.412  0.5102 -1.2243  1.3401
16493TIP3    H270971   3.588   4.010  13.476  1.4191 -3.4945  0.9005
16494TIP3   OH270972   5.090   6.421   0.682 -0.1175  1.0145 -0.4331
16494TIP3    H170973   5.012   6.379   0.647  0.5599 -0.6375  0.0079
16494TIP3    H270974   5.136   6.455   0.606  0.8757 -1.7395 -1.1167
16495TIP3   OH270975   5.527   0.706  16.929  0.4987 -0.4906 -0.3786
16495TIP3    H170976   5.556   0.673  16.844 -0.4431 -1.5451 -0.3065
16495TIP3    H270977   5.548   0.635  16.990  1.8986  0.5764  0.4155
16496TIP3   OH270978   1.581   2.869  15.745 -0.5313 -0.8219 -0.2276
16496TIP3    H170979   1.626   2.787  15.722 -1.9360 -1.3597 -1.2043
16496TIP3    H270980   1.491   2.841  15.764 -1.2288  0.5947 -1.3794
16497TIP3   OH270981   3.630   4.059  14.897 -0.6761  0.5915 -0.1096
16497TIP3    H170982   3.706   4.011  14.930 -0.8664  1.4315  1.5949
16497TIP3    H270983   3.608   4.015  14.815  0.4946 -0.8404  0.3174
16498TIP3   OH270984   3.024   0.667   3.080 -0.1327  0.4012  0.1878
16498TIP3    H170985   3.093   0.680   3.015 -0.2009  0.5727  0.1494
16498TIP3    H270986   2.960   0.611   3.036 -0.1344  0.4416  0.1383
16499TIP3   OH270987   1.715   5.444  13.693  0.0288 -0.3875  0.0818
16499TIP3    H170988   1.636   5.404  13.730  0.2625 -0.0150  1.0009
16499TIP3    H270989   1.692   5.460  13.602 -0.3238 -1.9312 -0.1164
16500TIP3   OH270990   1.583   1.701  15.645  0.2724 -0.3899  0.6289
16500TIP3    H170991   1.533   1.681  15.565 -0.5868  0.3930  0.9716
16500TIP3    H270992   1.659   1.750  15.613  1.3401 -2.3707  0.0002
16501TIP3   OH270993   2.949   0.203  11.056 -0.0114  0.6488  0.0023
16501TIP3    H170994   3.029   0.228  11.010 -0.2407 -0.1998 -0.8683
16501TIP3    H270995   2.911   0.134  11.002  0.9281 -2.0785  2.7382
16502TIP3   OH270996   2.364   0.633  14.608 -0.0922  0.0594  0.3589
16502TIP3    H170997   2.387   0.669  14.522 -2.4468  0.1004 -0.2899
16502TIP3    H270998   2.419   0.555  14.616 -0.6095 -0.5696 -1.7058
16503TIP3   OH270999   6.715   2.572  16.433 -0.0507 -0.3153 -0.4826
16503TIP3    H171000   6.733   2.529  16.517 -0.8569  1.1672  0.4759
16503TIP3    H271001   6.680   2.658  16.457 -0.9749 -0.1480 -2.3421
16504TIP3   OH271002   4.568   2.114  13.768 -0.0746  0.2277 -0.6789
16504TIP3    H171003   4.630   2.087  13.700 -0.2782 -2.6248  0.2096
16504TIP3    H271004   4.483   2.116  13.724 -0.3381 -2.4431 -0.3712
16505TIP3   OH271005   6.498   3.510   0.193  0.0337  0.3390 -0.0489
16505TIP3    H171006   6.588   3.533   0.212  0.0272  0.3782 -0.0655
16505TIP3    H271007   6.446   3.583   0.227  0.0655  0.7069 -0.7705
16506TIP3   OH271008   2.692   1.824  12.032  0.1437  0.7102  0.0545
16506TIP3    H171009   2.765   1.770  12.003 -0.3121  0.4173 -0.5839
16506TIP3    H271010   2.671   1.793  12.120  0.2658  0.2523 -0.0797
16507TIP3   OH271011   0.120   3.004  10.842  0.2401  0.5715 -0.3918
16507TIP3    H171012   0.045   2.947  10.862  1.2597 -0.2151  1.2328
16507TIP3    H271013   0.153   3.032  10.927  1.2840  1.5913 -1.1225
16508TIP3   OH271014   2.285   5.246   4.137 -0.1981  0.3878 -0.0460
16508TIP3    H171015   2.305   5.299   4.060 -2.2427  2.1501  0.5829
16508TIP3    H271016   2.314   5.299   4.211 -0.1554 -0.3948  0.5099
16509TIP3   OH271017   2.492   0.406  16.825  0.2578 -0.0615 -0.0293
16509TIP3    H171018   2.547   0.482  16.808 -0.5535  0.4935 -0.1774
16509TIP3    H271019   2.547   0.349  16.880  1.1515  0.2641 -0.5741
16510TIP3   OH271020   2.377   4.943   6.329 -0.1086 -1.0882 -0.0891
16510TIP3    H171021   2.378   4.851   6.355  1.5424 -0.7737  1.0324
16510TIP3    H271022   2.464   4.958   6.291 -0.5010 -0.0763 -0.6193
16511TIP3   OH271023   0.913   6.811  11.836 -0.1127 -0.1531  0.1971
16511TIP3    H171024   0.924   6.719  11.860 -1.0571  0.1283  1.7975
16511TIP3    H271025   0.993   6.834  11.789  0.6532 -1.4743  0.8398
16512TIP3   OH271026   0.180   2.045   6.726 -0.1789  0.2564 -0.0842
16512TIP3    H171027   0.154   1.989   6.652  0.1480  1.6822 -1.3006
16512TIP3    H271028   0.266   2.012   6.753 -0.0850  0.0393 -0.6473
16513TIP3   OH271029   2.050   0.146   4.119 -0.2396 -0.0342  0.5824
16513TIP3    H171030   2.028   0.127   4.028 -0.4193 -0.3892  0.6983
16513TIP3    H271031   1.980   0.205   4.149 -2.5548 -3.2085  1.7202
16514TIP3   OH271032   5.085   4.278  13.260  0.0110 -0.0952 -0.3664
16514TIP3    H171033   5.017   4.250  13.321 -0.2079  1.0066 -0.1027
16514TIP3    H271034   5.043   4.344  13.205  0.8219  0.5037 -0.2815
16515TIP3   OH271035   0.337   5.026  16.421 -0.1822  0.2569 -0.5366
16515TIP3    H171036   0.283   5.055  16.347  0.6528  0.4819 -1.0595
16515TIP3    H271037   0.425   5.019  16.385  0.0648 -0.5230  0.2107
16516TIP3   OH271038   4.330   4.446   3.640 -0.1071  0.3166  0.2934
16516TIP3    H171039   4.250   4.396   3.658 -0.1311  1.7403  4.8911
16516TIP3    H271040   4.402   4.387   3.660 -0.1017  0.7205  1.5252
16517TIP3   OH271041   0.501   2.982   2.520 -0.0920 -0.3792  0.1738
16517TIP3    H171042   0.589   2.953   2.545 -0.6677 -1.3926  1.0210
16517TIP3    H271043   0.465   3.020   2.600 -0.7629 -0.7868  0.0683
16518TIP3   OH271044   4.978   3.826  13.820 -0.2023  0.2400  0.2821
16518TIP3    H171045   4.927   3.890  13.770 -0.7094 -0.9319 -0.7485
16518TIP3    H271046   4.929   3.744  13.810 -0.4066  0.0057  2.8819
16519TIP3   OH271047   2.584   5.543   0.675 -0.0938 -0.3991 -0.0544
16519TIP3    H171048   2.559   5.498   0.756  0.9531  0.1719  0.5944
16519TIP3    H271049   2.589   5.636   0.699 -0.6967 -0.1106 -1.0060
16520TIP3   OH271050   4.469   6.526  13.836  0.2332  0.2890 -0.4388
16520TIP3    H171051   4.382   6.550  13.805 -0.6289  0.9164  2.3138
16520TIP3    H271052   4.454   6.453  13.896  1.4175  1.2416  1.0779
16521TIP3   OH271053   4.126   2.227   0.564  0.3290 -0.3793  0.1764
16521TIP3    H171054   4.082   2.312   0.570  2.5356  0.6528  2.6155
16521TIP3    H271055   4.156   2.222   0.473  1.2357  2.0575  0.2933
16522TIP3   OH271056   4.804   5.124   4.709  0.7226  0.0748 -0.1313
16522TIP3    H171057   4.838   5.187   4.647  0.4856  0.6762  0.3463
16522TIP3    H271058   4.876   5.108   4.770  0.6783  0.1147 -0.0681
16523TIP3   OH271059   0.605   3.190  14.733 -0.5229  0.2744 -0.4598
16523TIP3    H171060   0.587   3.191  14.639 -0.7110 -1.2993 -0.4567
16523TIP3    H271061   0.557   3.114  14.766  0.4714  0.1354  0.7286
16524TIP3   OH271062   3.620   1.880   5.757 -0.1817  0.1722 -0.5404
16524TIP3    H171063   3.588   1.876   5.847  0.1258  4.0862 -0.1617
16524TIP3    H271064   3.699   1.826   5.758 -1.7666 -2.2116  0.7544
16525TIP3   OH271065   3.888   1.995   0.901  0.8250 -0.0189 -0.2660
16525TIP3    H171066   3.830   1.925   0.870  1.1187 -0.3799 -0.0034
16525TIP3    H271067   3.933   1.957   0.976  2.4666 -0.2408 -1.3342
16526TIP3   OH271068   1.132   6.128   3.931  0.3857 -0.4493 -0.0602
16526TIP3    H171069   1.038   6.118   3.947  0.3541 -1.1756 -0.6933
16526TIP3    H271070   1.138   6.193   3.861  0.4019  0.3019  0.6217
16527TIP3   OH271071   5.381   1.353   2.920  0.1624 -0.1205 -0.0815
16527TIP3    H171072   5.343   1.319   3.000  1.8668 -0.2023  0.7245
16527TIP3    H271073   5.415   1.276   2.875  0.7464  0.1080 -0.0378
16528TIP3   OH271074   2.320   2.921  17.107 -0.1526 -0.1319 -0.0425
16528TIP3    H171075   2.347   2.838  17.147 -0.8494 -0.4574 -0.2299
16528TIP3    H271076   2.334   2.987  17.175 -1.4879 -0.7066  0.8188
16529TIP3   OH271077   3.947   0.423   4.866 -0.2624  0.2209  0.2260
16529TIP3    H171078   3.998   0.415   4.946  0.0658 -0.6123 -0.0592
16529TIP3    H271079   3.880   0.355   4.873  1.9941 -2.3528 -1.8288
16530TIP3   OH271080   0.427   3.259   0.978 -0.3646  0.2374 -0.1852
16530TIP3    H171081   0.359   3.212   0.929 -2.0758  1.8043  0.6322
16530TIP3    H271082   0.396   3.257   1.068  0.7840  0.8079  0.2257
16531TIP3   OH271083   4.809   3.899   0.089  0.0895 -0.3939  0.1624
16531TIP3    H171084   4.828   3.850   0.009 -0.1756  3.3370 -2.3049
16531TIP3    H271085   4.890   3.945   0.110 -0.2932 -0.1516  1.1483
16532TIP3   OH271086   1.018   5.693  17.207  0.0889  0.3477  0.4358
16532TIP3    H171087   1.018   5.644  17.290 -0.4559  1.5467  1.1477
16532TIP3    H271088   1.111   5.699  17.184  0.1896 -0.6796  0.5429
16533TIP3   OH271089   4.084   4.358  12.810  0.3082  0.1711  0.0306
16533TIP3    H171090   4.032   4.278  12.821  0.1262  0.1980 -0.6354
16533TIP3    H271091   4.117   4.377  12.898 -0.3057 -0.1887  0.3437
16534TIP3   OH271092   1.966   3.086  17.027  0.0058  0.2073  0.1609
16534TIP3    H171093   2.026   3.158  17.009  0.1670 -0.0438 -0.3335
16534TIP3    H271094   2.015   3.008  17.002 -0.2084 -0.0621  0.5893
16535TIP3   OH271095   1.903   2.848   2.402  0.2063 -0.3849  0.1069
16535TIP3    H171096   1.953   2.768   2.386  3.3669  1.0664  2.4346
16535TIP3    H271097   1.924   2.873   2.491 -2.4302  1.9272  0.1667
16536TIP3   OH271098   1.892   3.630  14.736  0.3292  0.1598 -0.1288
16536TIP3    H171099   1.832   3.567  14.778  0.5663  0.2180  0.2975
16536TIP3    H271100   1.912   3.590  14.651 -0.5447  0.2782 -0.4035
16537TIP3   OH271101   3.982   2.933  13.604 -0.4475 -0.2180  0.2778
16537TIP3    H171102   3.960   2.906  13.693  2.1227 -0.8287  0.7853
16537TIP3    H271103   4.027   2.857  13.566 -2.1501 -0.2312 -1.8079
16538TIP3   OH271104   1.123   0.120  12.428 -0.5190  0.0556 -0.1525
16538TIP3    H171105   1.030   0.139  12.442 -0.5960 -1.1086  1.0180
16538TIP3    H271106   1.123   0.061  12.352 -0.6984  0.4575 -0.4672
16539TIP3   OH271107   1.612   5.204   0.008 -0.6131 -0.3106  0.1743
16539TIP3    H171108   1.704   5.208   0.032 -0.1417  1.5626 -1.8405
16539TIP3    H271109   1.587   5.113   0.027  2.1718 -1.4213 -1.1375
16540TIP3   OH271110   6.659   3.637  15.610  0.3383  0.0046  0.2911
16540TIP3    H171111   6.720   3.636  15.537  1.7888  0.8343  1.4516
16540TIP3    H271112   6.581   3.682  15.576  0.0338 -1.7927 -1.4404
16541TIP3   OH271113   5.249   4.788   2.853 -0.1263  0.0081  0.4435
16541TIP3    H171114   5.204   4.784   2.937  1.2886  2.2394  1.3501
16541TIP3    H271115   5.202   4.855   2.803 -0.2439 -0.4931 -0.1360
16542TIP3   OH271116   1.202   0.713  17.196 -0.2748 -0.0915 -0.1069
16542TIP3    H171117   1.253   0.636  17.172  0.2484  0.2287 -0.0417
16542TIP3    H271118   1.169   0.694  17.283 -0.8397 -0.5858 -0.4240
16543TIP3   OH271119   0.140   1.720   3.519  0.0833 -0.2650  0.1541
16543TIP3    H171120   0.083   1.649   3.490 -0.2555 -0.0104  0.1933
16543TIP3    H271121   0.085   1.799   3.512  1.1738  0.3436 -2.1320
16544TIP3   OH271122   1.706   4.740   5.648 -0.3493  0.0267 -0.3767
16544TIP3    H171123   1.666   4.770   5.729 -0.0942 -1.6254  0.3758
16544TIP3    H271124   1.800   4.753   5.661 -0.1836 -1.6728  0.2105
16545TIP3   OH271125   3.468   1.589   1.241 -0.9992  0.5351 -0.2776
16545TIP3    H171126   3.421   1.521   1.192 -0.1644  0.0463 -0.4209
16545TIP3    H271127   3.403   1.627   1.299 -0.9108 -2.1880  1.7151
16546TIP3   OH271128   1.544   6.070  13.662  0.3264  0.1886  0.8125
16546TIP3    H171129   1.556   6.086  13.756  0.6152 -1.5368  1.0958
16546TIP3    H271130   1.471   6.126  13.637 -0.8341 -0.5369  2.4463
16547TIP3   OH271131   3.795   3.378   0.438  0.3683 -0.1769  0.3246
16547TIP3    H171132   3.782   3.367   0.344  0.5340  0.2514  0.2517
16547TIP3    H271133   3.838   3.463   0.447 -0.8314  0.3836  0.8812
16548TIP3   OH271134   0.854   2.964  14.630 -0.0995 -0.2912  0.1798
16548TIP3    H171135   0.807   3.047  14.633 -0.5245 -0.5829  3.3870
16548TIP3    H271136   0.944   2.985  14.655 -0.2554 -0.7930  1.2055
16549TIP3   OH271137   5.822   0.328  14.813 -0.4145 -0.1062  0.3812
16549TIP3    H171138   5.903   0.357  14.771 -0.5358 -0.1917  0.0918
16549TIP3    H271139   5.752   0.371  14.764 -0.5054  0.8023  1.2767
16550TIP3   OH271140   0.330   2.456   5.135  0.0111  0.6560 -0.5476
16550TIP3    H171141   0.412   2.412   5.113 -1.1228 -0.1639 -3.3097
16550TIP3    H271142   0.351   2.549   5.130  0.8238  0.4535 -0.9689
16551TIP3   OH271143   4.425   4.094   5.060 -0.3136  0.1804 -0.1202
16551TIP3    H171144   4.423   4.000   5.040  2.0563 -0.0516  0.5634
16551TIP3    H271145   4.360   4.106   5.129  1.5200 -1.5279  1.9752
16552TIP3   OH271146   0.969   1.403   1.644  0.7031  0.6653 -0.3103
16552TIP3    H171147   0.980   1.314   1.610 -0.5117  0.3972 -0.0327
16552TIP3    H271148   0.916   1.448   1.579  0.0100  0.7231  0.2845
16553TIP3   OH271149   1.340   1.383   4.130 -0.2489 -0.1186  0.5253
16553TIP3    H171150   1.251   1.418   4.143 -0.2240  0.0651  0.2258
16553TIP3    H271151   1.328   1.313   4.066 -0.0698  0.4543 -0.1559
16554TIP3   OH271152   0.608   5.793  12.284 -0.0078 -0.1101  0.3520
16554TIP3    H171153   0.627   5.799  12.377 -2.0815  1.2377  0.7120
16554TIP3    H271154   0.540   5.726  12.277  2.8019 -2.9639 -0.6354
16555TIP3   OH271155   1.129   2.393   5.636  0.3773  0.1431 -0.2271
16555TIP3    H171156   1.039   2.423   5.653  0.7774  0.7927  0.8030
16555TIP3    H271157   1.122   2.340   5.556 -1.0697 -0.5534  0.3444
16556TIP3   OH271158   0.537   6.398  16.121 -0.3221  0.1783 -0.6091
16556TIP3    H171159   0.622   6.438  16.140 -1.3104  1.1738  1.9384
16556TIP3    H271160   0.476   6.471  16.118 -2.0306 -0.9319  3.3479
16557TIP3   OH271161   3.704   4.484   0.591  0.5599 -0.2055 -0.4365
16557TIP3    H171162   3.727   4.552   0.654  0.2956  0.8535 -1.4579
16557TIP3    H271163   3.610   4.494   0.578  0.2635 -1.7098  0.4821
16558TIP3   OH271164   5.667   4.041   1.815 -0.4503 -0.3053 -0.3827
16558TIP3    H171165   5.725   4.080   1.880 -4.5640 -1.0260  4.0148
16558TIP3    H271166   5.626   4.115   1.771  0.2577  0.2085 -0.1850
16559TIP3   OH271167   1.031   3.028  16.363 -0.1344  0.0195  0.1189
16559TIP3    H171168   1.010   3.099  16.303 -1.0131 -0.8461 -0.6253
16559TIP3    H271169   1.032   3.068  16.450 -1.4310  0.7902 -0.2049
16560TIP3   OH271170   5.350   2.000  14.108  0.0225 -0.5772 -0.4249
16560TIP3    H171171   5.279   2.024  14.168  0.7275  0.5749 -0.0369
16560TIP3    H271172   5.324   2.035  14.023  0.8170  1.1770  0.0343
16561TIP3   OH271173   3.323   5.277   4.911 -0.2763 -0.4743  0.3835
16561TIP3    H171174   3.260   5.225   4.961  0.0832 -0.7320  0.5712
16561TIP3    H271175   3.271   5.319   4.843 -0.6121 -0.8723  0.3935
16562TIP3   OH271176   4.305   2.604   5.506  0.3310 -0.0631 -0.1822
16562TIP3    H171177   4.390   2.639   5.477  0.7221 -1.2967 -0.5492
16562TIP3    H271178   4.296   2.521   5.460 -1.3898  0.3562 -0.6468
16563TIP3   OH271179   4.153   6.614  13.592 -0.4576  0.0760 -0.6705
16563TIP3    H171180   4.136   6.537  13.646 -0.9754  0.1581 -0.7201
16563TIP3    H271181   4.197   6.675  13.651  0.0241 -0.2847 -0.6508
16564TIP3   OH271182   1.617   3.979  13.080  0.0464  0.1934 -0.3714
16564TIP3    H171183   1.576   3.911  13.025 -0.5724  0.2201  0.0567
16564TIP3    H271184   1.558   3.988  13.155 -0.1475  1.5798 -0.6826
16565TIP3   OH271185   3.662   1.794  17.115  0.8379 -0.2150 -0.1944
16565TIP3    H171186   3.730   1.786  17.049 -0.3017  2.6735 -1.8499
16565TIP3    H271187   3.585   1.753  17.076  1.0454 -1.5332  0.7610
16566TIP3   OH271188   1.087   6.018   4.261  0.5563 -0.6551 -0.3912
16566TIP3    H171189   1.082   5.999   4.167  1.4224 -1.7688 -0.2249
16566TIP3    H271190   1.060   6.109   4.268 -0.1127 -0.7396 -1.6520
16567TIP3   OH271191   6.646   3.233  17.151 -0.4409  0.5611  0.5812
16567TIP3    H171192   6.582   3.301  17.132 -0.7031 -0.4000 -2.2680
16567TIP3    H271193   6.611   3.188  17.227 -1.9004  1.6135  0.5609
16568TIP3   OH271194   5.243   4.361  14.175 -0.2448 -0.0746  0.0985
16568TIP3    H171195   5.165   4.404  14.209 -0.7218 -1.4421  0.7850
16568TIP3    H271196   5.219   4.333  14.087 -0.9142 -1.4350  0.6962
16569TIP3   OH271197   0.053   0.678  16.338  0.3229  0.4137 -0.5830
16569TIP3    H171198   0.063   0.674  16.243 -2.1126  0.3423 -0.8731
16569TIP3    H271199  -0.013   0.610  16.358 -1.1523  2.1961  0.8277
16570TIP3   OH271200   3.154   3.226  14.409 -0.4474 -0.0648 -0.4885
16570TIP3    H171201   3.179   3.154  14.351 -3.9283 -0.4232 -1.6551
16570TIP3    H271202   3.134   3.299  14.349 -1.8831  0.2668  0.3581
16571TIP3   OH271203   6.049   5.335   3.945  0.0650 -0.4714 -0.2017
16571TIP3    H171204   6.055   5.424   3.980 -2.3570 -0.9189  1.5113
16571TIP3    H271205   6.125   5.290   3.983  2.7844  1.4452 -3.1341
16572TIP3   OH271206   1.367   5.125   5.402  0.4485  0.3964 -0.3034
16572TIP3    H171207   1.386   5.183   5.329  0.9435  1.3850  0.5998
16572TIP3    H271208   1.346   5.041   5.361  1.4559  0.7372 -1.5426
16573TIP3   OH271209   2.096   2.431   0.564 -0.1453 -0.6929 -0.2175
16573TIP3    H171210   2.034   2.377   0.613 -1.2091 -2.2039 -3.1330
16573TIP3    H271211   2.169   2.372   0.544  1.5494  0.6527  1.8326
16574TIP3   OH271212   0.747   2.120  17.207 -0.1177 -0.4421  0.2947
16574TIP3    H171213   0.681   2.098  17.140 -0.6486 -0.0928  0.6981
16574TIP3    H271214   0.708   2.193  17.255  0.7111 -0.0279  0.3353
16575TIP3   OH271215   5.196   6.559   4.446  0.1076 -0.6993 -0.2089
16575TIP3    H171216   5.192   6.618   4.522 -0.7226 -1.4154  0.3096
16575TIP3    H271217   5.268   6.499   4.466  0.9635  0.1301 -0.7435
16576TIP3   OH271218   5.625   2.368   0.948 -0.1526  0.8975  0.6110
16576TIP3    H171219   5.696   2.371   1.012 -0.7570 -1.5607  1.4697
16576TIP3    H271220   5.638   2.445   0.893  1.0922  2.3958  2.9438
16577TIP3   OH271221   0.284   3.656  17.206  0.3902  0.1625 -0.4980
16577TIP3    H171222   0.307   3.748  17.217 -0.5841  0.2075  1.3319
16577TIP3    H271223   0.191   3.657  17.186  0.2746 -0.4442 -0.0084
16578TIP3   OH271224   6.006   1.528   4.372  0.1116 -0.1104  0.4360
16578TIP3    H171225   5.989   1.618   4.399 -0.5446 -0.3376  0.7946
16578TIP3    H271226   6.039   1.485   4.451  0.7188 -0.1071  0.1855
16579TIP3   OH271227   2.445   3.623  14.804 -0.5277 -0.6730  0.2192
16579TIP3    H171228   2.442   3.578  14.888 -1.9212  0.1038  0.5909
16579TIP3    H271229   2.354   3.633  14.778 -0.3098  2.5817  0.5229
16580TIP3   OH271230   3.926   3.544   4.112  0.2032 -0.2282 -0.2682
16580TIP3    H171231   3.954   3.462   4.152 -0.1538 -0.8773 -1.3322
16580TIP3    H271232   3.841   3.562   4.152  0.5020 -0.1125  0.3294
16581TIP3   OH271233   1.742   1.439  13.994 -0.3870 -0.3657 -0.3389
16581TIP3    H171234   1.728   1.532  13.974 -1.8151 -0.6093 -0.5424
16581TIP3    H271235   1.801   1.409  13.925  0.8634  0.6161  0.2924
16582TIP3   OH271236   6.459   1.493  15.892  0.4073  0.1693  0.6266
16582TIP3    H171237   6.474   1.521  15.982  0.0202 -0.6564  0.9540
16582TIP3    H271238   6.534   1.437  15.871  0.0782 -0.3138  0.7266
16583TIP3   OH271239   6.644   3.712   3.668 -0.1594  0.1548  0.2944
16583TIP3    H171240   6.663   3.644   3.603 -1.4559 -0.9074  0.9962
16583TIP3    H271241   6.691   3.684   3.746 -2.6290 -1.2600  1.3294
16584TIP3   OH271242   5.241   3.749   2.546 -0.2139  0.1956  0.0490
16584TIP3    H171243   5.269   3.725   2.634 -0.3056 -0.0238  0.0190
16584TIP3    H271244   5.322   3.772   2.501 -0.4603  3.1003  1.0360
16585TIP3   OH271245   1.894   4.078   2.639  0.6424 -0.1072  0.3183
16585TIP3    H171246   1.908   4.160   2.591  2.7109 -1.2199 -1.0415
16585TIP3    H271247   1.941   4.091   2.722  1.1903 -0.0219 -0.0039
16586TIP3   OH271248   3.270   0.618   0.107 -0.7777  0.3243  0.2127
16586TIP3    H171249   3.308   0.706   0.109  1.3749 -0.5441 -0.2181
16586TIP3    H271250   3.225   0.612   0.023 -0.9911  1.0491  0.2785
16587TIP3   OH271251   1.350   0.514   0.878 -0.1674 -0.4022 -0.1577
16587TIP3    H171252   1.321   0.479   0.793 -0.1915  1.6318 -1.0219
16587TIP3    H271253   1.445   0.522   0.869 -0.1249 -0.5736  0.1466
16588TIP3   OH271254   4.482   0.166   2.839 -0.0301  0.1456 -0.1666
16588TIP3    H171255   4.471   0.123   2.924 -2.0853 -0.1274 -0.5608
16588TIP3    H271256   4.443   0.252   2.849 -2.4298 -0.7250 -1.4765
16589TIP3   OH271257   5.787   1.177  17.088 -0.5260  0.1883 -0.6575
16589TIP3    H171258   5.823   1.110  17.031 -0.0317  0.8299 -1.1029
16589TIP3    H271259   5.768   1.251  17.030  0.7183  1.1368  0.1227
16590TIP3   OH271260   1.025   2.381   1.927 -0.5737  0.5837  0.0943
16590TIP3    H171261   1.120   2.388   1.916 -0.4525 -1.1709 -0.0791
16590TIP3    H271262   0.989   2.405   1.841 -0.2761  0.7264  0.0082
16591TIP3   OH271263   3.246   0.120   5.079  0.1307 -0.3587  0.1898
16591TIP3    H171264   3.187   0.165   5.018 -0.8517 -0.6197  0.9421
16591TIP3    H271265   3.333   0.141   5.046 -0.3558  0.5120 -0.5992
16592TIP3   OH271266   0.338   5.082   4.310  0.6548 -0.1781 -0.7361
16592TIP3    H171267   0.262   5.109   4.362 -0.9587 -1.8147 -2.1729
16592TIP3    H271268   0.357   4.993   4.340  2.0835  0.2601 -0.3156
16593TIP3   OH271269   0.981   0.890  13.548  0.3962  0.9456  0.6113
16593TIP3    H171270   1.042   0.839  13.496 -2.7267 -1.4867 -0.8407
16593TIP3    H271271   0.985   0.851  13.635 -0.6440 -0.6537 -0.0378
16594TIP3   OH271272   4.647   5.392  17.073 -0.5256  0.6629  0.3428
16594TIP3    H171273   4.740   5.371  17.060 -0.9547 -1.1931  0.2355
16594TIP3    H271274   4.631   5.376  17.166 -1.2885 -1.3028 -0.1006
16595TIP3   OH271275   5.011   0.210   5.763  0.0077 -0.2502 -0.1382
16595TIP3    H171276   4.945   0.194   5.696  0.2198  0.0450 -0.4170
16595TIP3    H271277   4.962   0.251   5.835 -0.3517 -1.2384  0.1841
16596TIP3   OH271278   3.797   5.446  12.714 -0.4400 -0.9730 -0.5626
16596TIP3    H171279   3.851   5.367  12.718  0.3793 -0.3607  1.9831
16596TIP3    H271280   3.860   5.517  12.699 -0.7557 -0.4672  0.4442
16597TIP3   OH271281   2.750   3.245  16.656  0.1041  0.6644 -0.2863
16597TIP3    H171282   2.717   3.199  16.733  1.6054 -0.5158 -0.3345
16597TIP3    H271283   2.706   3.330  16.658 -0.8566  0.1472  1.1378
16598TIP3   OH271284   5.171   4.793  16.524 -0.3496 -0.4834  0.0002
16598TIP3    H171285   5.095   4.829  16.570  0.1927 -0.4019  0.8433
16598TIP3    H271286   5.240   4.791  16.590  0.4414 -0.3684 -0.8138
16599TIP3   OH271287   2.910   1.035  13.575 -0.5535 -0.0376  0.3929
16599TIP3    H171288   2.984   1.071  13.526 -0.5864  1.3383  1.3064
16599TIP3    H271289   2.946   0.960  13.621 -0.0027 -0.0489 -0.0479
16600TIP3   OH271290   6.131   0.140  12.683  0.0392  0.6428  0.7724
16600TIP3    H171291   6.112   0.222  12.729 -3.9665 -0.1558  0.7173
16600TIP3    H271292   6.094   0.153  12.595 -1.2742 -1.4574  0.9910
16601TIP3   OH271293   3.415   1.055  10.602 -0.1658 -0.2737 -0.5360
16601TIP3    H171294   3.363   1.135  10.603  0.2852  0.0297 -0.9627
16601TIP3    H271295   3.356   0.989  10.565 -0.0262  0.2263 -1.6632
16602TIP3   OH271296   6.257   4.761  14.767 -0.0654 -0.2328 -0.4490
16602TIP3    H171297   6.340   4.808  14.757 -0.0493 -0.2558 -0.4230
16602TIP3    H271298   6.272   4.701  14.840 -0.2150  0.0071 -0.2194
16603TIP3   OH271299   1.308   5.993   6.552 -1.1655 -0.1502  0.0520
16603TIP3    H171300   1.265   6.065   6.597 -2.6212 -1.0209  0.0792
16603TIP3    H271301   1.346   6.033   6.474 -0.9290  0.8659  0.6850
16604TIP3   OH271302   0.459   1.163   1.571  0.2936  0.0803  0.5474
16604TIP3    H171303   0.450   1.186   1.664  0.0030 -1.0139  0.7986
16604TIP3    H271304   0.459   1.247   1.526 -1.7778  0.5541  1.3647
16605TIP3   OH271305   3.834   5.836   0.484  0.1278  0.4708  0.6715
16605TIP3    H171306   3.751   5.803   0.449  0.4849 -1.1160  1.2972
16605TIP3    H271307   3.809   5.881   0.565  0.0634 -1.5014  1.7704
16606TIP3   OH271308   2.899   1.860   1.798 -0.4045 -0.2503  0.3914
16606TIP3    H171309   2.943   1.808   1.731  0.9562 -0.5364  1.4795
16606TIP3    H271310   2.824   1.807   1.825  1.4806 -2.1055  2.1421
16607TIP3   OH271311   0.065   3.938  16.761 -0.0361  0.3681 -0.2179
16607TIP3    H171312   0.073   3.852  16.803 -0.0001  0.2965 -0.3704
16607TIP3    H271313   0.107   3.927  16.676  1.9775  1.1711  0.6583
16608TIP3   OH271314   5.923   6.642  14.257  0.0857  0.0208 -0.0841
16608TIP3    H171315   5.860   6.571  14.273 -1.8336  1.5989 -0.5165
16608TIP3    H271316   6.002   6.613  14.302 -1.0747 -1.7827  0.8864
16609TIP3   OH271317   0.561   0.091  11.361 -0.4363 -0.0616  0.2926
16609TIP3    H171318   0.619   0.157  11.399  0.4977 -1.1571  0.7702
16609TIP3    H271319   0.529   0.133  11.281  0.5108  0.8065  0.3444
16610TIP3   OH271320   6.146   5.582  11.780 -0.2078  0.0057  0.6478
16610TIP3    H171321   6.219   5.630  11.740  0.8911 -3.0282 -1.1738
16610TIP3    H271322   6.180   5.553  11.865  0.3835 -0.5604  0.2231
16611TIP3   OH271323   3.709   0.620   3.597  0.1355 -0.7024 -0.4223
16611TIP3    H171324   3.778   0.579   3.545 -0.0998  0.3888 -1.6116
16611TIP3    H271325   3.754   0.685   3.650 -0.1818  1.1486 -2.3986
16612TIP3   OH271326   4.907   0.476  14.436 -1.1003 -0.4926 -0.2184
16612TIP3    H171327   4.981   0.487  14.495 -0.8957 -2.4420 -0.0671
16612TIP3    H271328   4.892   0.563  14.399 -0.4999  0.5124  1.8243
16613TIP3   OH271329   4.092   1.530   3.785  0.1882  0.3422 -0.0692
16613TIP3    H171330   4.097   1.485   3.870  1.6522 -0.5485 -0.6126
16613TIP3    H271331   4.183   1.550   3.763 -0.3468  2.5853 -0.3907
16614TIP3   OH271332   3.626   3.199   0.837  0.3860 -0.0723 -0.2232
16614TIP3    H171333   3.662   3.277   0.795  0.3751  1.5064  2.5408
16614TIP3    H271334   3.692   3.173   0.901 -0.0280 -1.8020 -0.4653
16615TIP3   OH271335   0.667   2.689  15.807  0.3829  0.3501  0.4453
16615TIP3    H171336   0.628   2.701  15.721  1.6098 -1.0412 -0.3263
16615TIP3    H271337   0.627   2.609  15.841 -0.3439  1.0693  1.3291
16616TIP3   OH271338   0.856   0.624  16.597  0.5904  0.0157  0.3264
16616TIP3    H171339   0.779   0.635  16.653  0.2290  0.8744 -0.3227
16616TIP3    H271340   0.923   0.588  16.655  0.6357  2.1551  1.6391
16617TIP3   OH271341   6.238   6.775   5.423  0.0486  0.1856 -0.6472
16617TIP3    H171342   6.241   6.774   5.519 -1.2315 -0.4187 -0.6021
16617TIP3    H271343   6.213   6.685   5.400 -0.1220  0.4633 -1.5288
16618TIP3   OH271344   5.173   2.307   1.196 -0.1223 -0.1891 -0.9861
16618TIP3    H171345   5.164   2.402   1.209  0.3328 -0.5095  2.1025
16618TIP3    H271346   5.084   2.273   1.207 -0.0839 -0.2610 -0.9036
16619TIP3   OH271347   5.978   3.935  14.944  0.6862  0.6761  0.9362
16619TIP3    H171348   6.010   4.001  14.882  1.6446 -1.8130 -1.3361
16619TIP3    H271349   5.884   3.952  14.950  0.6883  1.3974 -0.6651
16620TIP3   OH271350   3.930   4.928  14.223  0.1485  0.2876  0.1340
16620TIP3    H171351   4.015   4.956  14.190  0.1492  0.1090 -0.0183
16620TIP3    H271352   3.930   4.833  14.214 -0.2944  0.3343 -0.4339
16621TIP3   OH271353   2.002   6.434   0.132 -0.4087 -0.2291 -0.1220
16621TIP3    H171354   2.016   6.524   0.161 -0.3202  0.2225 -1.5092
16621TIP3    H271355   1.918   6.409   0.169 -0.0669  0.1507  0.9205
16622TIP3   OH271356   6.199   5.246   0.301 -0.7492 -0.0461  0.4515
16622TIP3    H171357   6.147   5.233   0.380 -0.9075 -0.1895  0.3248
16622TIP3    H271358   6.265   5.176   0.304 -1.7753 -1.0671 -0.3698
16623TIP3   OH271359   3.755   2.651   3.108 -0.2168  0.7971 -0.3527
16623TIP3    H171360   3.826   2.638   3.045  0.7481 -0.4018  0.9336
16623TIP3    H271361   3.795   2.701   3.179  0.0759 -1.9886  1.5369
16624TIP3   OH271362   5.450   0.559   2.312 -0.1985 -0.4422 -0.3384
16624TIP3    H171363   5.393   0.635   2.320  1.1184  0.4996  0.1985
16624TIP3    H271364   5.483   0.544   2.400  0.6840 -0.7529 -0.7184
16625TIP3   OH271365   1.262   4.754  13.934  0.1578 -0.0637 -0.1642
16625TIP3    H171366   1.333   4.716  13.987 -0.6652  0.4743  1.3390
16625TIP3    H271367   1.202   4.681  13.919  1.1661 -0.6048 -1.7237
16626TIP3   OH271368   2.623   6.229   4.817 -0.5761 -0.0157 -0.2157
16626TIP3    H171369   2.672   6.282   4.880  0.9691 -2.0378  0.3417
16626TIP3    H271370   2.690   6.185   4.765 -1.8312 -0.5874 -1.4016
16627TIP3   OH271371   5.019   5.688   5.532 -0.1563  0.2366  0.0218
16627TIP3    H171372   4.946   5.642   5.490 -0.4939  0.1960  0.6408
16627TIP3    H271373   5.027   5.646   5.618  0.8792 -0.0512 -0.2081
16628TIP3   OH271374   3.589   3.748  12.990 -0.0706  0.1708  0.3514
16628TIP3    H171375   3.552   3.664  13.016 -0.2489  0.0453 -0.2872
16628TIP3    H271376   3.520   3.812  13.010  0.1700  0.2049  1.0904
16629TIP3   OH271377   1.263   6.377   2.388 -0.0531 -0.2841  0.2261
16629TIP3    H171378   1.213   6.372   2.469 -0.9995  1.5528 -0.2112
16629TIP3    H271379   1.200   6.354   2.319 -0.3481  1.9982 -0.3224
16630TIP3   OH271380   1.214   3.375  11.420  0.0885 -0.1452  0.0109
16630TIP3    H171381   1.236   3.448  11.478  0.9760 -0.3273 -0.0945
16630TIP3    H271382   1.194   3.302  11.480  1.3724 -0.4399  0.0906
16631TIP3   OH271383   2.542   2.675  14.701 -0.0524  0.4903  0.4820
16631TIP3    H171384   2.454   2.670  14.739 -0.4014 -2.6028 -0.5759
16631TIP3    H271385   2.542   2.756  14.651 -2.2362  0.6311  0.6690
16632TIP3   OH271386   3.040   6.408  16.763 -0.0637  0.0398 -0.0027
16632TIP3    H171387   3.071   6.474  16.702 -1.0542  0.3566 -0.1632
16632TIP3    H271388   3.118   6.385  16.815  0.2686  1.3512  0.0794
16633TIP3   OH271389   4.068   1.788  16.163 -0.0092  0.1497 -0.4375
16633TIP3    H171390   4.023   1.718  16.210 -0.8579  1.1644  0.2956
16633TIP3    H271391   4.149   1.802  16.212  1.1565 -1.7392 -1.8104
16634TIP3   OH271392   0.049   3.641  14.345 -0.0549 -1.0413  0.4415
16634TIP3    H171393   0.111   3.660  14.416 -0.7093  2.0044  0.2399
16634TIP3    H271394   0.095   3.668  14.266 -1.4324  0.8558  0.2563
16635TIP3   OH271395   5.967   1.564  15.439  0.4141 -0.3589 -0.0653
16635TIP3    H171396   5.872   1.580  15.440  0.1054 -1.9246 -1.4131
16635TIP3    H271397   6.003   1.635  15.386  0.2768  1.4806  2.2304
16636TIP3   OH271398   4.375   6.191   0.285  0.6575  0.9688 -0.6484
16636TIP3    H171399   4.431   6.265   0.261 -0.4339  1.4266 -1.7893
16636TIP3    H271400   4.296   6.202   0.233  0.3202 -0.7968 -0.5448
16637TIP3   OH271401   3.006   2.108  16.197 -0.0261  0.1809  0.0892
16637TIP3    H171402   3.094   2.119  16.160  0.1915 -0.9670  0.2361
16637TIP3    H271403   2.947   2.127  16.125  0.3722 -0.7080 -0.4758
16638TIP3   OH271404   6.410   4.370  13.131  0.0665 -0.3388 -0.2671
16638TIP3    H171405   6.327   4.400  13.170 -0.3526 -2.9260  0.9460
16638TIP3    H271406   6.384   4.300  13.071  1.2398  0.0914 -1.3116
16639TIP3   OH271407   3.867   1.258   3.708 -0.0156  0.5093  0.1283
16639TIP3    H171408   3.780   1.297   3.709 -0.9821 -1.6121  1.2605
16639TIP3    H271409   3.890   1.248   3.800  0.6679 -0.5892 -0.1544
16640TIP3   OH271410   4.683   3.383  17.052  0.6248  1.2802 -0.1046
16640TIP3    H171411   4.761   3.427  17.018 -0.2455  2.5685 -0.4633
16640TIP3    H271412   4.692   3.389  17.147  0.4369  2.3794 -0.1503
16641TIP3   OH271413   0.659   4.975  12.398  0.1682 -0.5052  0.4882
16641TIP3    H171414   0.601   5.018  12.335  0.2620 -1.5256 -0.3015
16641TIP3    H271415   0.607   4.967  12.477 -0.6422 -1.0522 -0.0941
16642TIP3   OH271416   1.145   1.513  11.947  0.2074 -0.4189 -0.3812
16642TIP3    H171417   1.060   1.541  11.979  0.2331 -1.6622  0.7817
16642TIP3    H271418   1.136   1.512  11.852 -0.9195 -0.0695 -0.2799
16643TIP3   OH271419   0.094   2.698  15.311  0.3401 -0.7302  0.2614
16643TIP3    H171420   0.036   2.707  15.236  0.5921  0.3478  0.1806
16643TIP3    H271421   0.051   2.634  15.368 -0.7698 -0.1862  0.0534
16644TIP3   OH271422   4.854   3.795  14.067 -0.2485  0.7377 -0.3647
16644TIP3    H171423   4.909   3.776  14.143 -1.2397  1.3549  0.5242
16644TIP3    H271424   4.912   3.782  13.991  0.5260 -0.6544  0.4475
16645TIP3   OH271425   4.954   4.946   3.771 -0.2478  0.1743 -0.4677
16645TIP3    H171426   4.968   4.988   3.856  0.4860 -0.7457 -0.1250
16645TIP3    H271427   4.914   4.862   3.793 -0.9816  0.3603 -1.0957
16646TIP3   OH271428   2.355   5.354   0.153 -0.6781 -0.0564  0.6299
16646TIP3    H171429   2.285   5.398   0.201 -0.6512 -0.1123  0.7216
16646TIP3    H271430   2.374   5.411   0.078 -0.9623 -0.1427  0.4925
16647TIP3   OH271431   2.482   1.409  13.652 -0.1583  0.1489  0.0223
16647TIP3    H171432   2.502   1.319  13.678  0.0308 -0.2332 -1.4177
16647TIP3    H271433   2.407   1.434  13.706 -0.4838 -1.0127  0.1057
16648TIP3   OH271434   0.884   3.462  11.133 -0.0771  0.2757  0.1883
16648TIP3    H171435   0.894   3.535  11.072 -0.8158  0.7189  0.5901
16648TIP3    H271436   0.844   3.392  11.080  2.0745 -0.3916 -0.5930
16649TIP3   OH271437   4.856   5.344  16.694 -0.5512 -0.7038 -0.0037
16649TIP3    H171438   4.799   5.272  16.668  1.3414 -2.8801  1.6062
16649TIP3    H271439   4.864   5.335  16.789  0.9372  0.6999  0.0314
16650TIP3   OH271440   2.824   2.210   4.741 -0.4097  0.6591  0.2199
16650TIP3    H171441   2.788   2.289   4.782 -1.2667  1.6150 -2.2807
16650TIP3    H271442   2.752   2.148   4.739 -1.2241  1.6097 -2.2988
16651TIP3   OH271443   1.139   5.458   4.707 -0.4418  0.2319  0.8595
16651TIP3    H171444   1.128   5.366   4.729  0.3113 -0.1884 -0.5219
16651TIP3    H271445   1.103   5.505   4.783 -0.7023 -1.1832  1.6210
16652TIP3   OH271446   4.430   1.770  13.686  0.6902  0.2622  0.2190
16652TIP3    H171447   4.393   1.726  13.762 -1.0177 -0.9620 -1.2861
16652TIP3    H271448   4.523   1.747  13.688  0.6941  0.4300  2.0574
16653TIP3   OH271449   5.111   3.565  12.957 -0.3271 -0.0198  0.4790
16653TIP3    H171450   5.195   3.538  12.921 -0.5580 -0.9087  0.5918
16653TIP3    H271451   5.125   3.654  12.989  0.8112 -0.4906  1.3066
16654TIP3   OH271452   5.997   1.930   2.949  0.8172 -0.7349  0.3595
16654TIP3    H171453   6.000   1.998   2.882  1.6299  0.1811  1.3077
16654TIP3    H271454   5.909   1.937   2.986  0.6695 -0.6535 -0.0066
16655TIP3   OH271455   5.264   5.133   4.782 -0.1533  0.4647  0.2439
16655TIP3    H171456   5.260   5.037   4.788  0.7167  0.4000 -0.0522
16655TIP3    H271457   5.195   5.156   4.719  1.1199 -0.1706 -1.4256
16656TIP3   OH271458   6.238   2.242  14.197  0.4419  0.0817  0.1016
16656TIP3    H171459   6.203   2.328  14.217  1.0456  0.1586  0.8136
16656TIP3    H271460   6.280   2.213  14.278  0.3672 -0.8177 -0.1744
16657TIP3   OH271461   5.288   2.727  12.514  0.4612  0.2306  0.7858
16657TIP3    H171462   5.223   2.657  12.502  1.8499 -0.6068 -2.2663
16657TIP3    H271463   5.357   2.687  12.566  0.7714 -0.3638 -0.0767
16658TIP3   OH271464   6.508   6.179   1.900 -0.1823 -0.0723 -0.0191
16658TIP3    H171465   6.521   6.241   1.829 -1.8649  0.2888 -0.0473
16658TIP3    H271466   6.462   6.229   1.968 -0.7393 -1.0323  0.3297
16659TIP3   OH271467   2.447   4.015   0.330 -0.1850 -0.0438 -1.0070
16659TIP3    H171468   2.445   4.110   0.317 -2.9973  0.0066 -0.4621
16659TIP3    H271469   2.429   4.004   0.424  0.3539 -1.1356 -1.0277
16660TIP3   OH271470   5.322   5.655   0.141  0.7488  0.4587  0.9673
16660TIP3    H171471   5.240   5.696   0.113  0.1568 -0.6424  1.0641
16660TIP3    H271472   5.363   5.720   0.197  1.2171  2.0874 -1.1987
16661TIP3   OH271473   5.092   5.564   1.613 -0.0241  0.0908  0.6710
16661TIP3    H171474   5.138   5.492   1.570  1.1332  0.5465  1.1282
16661TIP3    H271475   5.152   5.593   1.682 -0.8459  0.9291  1.0442
16662TIP3   OH271476   6.378   2.723   5.506 -0.0505 -0.0612  0.0504
16662TIP3    H171477   6.466   2.687   5.502  0.2550  0.5246  1.2297
16662TIP3    H271478   6.389   2.807   5.551 -1.2940 -0.2803  0.7852
16663TIP3   OH271479   0.817   6.745   3.239 -0.0077  0.3966 -0.0875
16663TIP3    H171480   0.898   6.780   3.201 -0.3432  3.1245  1.5464
16663TIP3    H271481   0.747   6.792   3.194 -0.6488 -0.8807 -0.4473
16664TIP3   OH271482   4.700   4.603  11.979  0.3011  0.3445  0.1150
16664TIP3    H171483   4.790   4.633  11.994 -0.0253  0.7413  1.3158
16664TIP3    H271484   4.648   4.645  12.048 -1.4721  3.1412 -2.7911
16665TIP3   OH271485   1.858   3.911  15.522  0.0394 -0.4397  0.7357
16665TIP3    H171486   1.901   3.979  15.574  0.6541  1.2788 -1.9093
16665TIP3    H271487   1.929   3.865  15.479 -0.5364 -0.8772  0.2503
16666TIP3   OH271488   3.433   5.810   0.054  0.0656 -0.5914  0.1676
16666TIP3    H171489   3.449   5.773  -0.033  0.3499 -1.7143  0.6942
16666TIP3    H271490   3.510   5.863   0.073  0.1491 -0.6103 -0.1186
16667TIP3   OH271491   1.157   5.595   2.593 -0.0412  0.2892 -0.1426
16667TIP3    H171492   1.127   5.505   2.589 -1.1832  0.5805  1.3834
16667TIP3    H271493   1.240   5.590   2.642  0.6299 -0.0942 -1.3072
16668TIP3   OH271494   1.624   2.848  13.555  0.4061  0.1736 -0.1317
16668TIP3    H171495   1.642   2.774  13.613 -2.0417  0.8340  1.5415
16668TIP3    H271496   1.541   2.884  13.587  0.4219  2.2660 -2.3235
16669TIP3   OH271497   1.487   0.506   3.627  0.0604  0.1860  0.0025
16669TIP3    H171498   1.483   0.600   3.640  1.1611  0.0512  1.3804
16669TIP3    H271499   1.415   0.470   3.679 -0.0531  0.2170 -0.1313
16670TIP3   OH271500   5.860   6.104  16.495  0.4556 -0.2631 -0.2385
16670TIP3    H171501   5.870   6.145  16.409 -0.4496 -1.8695 -1.1345
16670TIP3    H271502   5.879   6.174  16.558 -0.5551  1.3651 -1.7277
16671TIP3   OH271503   0.528   4.419  12.732 -0.5197  0.2024  0.2532
16671TIP3    H171504   0.584   4.367  12.674  0.5570  0.1938  1.2789
16671TIP3    H271505   0.452   4.363  12.749 -1.1321  0.4419 -1.6160
16672TIP3   OH271506   5.929   4.389   5.136  0.0558  0.2296 -0.0918
16672TIP3    H171507   5.976   4.360   5.059 -0.2407 -0.0549 -0.1696
16672TIP3    H271508   5.840   4.406   5.105  0.2476  1.3002 -0.0596
16673TIP3   OH271509   5.666   2.265  11.135  0.4870 -0.1231  0.4026
16673TIP3    H171510   5.629   2.353  11.141 -0.8859 -0.5668 -1.3031
16673TIP3    H271511   5.732   2.263  11.205 -0.9148  1.5318  1.8407
16674TIP3   OH271512   5.418   1.741   3.178  0.0100 -0.3190 -0.2474
16674TIP3    H171513   5.462   1.820   3.210  0.0719 -0.4899  0.0828
16674TIP3    H271514   5.384   1.767   3.092 -2.6837  1.0076  1.1848
16675TIP3   OH271515   2.660   5.415   4.621 -0.4184 -0.0958 -0.0802
16675TIP3    H171516   2.638   5.366   4.542 -1.8283  1.0051 -0.3912
16675TIP3    H271517   2.745   5.380   4.648  0.4662  0.0706 -2.5302
16676TIP3   OH271518   4.827   6.247  13.201  0.3955  0.2266 -0.1114
16676TIP3    H171519   4.787   6.184  13.260 -1.4726 -0.0062 -1.5915
16676TIP3    H271520   4.769   6.324  13.205  1.1346  0.8110 -0.4432
16677TIP3   OH271521   6.325   3.830   0.583 -0.7089  0.2131  0.0489
16677TIP3    H171522   6.262   3.886   0.536  0.1601  0.8472 -0.3646
16677TIP3    H271523   6.356   3.884   0.655 -0.0680  0.1799 -0.1954
16678TIP3   OH271524   6.082   6.551  15.567 -0.2937 -0.0264  0.1184
16678TIP3    H171525   6.012   6.489  15.547 -0.6684  0.4370 -0.0411
16678TIP3    H271526   6.040   6.616  15.623 -0.3830  1.0427 -1.1425
16679TIP3   OH271527   1.057   6.366   2.581  0.1758  0.0625 -0.4076
16679TIP3    H171528   1.068   6.302   2.651  2.3758 -1.2600 -1.8808
16679TIP3    H271529   0.987   6.331   2.527 -1.5899  1.1312  1.1325
16680TIP3   OH271530   4.328   2.186  16.658  0.0911 -0.0705 -0.6973
16680TIP3    H171531   4.238   2.155  16.650  0.2968 -0.0938 -3.0389
16680TIP3    H271532   4.382   2.107  16.653  0.3161  0.0890 -0.8433
16681TIP3   OH271533   0.560   1.412   0.490 -0.1333  0.9535  0.7267
16681TIP3    H171534   0.469   1.392   0.468 -0.4774  1.1685  1.9287
16681TIP3    H271535   0.566   1.507   0.486 -0.3341  1.0255  2.0771
16682TIP3   OH271536   3.745   0.230   4.930 -0.5340  0.3841  0.6202
16682TIP3    H171537   3.655   0.228   4.898 -0.8571 -0.0686  1.5600
16682TIP3    H271538   3.746   0.296   4.999 -0.4680 -0.5919  1.5608
16683TIP3   OH271539   5.410   4.124   4.948  0.2134  0.3454  0.3787
16683TIP3    H171540   5.372   4.084   5.026  4.0299 -0.1759  2.0528
16683TIP3    H271541   5.368   4.077   4.875 -1.0217 -1.3958  2.1485
16684TIP3   OH271542   1.830   6.692   1.413  0.3014 -0.5007  0.2093
16684TIP3    H171543   1.784   6.766   1.452  0.4371  0.7541 -1.9431
16684TIP3    H271544   1.921   6.704   1.440  0.0301 -0.8747  1.3182
16685TIP3   OH271545   4.294   6.114  14.392 -0.5415  0.5612 -1.0690
16685TIP3    H171546   4.205   6.096  14.424  0.0042 -0.4231 -0.0614
16685TIP3    H271547   4.340   6.031  14.400  0.5742  1.1461 -1.2514
16686TIP3   OH271548   0.798   2.524   2.705  0.1305  0.5149  0.3945
16686TIP3    H171549   0.790   2.509   2.799 -0.0830 -0.3721  0.2390
16686TIP3    H271550   0.869   2.587   2.697  1.7717 -1.2043  1.0097
16687TIP3   OH271551   6.343   0.874   5.706 -0.1871  0.2432  0.2179
16687TIP3    H171552   6.298   0.793   5.682  2.1694 -0.6433 -1.3634
16687TIP3    H271553   6.420   0.846   5.755  0.7988  1.4958 -0.5847
16688TIP3   OH271554   1.405   2.230  13.886  0.4866  0.3471  0.0995
16688TIP3    H171555   1.477   2.281  13.849 -1.0216  1.2842 -1.6587
16688TIP3    H271556   1.328   2.259  13.837 -0.6676 -2.5630  0.0838
16689TIP3   OH271557   3.743   1.483   0.479  0.5385  0.2610  0.1933
16689TIP3    H171558   3.704   1.414   0.424  1.3734  1.0464 -1.4059
16689TIP3    H271559   3.761   1.439   0.562 -0.1966 -1.1047 -0.3410
16690TIP3   OH271560   6.052   0.586  13.696  0.5777  0.1261  0.4619
16690TIP3    H171561   5.970   0.607  13.743  2.0474  0.4534  2.9831
16690TIP3    H271562   6.121   0.603  13.760  2.5950 -0.9635 -1.3617
16691TIP3   OH271563   2.159   0.696  10.817 -0.1965  0.1430 -0.0476
16691TIP3    H171564   2.177   0.654  10.901 -0.1896  1.9714  0.8847
16691TIP3    H271565   2.105   0.633  10.770 -0.0698 -0.9718  1.2585
16692TIP3   OH271566   6.729   3.511   1.765  0.1494 -0.4648 -0.0470
16692TIP3    H171567   6.803   3.452   1.776 -0.2570 -0.7374  1.3917
16692TIP3    H271568   6.664   3.459   1.718  0.7711 -0.3057 -1.0913
16693TIP3   OH271569   1.862   0.368   2.777  0.1042  0.1023 -0.1481
16693TIP3    H171570   1.936   0.378   2.837 -1.6838  2.6070  1.7854
16693TIP3    H271571   1.785   0.385   2.831 -1.6484  1.4000 -2.9029
16694TIP3   OH271572   6.273   0.657  11.364 -0.5049 -0.6618 -0.5144
16694TIP3    H171573   6.279   0.714  11.287 -1.2756  1.2831  0.8122
16694TIP3    H271574   6.335   0.586  11.346  0.5660  0.6476 -2.1863
16695TIP3   OH271575   4.718   6.691   2.991 -0.1688  0.8149 -0.1434
16695TIP3    H171576   4.666   6.744   2.930 -1.0218  0.4251  0.2461
16695TIP3    H271577   4.668   6.611   3.002  0.7796  0.2123 -0.1719
16696TIP3   OH271578   2.751   3.318   3.512 -0.1093  0.7783  0.2017
16696TIP3    H171579   2.666   3.292   3.477 -0.0230 -0.3493  0.8264
16696TIP3    H271580   2.742   3.412   3.528 -1.4787  0.5286  0.9540
16697TIP3   OH271581   2.974   3.816   3.945 -0.1805 -0.3218  0.9487
16697TIP3    H171582   3.031   3.774   4.010  0.5444 -1.4442 -0.3778
16697TIP3    H271583   2.912   3.747   3.919 -1.2428  0.4751  1.3373
16698TIP3   OH271584   3.748   0.070   4.072  0.6019  0.0880  0.5019
16698TIP3    H171585   3.711   0.128   4.137 -0.7476 -1.0100  0.7386
16698TIP3    H271586   3.829   0.037   4.112  0.1087 -0.0920  1.3544
16699TIP3   OH271587   6.302   0.149  12.371 -0.1201  0.6682 -0.1792
16699TIP3    H171588   6.216   0.122  12.401  0.6454 -0.8943  0.6411
16699TIP3    H271589   6.290   0.241  12.345 -1.9222  0.5888  0.2861
16700TIP3   OH271590   1.615   4.690   4.985  0.2883  0.0851 -0.1238
16700TIP3    H171591   1.625   4.697   4.890  1.5902  0.1370  0.0034
16700TIP3    H271592   1.602   4.780   5.015 -0.7756 -0.0035 -0.3180
16701TIP3   OH271593   1.277   6.604   2.106  0.1522  0.0564 -0.1956
16701TIP3    H171594   1.309   6.599   2.016 -1.2664 -0.9220 -0.6521
16701TIP3    H271595   1.221   6.681   2.108  0.2374  0.1177 -0.1139
16702TIP3   OH271596   2.370   5.517   2.110 -0.5120  0.3037  0.0595
16702TIP3    H171597   2.285   5.510   2.066 -0.8248 -2.3937  1.0291
16702TIP3    H271598   2.349   5.549   2.198 -0.3821  0.8771 -0.1148
16703TIP3   OH271599   4.991   2.887   2.082 -0.0660 -0.0102  0.0817
16703TIP3    H171600   5.018   2.866   1.992  0.5324  1.5655 -0.1166
16703TIP3    H271601   5.068   2.929   2.121 -1.4129  2.3036  0.2886
16704TIP3   OH271602   1.402   3.615   6.781  0.6768  0.0448 -0.0746
16704TIP3    H171603   1.405   3.701   6.738  0.1701 -0.3403 -0.8897
16704TIP3    H271604   1.408   3.552   6.709 -3.5526 -0.6502  0.0712
16705TIP3   OH271605   4.727   2.764   6.354  0.0564 -0.0299 -0.3263
16705TIP3    H171606   4.711   2.812   6.272 -1.0790  4.1490  2.1862
16705TIP3    H271607   4.640   2.750   6.391  0.6814 -0.2063  1.0911
16706TIP3   OH271608   3.604   1.615  10.943  0.3596  0.5441  0.0362
16706TIP3    H171609   3.592   1.548  11.010 -0.3982  0.6035 -0.0386
16706TIP3    H271610   3.521   1.662  10.941 -0.5256 -1.0255 -2.6466
16707TIP3   OH271611   6.196   0.020   2.952 -0.4776  1.0751  0.2290
16707TIP3    H171612   6.229  -0.063   2.917  1.5704  1.8441  0.2766
16707TIP3    H271613   6.111   0.032   2.909 -0.9633 -1.1912  0.4744
16708TIP3   OH271614   1.566   0.570  13.169  0.6133  0.0702 -0.0936
16708TIP3    H171615   1.539   0.483  13.143  1.6774 -0.6668  1.1664
16708TIP3    H271616   1.613   0.557  13.252  1.2202  1.7642 -0.1381
16709TIP3   OH271617   5.245   2.202   0.119 -0.3206  1.0387  0.4568
16709TIP3    H171618   5.295   2.284   0.119 -1.1966  1.5882 -0.6293
16709TIP3    H271619   5.242   2.176   0.211  4.4913 -0.6023  0.3130
16710TIP3   OH271620   6.693   5.495   1.629 -0.5254  0.5167  0.1500
16710TIP3    H171621   6.743   5.438   1.572 -1.6171 -0.8538  0.5329
16710TIP3    H271622   6.743   5.499   1.710 -0.4162  0.1833  0.0959
16711TIP3   OH271623   3.942   4.051  16.038  0.1009  0.6351 -0.1522
16711TIP3    H171624   3.954   4.093  15.953 -0.4905 -0.0491 -0.5799
16711TIP3    H271625   3.849   4.066  16.059 -0.2366 -0.8844 -0.5446
16712TIP3   OH271626   6.060   0.046  16.983 -0.5392 -0.1964 -0.1945
16712TIP3    H171627   6.043   0.037  17.077 -0.1148  1.8836  0.0944
16712TIP3    H271628   6.090   0.136  16.972  1.8592 -1.1493 -1.9571
16713TIP3   OH271629   1.146   6.457  15.842 -0.2097  0.1264  0.0255
16713TIP3    H171630   1.227   6.433  15.887 -0.7518 -1.8891 -0.0108
16713TIP3    H271631   1.108   6.527  15.895  1.2212  0.6093  0.4091
16714TIP3   OH271632   3.838   4.443  14.352 -0.0328 -0.4181 -0.0362
16714TIP3    H171633   3.750   4.466  14.381  0.3803  0.3135  0.6435
16714TIP3    H271634   3.895   4.464  14.426  1.0428  1.5779 -1.3785
16715TIP3   OH271635   3.924   6.259  12.660 -0.2203 -0.5502 -0.2117
16715TIP3    H171636   3.975   6.197  12.607 -2.1905 -1.1816 -1.4057
16715TIP3    H271637   3.914   6.216  12.744  0.1342 -0.9649 -0.3810
16716TIP3   OH271638   5.694   4.445  12.230  0.4750 -0.4314 -0.1321
16716TIP3    H171639   5.748   4.517  12.264  0.5897 -0.3110 -0.5633
16716TIP3    H271640   5.607   4.482  12.221  0.4899 -0.4060 -0.1663
16717TIP3   OH271641   0.493   2.347   4.485 -0.2740  0.3005  0.5184
16717TIP3    H171642   0.436   2.308   4.551 -2.0606  1.1126 -0.4855
16717TIP3    H271643   0.575   2.299   4.491 -2.2273 -3.3351 -0.3728
16718TIP3   OH271644   3.290   4.285   4.772  0.8634  0.1607  0.9763
16718TIP3    H171645   3.351   4.290   4.845  1.1056 -1.2422  0.8870
16718TIP3    H271646   3.344   4.261   4.697  0.4413  0.4995  0.5541
16719TIP3   OH271647   5.083   6.678   3.218 -0.1472 -0.0738 -0.1783
16719TIP3    H171648   5.034   6.607   3.259  0.9921 -1.5869 -1.3615
16719TIP3    H271649   5.016   6.730   3.173 -0.9064 -0.8757  0.0095
16720TIP3   OH271650   2.692   2.716   2.067 -0.4247 -0.0011  0.0976
16720TIP3    H171651   2.601   2.742   2.054 -0.0374  1.3854  0.1454
16720TIP3    H271652   2.736   2.794   2.101  0.8076 -0.6223 -0.0193
16721TIP3   OH271653   6.133   5.956  11.661 -0.7244 -0.1740 -0.0940
16721TIP3    H171654   6.215   6.005  11.662 -1.6481  1.5559 -2.8339
16721TIP3    H271655   6.069   6.017  11.698 -1.0613 -0.9216  0.5496
16722TIP3   OH271656   4.874   3.771  16.883 -0.1712 -0.6123 -0.1116
16722TIP3    H171657   4.847   3.818  16.962 -0.9477 -0.2247 -0.6072
16722TIP3    H271658   4.967   3.791  16.873 -0.1908 -0.2585  0.4198
16723TIP3   OH271659   5.419   1.097  14.553  0.2614 -0.1713  0.0159
16723TIP3    H171660   5.472   1.029  14.594 -0.0557 -1.6202 -1.8982
16723TIP3    H271661   5.341   1.051  14.522 -0.7013  1.3689  0.0942
16724TIP3   OH271662   1.356   3.470   1.869  0.3627 -0.2276  0.0561
16724TIP3    H171663   1.396   3.488   1.784 -0.0303  1.1694  0.1546
16724TIP3    H271664   1.262   3.470   1.852  0.2173  1.4717  0.7285
16725TIP3   OH271665   4.137   3.885   5.582  0.3492 -0.1878 -0.5236
16725TIP3    H171666   4.097   3.856   5.501  0.0903  1.1130 -0.8753
16725TIP3    H271667   4.229   3.899   5.560 -0.2989  3.1290 -1.4324
16726TIP3   OH271668   4.748   0.098   3.281 -0.1262 -0.0872  0.6734
16726TIP3    H171669   4.800   0.136   3.352 -0.5714  0.9516  0.4550
16726TIP3    H271670   4.812   0.071   3.216  0.0979  3.2566 -0.6292
16727TIP3   OH271671   3.333   1.486  12.811  0.1055  0.2506 -0.4223
16727TIP3    H171672   3.400   1.497  12.744  0.1497 -0.5577 -0.5133
16727TIP3    H271673   3.381   1.461  12.890  0.0307  0.9541 -0.1455
16728TIP3   OH271674   0.049   6.820   4.781  1.0994 -0.2052 -0.2362
16728TIP3    H171675   0.108   6.895   4.789  2.0900 -0.8097 -1.7465
16728TIP3    H271676  -0.022   6.851   4.725  0.0785  0.4362  1.3614
16729TIP3   OH271677   0.512   1.667   5.797  0.0997 -0.4324 -0.1343
16729TIP3    H171678   0.431   1.670   5.747  0.8448  2.3142 -1.2514
16729TIP3    H271679   0.485   1.684   5.888 -0.5659  0.5737 -0.5176
16730TIP3   OH271680   0.058   1.252  15.327  0.3160 -0.4615 -0.6906
16730TIP3    H171681   0.021   1.249  15.415 -2.2433 -1.6459 -1.7821
16730TIP3    H271682   0.128   1.187  15.328 -0.4364 -1.2518  0.1367
16731TIP3   OH271683   2.081   6.091   1.275 -0.5440  0.1252  0.0761
16731TIP3    H171684   2.169   6.067   1.245  0.0754  1.2161  0.9809
16731TIP3    H271685   2.037   6.007   1.288  1.0741 -0.5164  1.6723
16732TIP3   OH271686   4.878   5.664  12.033 -0.0641 -0.1330  0.0289
16732TIP3    H171687   4.829   5.702  12.106 -0.3474  1.3384 -0.9304
16732TIP3    H271688   4.873   5.729  11.964  1.3550 -0.9457 -0.8516
16733TIP3   OH271689   5.095   4.078   4.141  0.0826 -0.2417 -0.0872
16733TIP3    H171690   5.186   4.052   4.147  1.0523  2.5552 -1.6899
16733TIP3    H271691   5.078   4.126   4.222  0.5235  0.6365 -0.5126
16734TIP3   OH271692   2.506   5.510  11.120 -0.0454 -0.2141  0.6300
16734TIP3    H171693   2.468   5.437  11.170 -0.0012 -0.3348  0.4880
16734TIP3    H271694   2.569   5.550  11.181 -0.1295 -0.2443  0.7382
16735TIP3   OH271695   0.248   3.084  12.031  0.5585  0.3015 -0.1284
16735TIP3    H171696   0.317   3.017  12.024  0.0272 -0.1257 -1.6516
16735TIP3    H271697   0.248   3.110  12.123  2.9104  0.4696 -0.1517
16736TIP3   OH271698   5.989   3.175  12.548  0.2589 -0.5470  0.1237
16736TIP3    H171699   5.987   3.140  12.459  0.4871  1.7572 -0.8438
16736TIP3    H271700   6.082   3.194  12.564 -0.0933  1.8175 -0.3514
16737TIP3   OH271701   1.290   4.782  16.384  0.5543  0.0583  0.2718
16737TIP3    H171702   1.242   4.862  16.404  1.9908  0.3883  2.6480
16737TIP3    H271703   1.225   4.723  16.346 -0.9877  1.5953  0.4682
16738TIP3   OH271704   4.341   2.029  16.339  0.2758  0.6523 -0.0018
16738TIP3    H171705   4.340   2.021  16.244  1.8697  0.9294 -0.0517
16738TIP3    H271706   4.258   2.072  16.361  0.2461  1.2640 -1.3139
16739TIP3   OH271707   5.536   6.177  10.619 -0.0699 -0.9219  0.1639
16739TIP3    H171708   5.528   6.196  10.526 -2.3972 -4.3659 -0.4545
16739TIP3    H271709   5.602   6.109  10.625 -0.4786 -1.2653  0.9316
16740TIP3   OH271710   1.914   4.571   4.723  0.2972 -0.2775  0.0690
16740TIP3    H171711   1.934   4.485   4.685  0.9050  0.1960 -0.6844
16740TIP3    H271712   1.997   4.601   4.759  0.6279  1.0405 -1.7572
16741TIP3   OH271713   1.140   3.047  17.276 -0.1636 -0.1219  0.0541
16741TIP3    H171714   1.219   3.077  17.319  0.0678 -1.6231  0.7079
16741TIP3    H271715   1.164   3.038  17.184  0.4223 -0.5329  0.2444
16742TIP3   OH271716   5.748   1.713  16.740 -0.2467 -0.5429 -0.0186
16742TIP3    H171717   5.827   1.664  16.762 -0.2504 -0.2003  0.7581
16742TIP3    H271718   5.780   1.792  16.696 -0.1815 -0.6486 -0.1592
16743TIP3   OH271719   6.258   2.668   4.666 -0.0390 -0.3493  0.0343
16743TIP3    H171720   6.318   2.593   4.674 -1.9741 -2.0752 -1.1093
16743TIP3    H271721   6.243   2.696   4.756  1.7051 -0.5164  0.3981
16744TIP3   OH271722   5.435   2.963   3.547 -0.1135  0.6213  0.4492
16744TIP3    H171723   5.449   3.041   3.493 -0.0467 -0.3164 -0.9115
16744TIP3    H271724   5.517   2.914   3.541 -0.6593 -0.2629  0.1226
16745TIP3   OH271725   3.852   6.435   4.510  0.6772 -0.2426 -0.5267
16745TIP3    H171726   3.781   6.496   4.489  1.6424  0.6741 -1.1675
16745TIP3    H271727   3.818   6.384   4.584  1.0103  3.1630  2.1093
16746TIP3   OH271728   4.867   6.536  11.803 -0.2212 -0.0749 -0.2837
16746TIP3    H171729   4.815   6.530  11.882  0.9384  0.4903  0.5438
16746TIP3    H271730   4.958   6.530  11.834  0.2385  0.1284 -1.5636
16747TIP3   OH271731   2.256   6.716   3.587 -0.0867  0.1211 -0.1469
16747TIP3    H171732   2.238   6.801   3.546  0.0293  0.0603 -0.3238
16747TIP3    H271733   2.185   6.704   3.650  0.0937  0.5172  0.1369
16748TIP3   OH271734   3.696   5.882  15.398  0.1980 -0.0065  0.1031
16748TIP3    H171735   3.638   5.867  15.473 -0.1160  1.5548  0.1936
16748TIP3    H271736   3.644   5.854  15.322  0.3883 -1.2554  0.4177
16749TIP3   OH271737   1.456   0.534   2.803 -0.6437  0.0939  0.0177
16749TIP3    H171738   1.424   0.503   2.718 -0.2195 -0.2154 -0.0287
16749TIP3    H271739   1.384   0.588   2.837 -0.8450  0.1608 -0.5045
16750TIP3   OH271740   5.577   4.913   5.124  0.2954 -0.5213 -0.1376
16750TIP3    H171741   5.583   4.837   5.182 -0.0486 -0.6738 -0.2994
16750TIP3    H271742   5.586   4.876   5.036 -0.9058 -0.5009 -0.2691
16751TIP3   OH271743   1.813   1.540   1.862  0.2092 -0.1322  0.2721
16751TIP3    H171744   1.744   1.528   1.797  1.1657  0.1840 -0.8276
16751TIP3    H271745   1.895   1.529   1.812  0.9715  1.6122  1.1052
16752TIP3   OH271746   0.971   3.134  13.457  0.2654 -0.4404  0.3725
16752TIP3    H171747   0.876   3.124  13.450  0.1496  1.3421 -1.1435
16752TIP3    H271748   0.983   3.225  13.485  1.5166 -0.7775  0.9531
16753TIP3   OH271749   3.075   5.715   0.682 -0.3749 -0.0230  0.1068
16753TIP3    H171750   3.060   5.621   0.685  2.2255 -0.4550  0.2200
16753TIP3    H271751   3.030   5.748   0.760  0.8204 -1.4930  1.4462
16754TIP3   OH271752   6.309   5.155  15.816  0.1920  0.0219  0.0728
16754TIP3    H171753   6.226   5.110  15.802 -0.6562  1.5706  0.0248
16754TIP3    H271754   6.324   5.147  15.910 -0.4057  0.3794  0.2063
16755TIP3   OH271755   5.701   2.813  15.610 -0.1031 -0.3507  0.7704
16755TIP3    H171756   5.698   2.880  15.542  1.0419 -1.2159 -0.1572
16755TIP3    H271757   5.658   2.853  15.685 -0.8474  0.8382 -0.2676
16756TIP3   OH271758   5.183   5.272   5.890 -0.1139 -0.3405  0.0253
16756TIP3    H171759   5.162   5.178   5.890  0.3551 -0.4470 -0.0143
16756TIP3    H271760   5.221   5.288   5.976 -0.0482 -0.2219 -0.0260
16757TIP3   OH271761   3.931   1.506  10.854 -0.5318 -0.7977 -0.3193
16757TIP3    H171762   3.962   1.439  10.916 -1.8394 -0.5303  0.6358
16757TIP3    H271763   4.011   1.535  10.809  0.3933 -1.2415  0.9984
16758TIP3   OH271764   6.270   4.101   4.099 -0.2269 -0.1665 -0.2560
16758TIP3    H171765   6.358   4.098   4.137 -1.1626  0.7004  1.9999
16758TIP3    H271766   6.250   4.010   4.077  1.5155 -0.2797 -1.4709
16759TIP3   OH271767   2.292   2.989   4.051 -0.6480 -0.3352  0.2163
16759TIP3    H171768   2.378   2.966   4.015 -1.7743  0.4552 -3.1704
16759TIP3    H271769   2.246   2.906   4.058 -0.3146 -0.5402  0.0049
16760TIP3   OH271770   5.517   1.551   1.321  0.2382 -0.6627 -0.6176
16760TIP3    H171771   5.470   1.471   1.300 -0.5463  0.1666 -2.0663
16760TIP3    H271772   5.593   1.552   1.262  1.3192 -1.2815  0.7235
16761TIP3   OH271773   1.192   4.458  12.287 -0.5261 -0.3532  0.9741
16761TIP3    H171774   1.198   4.392  12.357 -2.2201 -2.1514 -0.5179
16761TIP3    H271775   1.156   4.535  12.331 -1.0297 -1.2723  2.2222
16762TIP3   OH271776   3.514   2.345   4.831 -0.5876 -0.3542 -0.5978
16762TIP3    H171777   3.457   2.274   4.800 -1.4695  0.0641  0.0494
16762TIP3    H271778   3.601   2.306   4.834 -1.1872 -1.6511  0.4990
16763TIP3   OH271779   2.593   4.104  12.052  0.0543 -0.3403  0.6072
16763TIP3    H171780   2.590   4.117  11.957  2.3525 -0.8606  0.4329
16763TIP3    H271781   2.549   4.020  12.066 -1.4084  0.3275  0.1553
16764TIP3   OH271782   3.093   0.123  14.044  0.1982 -0.0301 -0.9802
16764TIP3    H171783   3.129   0.072  13.971 -1.2411 -1.7120 -0.5745
16764TIP3    H271784   3.010   0.078  14.064  1.0211 -0.1665  2.2909
16765TIP3   OH271785   6.335   6.195   3.432  0.6682 -0.3314  0.5690
16765TIP3    H171786   6.401   6.127   3.446  0.6619 -0.2846  0.8240
16765TIP3    H271787   6.375   6.275   3.465 -0.1617 -0.6081  2.3005
16766TIP3   OH271788   4.750   1.836  14.253  0.1069 -0.0675  0.3243
16766TIP3    H171789   4.810   1.894  14.207 -1.2422  0.7415 -0.4742
16766TIP3    H271790   4.740   1.874  14.340  0.8345 -0.2696  0.4931
16767TIP3   OH271791   5.611   1.180  14.335 -0.3135 -0.4111  0.5450
16767TIP3    H171792   5.568   1.149  14.415  2.4685 -3.1317  1.0845
16767TIP3    H271793   5.650   1.101  14.297  0.5827  1.2636 -2.1493
16768TIP3   OH271794   2.426   1.286  14.058 -0.4038  0.1287  0.2004
16768TIP3    H171795   2.472   1.368  14.045  2.4448 -1.2100  1.4206
16768TIP3    H271796   2.439   1.237  13.977  1.9545 -0.9623  1.1818
16769TIP3   OH271797   5.110   4.902  13.965 -0.2021 -0.3533  0.5304
16769TIP3    H171798   5.145   4.991  13.974 -2.1088  0.7253 -2.3637
16769TIP3    H271799   5.044   4.895  14.034 -1.4767  1.2253 -0.5013
16770TIP3   OH271800   1.481   3.566   6.233 -0.2154 -0.1461 -0.2394
16770TIP3    H171801   1.572   3.545   6.253 -0.0419 -1.0135 -1.8767
16770TIP3    H271802   1.477   3.661   6.235  1.2506 -0.0140 -2.3706
16771TIP3   OH271803   4.964   0.623   0.114 -0.0031  0.2327 -0.1257
16771TIP3    H171804   4.900   0.637   0.184  1.1173  1.2075  0.7309
16771TIP3    H271805   5.049   0.625   0.159  0.6304 -1.0290 -1.2477
16772TIP3   OH271806   5.628   1.501  15.007 -0.4644  0.2114 -0.4311
16772TIP3    H171807   5.591   1.529  14.923 -2.6095  0.4984  0.5599
16772TIP3    H271808   5.614   1.406  15.008 -1.6931  0.3871  0.1624
16773TIP3   OH271809   4.662   5.750  13.926  0.3997  0.2063 -0.1179
16773TIP3    H171810   4.657   5.810  14.001  2.7885  0.2521  0.0586
16773TIP3    H271811   4.591   5.778  13.868  0.6464  2.3965  0.5707
16774TIP3   OH271812   2.992   0.957   2.503  0.0368 -0.2105 -0.0925
16774TIP3    H171813   3.025   0.899   2.572 -0.2396  0.3191  0.4880
16774TIP3    H271814   3.033   0.925   2.423  1.4981  0.0730  0.5272
16775TIP3   OH271815   0.147   5.410   5.269  0.2970  0.1089 -0.0710
16775TIP3    H171816   0.177   5.365   5.190 -0.0461 -1.1082  0.4655
16775TIP3    H271817   0.166   5.347   5.340  3.1198  2.2434  1.1897
16776TIP3   OH271818   2.190   3.420   0.094  0.1435  0.2004 -0.5842
16776TIP3    H171819   2.249   3.409   0.019  1.8788 -0.7946  0.8697
16776TIP3    H271820   2.119   3.358   0.078 -0.1723  0.8971 -2.0063
16777TIP3   OH271821   2.220   3.404   5.894  0.2449 -0.6109 -0.1124
16777TIP3    H171822   2.223   3.500   5.899  0.2887 -0.7130  2.0907
16777TIP3    H271823   2.131   3.384   5.866  0.6268  0.1037 -1.9116
16778TIP3   OH271824   3.671   1.496   2.370  0.2247  0.2596 -0.1553
16778TIP3    H171825   3.673   1.459   2.281 -0.4725  0.0220 -0.0753
16778TIP3    H271826   3.625   1.580   2.360 -2.6033 -1.1345  0.4566
16779TIP3   OH271827   4.700   5.463   1.882 -0.3203  0.4064 -0.2170
16779TIP3    H171828   4.710   5.401   1.810 -0.0228  0.4536 -0.2135
16779TIP3    H271829   4.659   5.540   1.842  3.1088  1.8718 -1.0876
16780TIP3   OH271830   6.382   1.168  11.617  0.0177 -0.0655 -0.0151
16780TIP3    H171831   6.430   1.238  11.572 -0.4689  0.5270  0.3814
16780TIP3    H271832   6.398   1.090  11.563 -0.4198  0.5994 -1.1391
16781TIP3   OH271833   6.262   1.099  15.282 -0.4925 -0.4565  0.0807
16781TIP3    H171834   6.247   1.111  15.188 -0.1740 -0.1633  0.0638
16781TIP3    H271835   6.260   1.188  15.318  0.2230 -0.4910  0.2155
16782TIP3   OH271836   0.086   0.690   5.360  0.1700  0.2886 -0.4223
16782TIP3    H171837   0.067   0.733   5.276  1.0847 -0.3970 -0.9977
16782TIP3    H271838   0.155   0.744   5.399 -0.2171  0.5763 -0.1368
16783TIP3   OH271839   4.867   3.755   4.225 -0.2852 -0.1484  0.2913
16783TIP3    H171840   4.868   3.805   4.307 -1.3133 -1.8927  1.4173
16783TIP3    H271841   4.960   3.742   4.204  0.0323 -1.2170  2.1959
16784TIP3   OH271842   4.026   2.775   5.536 -0.2615  0.1291 -0.6119
16784TIP3    H171843   3.970   2.756   5.611 -1.4976  1.7821 -1.0751
16784TIP3    H271844   4.111   2.737   5.559 -0.4368  1.1853  1.9280
16785TIP3   OH271845   2.594   2.173  16.003  0.2101  0.4494  0.2514
16785TIP3    H171846   2.543   2.236  15.952 -2.0261 -1.0974  0.4747
16785TIP3    H271847   2.556   2.088  15.980  1.4120 -0.5826  1.9532
16786TIP3   OH271848   1.606   4.779   1.857 -0.1722  0.0164 -0.8135
16786TIP3    H171849   1.548   4.717   1.812  0.7614 -1.3871 -0.0926
16786TIP3    H271850   1.593   4.761   1.950  0.9929  0.0935 -0.6342
16787TIP3   OH271851   2.796   0.103   3.459  0.6824  0.0407 -0.2734
16787TIP3    H171852   2.736   0.053   3.404  1.4688 -1.2282 -0.0134
16787TIP3    H271853   2.742   0.135   3.531 -0.1736  0.9722 -1.3120
16788TIP3   OH271854   6.272   3.627   1.190 -0.9505  0.4114  0.4557
16788TIP3    H171855   6.280   3.607   1.283  0.7130 -3.0426 -0.3237
16788TIP3    H271856   6.195   3.578   1.161  0.2163 -0.9432 -0.4952
16789TIP3   OH271857   2.733   0.354  16.993 -0.0438 -0.2967 -0.4947
16789TIP3    H171858   2.742   0.286  17.060  3.0010  0.9549  0.4642
16789TIP3    H271859   2.822   0.371  16.964 -0.9975  1.6012 -2.4292
16790TIP3   OH271860   6.347   0.688   2.583  0.4462  0.0576  0.2163
16790TIP3    H171861   6.344   0.634   2.504  1.0375 -0.0697  0.2821
16790TIP3    H271862   6.368   0.628   2.653  0.3293  0.2418  0.4094
16791TIP3   OH271863   0.139   0.130  13.552 -0.4659 -0.7126 -0.3546
16791TIP3    H171864   0.228   0.147  13.521 -0.7684  0.2767 -0.7105
16791TIP3    H271865   0.147   0.055  13.610  0.9739  0.7602  1.4096
16792TIP3   OH271866   2.488   4.627  11.451  0.1603  0.6051 -0.4827
16792TIP3    H171867   2.487   4.642  11.357 -0.8510  1.2202 -0.3798
16792TIP3    H271868   2.405   4.582  11.469  0.1814  0.8167  0.1605
16793TIP3   OH271869   0.582   4.385  14.065 -0.6107  0.4308  0.2269
16793TIP3    H171870   0.671   4.393  14.031 -0.1315 -1.5518  0.9524
16793TIP3    H271871   0.532   4.347  13.993 -0.1311 -1.4976  0.8866
16794TIP3   OH271872   5.334   4.916   5.316  0.0762 -0.1305 -0.1340
16794TIP3    H171873   5.323   4.943   5.407  0.8551  1.7137 -0.5603
16794TIP3    H271874   5.422   4.877   5.314 -1.0885 -2.8867  0.5035
16795TIP3   OH271875   6.187   0.753  16.280  0.1004 -0.8387  0.3378
16795TIP3    H171876   6.186   0.737  16.186 -0.2724  2.1135 -0.2222
16795TIP3    H271877   6.114   0.701  16.314  1.2215 -3.1762 -0.7453
16796TIP3   OH271878   3.195   1.959   5.240 -0.3491 -0.2669 -0.4184
16796TIP3    H171879   3.194   2.022   5.312 -1.3899  1.4589 -1.9382
16796TIP3    H271880   3.286   1.929   5.237 -0.2984 -0.3826  1.6236
16797TIP3   OH271881   2.326   3.045  14.687 -0.4198  0.1008  0.1795
16797TIP3    H171882   2.414   3.007  14.684 -0.8497 -0.9630  0.9885
16797TIP3    H271883   2.277   2.997  14.621 -0.5517  0.2793  0.1480
16798TIP3   OH271884   2.237   3.799  16.931 -0.5019  0.2315  0.0304
16798TIP3    H171885   2.220   3.768  17.019  0.5272 -0.9766 -0.1701
16798TIP3    H271886   2.316   3.852  16.939 -0.1015 -0.3150 -0.2377
16799TIP3   OH271887   4.541   0.411  13.082  0.0803  0.0568 -0.1610
16799TIP3    H171888   4.599   0.341  13.051 -0.8254 -0.5321 -0.5654
16799TIP3    H271889   4.480   0.367  13.141 -0.6143  0.4645 -0.5641
16800TIP3   OH271890   1.820   4.426   5.926 -0.0490  0.1708  0.4912
16800TIP3    H171891   1.849   4.471   6.005 -0.9598  0.8422  0.4571
16800TIP3    H271892   1.898   4.418   5.872  0.6394 -0.5476  1.5791
16801TIP3   OH271893   4.397   0.013   1.049 -0.4669 -0.1077 -0.3995
16801TIP3    H171894   4.481   0.035   1.009 -0.3678  0.8053  0.2947
16801TIP3    H271895   4.396  -0.082   1.051  1.7499 -0.1572  2.0113
16802TIP3   OH271896   2.987   0.670  12.923  0.4349  0.0125  0.0965
16802TIP3    H171897   3.028   0.757  12.929 -0.7812  0.6137 -0.0862
16802TIP3    H271898   2.994   0.634  13.011  1.9496 -0.1781 -0.0906
16803TIP3   OH271899   5.324   4.471  16.066 -0.4889 -0.3043  0.0250
16803TIP3    H171900   5.247   4.489  16.011  0.8950  1.6441 -1.3504
16803TIP3    H271901   5.368   4.398  16.023 -0.8608 -0.5676  0.0842
16804TIP3   OH271902   2.861   2.296   0.582 -0.4945  0.9019  0.6139
16804TIP3    H171903   2.937   2.304   0.524 -1.1934 -3.2013 -1.0224
16804TIP3    H271904   2.899   2.293   0.670  1.0626  1.1313 -0.0285
16805TIP3   OH271905   2.351   0.311  11.157 -0.3013  0.5333 -0.1045
16805TIP3    H171906   2.281   0.258  11.120  1.0219 -2.1416  1.0337
16805TIP3    H271907   2.391   0.355  11.082 -0.4409 -1.3475 -1.2985
16806TIP3   OH271908   1.717   0.415   2.001 -0.7608 -0.6044 -0.3187
16806TIP3    H171909   1.627   0.383   1.994 -0.8296 -0.2073 -1.3105
16806TIP3    H271910   1.768   0.336   2.020 -1.2646 -0.8922 -0.1218
16807TIP3   OH271911   6.730   0.361   4.039 -0.0226  0.1328 -0.0177
16807TIP3    H171912   6.786   0.326   4.109  0.1371  1.1662  0.3828
16807TIP3    H271913   6.791   0.399   3.976 -0.1668 -0.8106 -0.7446
16808TIP3   OH271914   2.517   2.886  14.306  0.1671  0.3688  0.4632
16808TIP3    H171915   2.436   2.845  14.336 -0.9371  0.4233 -2.2909
16808TIP3    H271916   2.491   2.976  14.285  0.8738  0.2887 -0.7570
16809TIP3   OH271917   2.437   6.461  14.893 -0.6567  0.1717 -0.3209
16809TIP3    H171918   2.444   6.484  14.986  1.6271  1.7071 -0.8113
16809TIP3    H271919   2.527   6.437  14.868 -0.8011  1.9001 -2.6404
16810TIP3   OH271920   0.362   2.175  15.467 -0.0710 -0.1890  0.2427
16810TIP3    H171921   0.379   2.262  15.432 -0.6309  0.5887  1.8858
16810TIP3    H271922   0.371   2.117  15.391 -1.9886  1.5367 -1.3801
16811TIP3   OH271923   3.847   1.622   1.047  0.1135  0.0024 -0.2659
16811TIP3    H171924   3.913   1.596   0.983  0.1866 -0.6763  0.0792
16811TIP3    H271925   3.829   1.542   1.097 -0.9386  0.1892 -0.3283
16812TIP3   OH271926   6.274   0.909  11.455 -0.5774  0.6739 -0.2325
16812TIP3    H171927   6.252   0.821  11.424  0.3237  0.2689  0.2569
16812TIP3    H271928   6.228   0.968  11.395 -1.8606 -0.1370 -0.0599
16813TIP3   OH271929   4.026   2.808  17.014  0.1753 -0.1245  0.3266
16813TIP3    H171930   4.111   2.851  17.004  0.1485 -0.0734  0.3213
16813TIP3    H271931   4.047   2.715  17.023  0.1570 -0.2599 -0.9447
16814TIP3   OH271932   1.421   2.264   3.691  0.1999  0.5256 -0.0717
16814TIP3    H171933   1.361   2.194   3.718 -0.8798  1.7000  0.6518
16814TIP3    H271934   1.417   2.263   3.596  0.5757 -0.7205 -0.0890
16815TIP3   OH271935   1.285   4.638  16.029  0.0005 -0.0943 -0.0583
16815TIP3    H171936   1.227   4.713  16.044  1.6402  0.7159  2.4581
16815TIP3    H271937   1.279   4.622  15.935 -2.8460  1.1527 -0.1376
16816TIP3   OH271938   1.462   5.791  12.676 -0.0736 -0.0086  0.0635
16816TIP3    H171939   1.514   5.863  12.639  1.1153 -0.3305  1.0482
16816TIP3    H271940   1.373   5.807  12.646  0.4484  1.0543 -0.9471
16817TIP3   OH271941   4.541   4.348  16.243  0.0799 -0.3843  0.1973
16817TIP3    H171942   4.478   4.298  16.192  0.1111 -1.8651  1.5954
16817TIP3    H271943   4.501   4.356  16.330  1.5546 -0.8546  0.9362
16818TIP3   OH271944   2.162   2.461   5.576  0.1320 -0.1034  0.3694
16818TIP3    H171945   2.152   2.450   5.482  0.1007  0.7058  0.2810
16818TIP3    H271946   2.073   2.467   5.609  0.1754  1.3365  0.2467
16819TIP3   OH271947   4.404   3.714   2.797 -0.7082  0.1235 -0.2844
16819TIP3    H171948   4.392   3.633   2.846  0.2967 -1.8981 -3.2902
16819TIP3    H271949   4.479   3.757   2.839 -0.1859 -1.3108  0.2599
16820TIP3   OH271950   6.107   5.914   5.429 -0.0034  0.2198 -0.4258
16820TIP3    H171951   6.153   5.876   5.354  0.7590  0.6636 -0.1843
16820TIP3    H271952   6.174   5.924   5.496 -1.0687 -2.0046  1.0179
16821TIP3   OH271953   2.740   6.192   0.806  0.0080  0.1565 -0.0602
16821TIP3    H171954   2.812   6.154   0.856  0.4749 -1.0791 -1.6351
16821TIP3    H271955   2.762   6.285   0.798  2.7916 -0.6658 -2.7665
16822TIP3   OH271956   0.920   6.254  12.543 -0.4424  0.0667 -0.7130
16822TIP3    H171957   0.948   6.324  12.485  0.5425 -0.5331 -0.9731
16822TIP3    H271958   0.946   6.283  12.630  3.0759 -1.4451 -1.1692
16823TIP3   OH271959   0.958   2.771  16.346  0.3808  0.1525  1.1190
16823TIP3    H171960   0.959   2.748  16.253  0.9186  0.2304  1.1007
16823TIP3    H271961   0.961   2.866  16.347  1.9650  0.1052  1.2319
16824TIP3   OH271962   3.241   1.132  14.959 -0.4447  0.0129 -0.3374
16824TIP3    H171963   3.221   1.075  14.885 -3.4383 -0.1305  0.5240
16824TIP3    H271964   3.183   1.208  14.947  0.3369  0.8263  0.9037
16825TIP3   OH271965   1.371   1.256  16.555  0.1843 -0.2910  0.3682
16825TIP3    H171966   1.346   1.176  16.601  0.4409 -0.4182  0.2911
16825TIP3    H271967   1.301   1.319  16.575 -1.6506 -1.4739 -2.1089
16826TIP3   OH271968   0.352   2.352  14.378  0.0736  0.3624 -0.6110
16826TIP3    H171969   0.423   2.403  14.340  1.0869 -0.6406 -0.0997
16826TIP3    H271970   0.383   2.329  14.466 -1.4821  1.1317  0.1622
16827TIP3   OH271971   4.453   5.154   1.710  0.2200 -0.4224  0.3401
16827TIP3    H171972   4.535   5.197   1.735 -0.2195  1.7810 -1.8181
16827TIP3    H271973   4.479   5.064   1.688  1.3696 -0.9605  3.6157
16828TIP3   OH271974   0.645   4.912   6.559 -0.3185  0.4972 -0.1790
16828TIP3    H171975   0.647   4.983   6.624  0.6298 -0.4630  0.8599
16828TIP3    H271976   0.736   4.902   6.531 -0.5555  0.1437 -0.8305
16829TIP3   OH271977   0.002   4.383   5.878  0.1964 -0.5491 -0.0904
16829TIP3    H171978   0.045   4.314   5.828  0.0892 -0.9261  0.3347
16829TIP3    H271979  -0.085   4.348   5.898  0.8832 -1.1734  1.9340
16830TIP3   OH271980   0.771   5.270   0.794  0.1652  0.4197 -0.6212
16830TIP3    H171981   0.844   5.260   0.732  1.5823  2.8571  0.5697
16830TIP3    H271982   0.763   5.364   0.807 -2.4441  0.1209  0.2189
16831TIP3   OH271983   5.206   4.839   1.663 -0.7353 -0.2903 -0.3952
16831TIP3    H171984   5.206   4.760   1.608  0.5699  0.9963 -2.2973
16831TIP3    H271985   5.290   4.836   1.708 -0.6812  0.0280 -0.4765
16832TIP3   OH271986   4.475   0.997   5.012 -0.0432  0.6675 -0.6512
16832TIP3    H171987   4.452   0.987   5.104 -2.3197  0.2839 -1.2442
16832TIP3    H271988   4.562   0.958   5.005  0.2571  0.9037  1.3646
16833TIP3   OH271989   3.327   0.431   4.463  1.0439 -0.4603  0.2565
16833TIP3    H171990   3.334   0.337   4.479  0.6315 -0.5527 -0.1138
16833TIP3    H271991   3.236   0.445   4.435  1.5727 -0.2110 -1.3894
16834TIP3   OH271992   6.786   2.247  15.722  0.1368  0.9397  0.0299
16834TIP3    H171993   6.804   2.211  15.635  1.1185  0.0155  0.6030
16834TIP3    H271994   6.693   2.271  15.719 -1.0062 -3.0195  0.0841
16835TIP3   OH271995   0.033   2.017  14.489 -0.3232 -0.1146 -0.2613
16835TIP3    H171996  -0.009   2.017  14.575 -0.5525 -0.0196 -0.3749
16835TIP3    H271997   0.126   2.034  14.508 -0.4683  0.4839 -0.0811
16836TIP3   OH271998   5.897   0.582   1.412 -0.1587  0.3129  0.2243
16836TIP3    H171999   5.949   0.620   1.483 -0.3208  1.8533 -0.4499
16836TIP3    H272000   5.821   0.640   1.405 -1.3698 -1.2323  0.3971
16837TIP3   OH272001   5.076   1.480   2.519 -0.6611 -0.0015 -0.0287
16837TIP3    H172002   5.035   1.421   2.582 -0.1495 -0.0068  0.3019
16837TIP3    H272003   5.089   1.562   2.567 -0.0990 -0.0657 -0.0688
16838TIP3   OH272004   1.864   4.055  12.631  0.2978  0.1725 -0.4592
16838TIP3    H172005   1.836   4.144  12.612 -1.4341 -0.0630  0.8462
16838TIP3    H272006   1.827   4.036  12.717  0.9391 -1.6921 -0.5633
16839TIP3   OH272007   6.389   3.675  14.003 -0.2247  1.1241  0.8857
16839TIP3    H172008   6.377   3.686  13.909 -2.2890  2.0452  1.2337
16839TIP3    H272009   6.320   3.614  14.029  1.5106 -0.6293  1.5144
16840TIP3   OH272010   0.602   4.103  17.274  0.0724 -0.1431  0.8625
16840TIP3    H172011   0.564   4.086  17.360  0.7453 -0.1569  1.1553
16840TIP3    H272012   0.534   4.152  17.227  0.4099  1.4536  2.0308
16841TIP3   OH272013   0.460   3.823  12.949 -0.5586 -0.4532 -0.1529
16841TIP3    H172014   0.460   3.737  12.908  2.5382 -1.1662  1.1833
16841TIP3    H272015   0.539   3.865  12.916 -2.5714  2.3619 -1.6247
16842TIP3   OH272016   2.338   1.630   1.230 -0.0396  0.1950  0.1450
16842TIP3    H172017   2.291   1.559   1.274 -1.1936  0.2743 -0.9410
16842TIP3    H272018   2.410   1.585   1.185 -0.0224 -0.1281  0.4867
16843TIP3   OH272019   0.821   2.332   4.594  0.0760  0.0819  0.5232
16843TIP3    H172020   0.900   2.371   4.631  1.3801 -2.4237  0.4326
16843TIP3    H272021   0.796   2.391   4.523  1.8470  0.8936  0.5639
16844TIP3   OH272022   1.664   6.497  14.662  0.1761  0.7516 -0.6813
16844TIP3    H172023   1.576   6.466  14.685  2.2176 -5.2795 -0.1836
16844TIP3    H272024   1.651   6.549  14.583 -3.7920  0.0211 -0.6432
16845TIP3   OH272025   1.246   0.312  11.291 -0.9601 -0.2002 -0.2282
16845TIP3    H172026   1.197   0.251  11.236 -1.0010 -0.0542 -0.3567
16845TIP3    H272027   1.332   0.271  11.303 -1.3948 -0.8537  0.7028
16846TIP3   OH272028   4.648   5.448   2.933  0.2125 -0.1782  0.6673
16846TIP3    H172029   4.575   5.389   2.915 -1.0129  1.1387  1.2355
16846TIP3    H272030   4.718   5.418   2.875 -0.4266 -2.1062  0.8610
16847TIP3   OH272031   1.575   6.050  15.791 -0.2529 -0.2658 -0.6522
16847TIP3    H172032   1.649   6.092  15.747 -0.3798  0.8882  0.2012
16847TIP3    H272033   1.528   6.005  15.722  0.3560  0.3322 -1.4660
16848TIP3   OH272034   1.134   6.026   3.294  0.1151 -0.2708 -0.2816
16848TIP3    H172035   1.188   5.956   3.258  0.8045  0.1348 -0.0596
16848TIP3    H272036   1.053   5.984   3.321  0.8717 -1.1425  0.6636
16849TIP3   OH272037   5.734   3.874   4.216 -0.3170  0.1201  0.3733
16849TIP3    H172038   5.813   3.819   4.224 -0.5136 -0.0317  1.4166
16849TIP3    H272039   5.712   3.871   4.123  0.2923 -0.7116  0.2464
16850TIP3   OH272040   2.776   0.586   2.452 -0.4498  0.4083 -0.0424
16850TIP3    H172041   2.783   0.628   2.366  1.2838  1.0343  0.3929
16850TIP3    H272042   2.696   0.623   2.490  0.0592  1.9451 -0.4250
16851TIP3   OH272043   5.085   4.257  15.397  0.8558  0.5766 -1.0467
16851TIP3    H172044   5.137   4.194  15.347 -0.4742 -1.2897 -0.1073
16851TIP3    H272045   4.995   4.229  15.385  0.3976  1.0161  1.1700
16852TIP3   OH272046   0.392   5.407   4.745  0.2113  0.6078  0.2560
16852TIP3    H172047   0.477   5.387   4.785 -0.5916 -0.5733  1.4465
16852TIP3    H272048   0.410   5.474   4.680  2.1058  0.1425  0.2891
16853TIP3   OH272049   6.483   3.396  15.475 -0.3103  0.0132  0.0731
16853TIP3    H172050   6.424   3.332  15.516 -0.1681 -0.3500 -0.2911
16853TIP3    H272051   6.531   3.434  15.549 -1.3630  0.6842  0.4264
16854TIP3   OH272052   6.475   1.354   4.926  0.2573 -0.3146  0.1420
16854TIP3    H172053   6.560   1.312   4.910  0.1310 -1.1081  1.4528
16854TIP3    H272054   6.415   1.312   4.865  0.5196 -0.7274  0.1689
16855TIP3   OH272055   5.946   1.629   0.641 -0.5758  0.0772 -0.2396
16855TIP3    H172056   5.874   1.659   0.586 -0.7651 -2.0547 -1.2007
16855TIP3    H272057   5.904   1.582   0.713 -0.1804 -0.9666 -0.6726
16856TIP3   OH272058   1.491   3.467   3.905 -0.5161 -0.0099 -0.4389
16856TIP3    H172059   1.550   3.533   3.941 -0.4209 -0.5884  0.5090
16856TIP3    H272060   1.428   3.516   3.852 -0.5225  0.8604  0.3510
16857TIP3   OH272061   3.086   3.326  11.163  1.2496  0.3246  0.6281
16857TIP3    H172062   3.064   3.332  11.070  0.6366 -1.2493  0.6529
16857TIP3    H272063   3.004   3.347  11.208  0.5062 -2.5738  0.7471
16858TIP3   OH272064   3.263   3.051  15.624 -0.1791  0.0857  0.1518
16858TIP3    H172065   3.229   2.964  15.646  0.6349  0.0488  1.3088
16858TIP3    H272066   3.286   3.045  15.531  0.6556 -1.2088  0.4239
16859TIP3   OH272067   4.732   0.601   5.550  0.4401  0.3413 -0.3316
16859TIP3    H172068   4.711   0.606   5.644 -1.2424  1.0711 -0.7235
16859TIP3    H272069   4.778   0.518   5.541  0.6790  0.2842  1.1607
16860TIP3   OH272070   1.799   1.297  13.183 -1.1065  0.2104 -0.0586
16860TIP3    H172071   1.826   1.384  13.155 -1.0130 -0.2373 -1.4205
16860TIP3    H272072   1.704   1.303  13.190 -1.1619  0.2531 -0.7892
16861TIP3   OH272073   5.459   0.133   0.932 -0.0209  0.3440 -0.6334
16861TIP3    H172074   5.505   0.121   1.015 -2.5028 -2.2091  0.4249
16861TIP3    H272075   5.502   0.073   0.871  0.0539  0.2221 -0.4598
16862TIP3   OH272076   1.280   0.007   4.238  0.2865  0.3089  0.5009
16862TIP3    H172077   1.365   0.048   4.253  2.0794 -2.9307 -0.3673
16862TIP3    H272078   1.262  -0.039   4.320  0.4284 -0.8216 -0.1041
16863TIP3   OH272079   5.393   5.544  12.299 -0.1732  0.0840 -0.1315
16863TIP3    H172080   5.344   5.528  12.219  0.0115  1.2941 -0.4961
16863TIP3    H272081   5.327   5.564  12.365 -0.3739 -1.6525  0.2107
16864TIP3   OH272082   0.123   5.954  12.786  0.3446 -0.1272  0.2642
16864TIP3    H172083   0.173   5.961  12.867  2.9119 -1.6853 -1.1056
16864TIP3    H272084   0.134   6.039  12.744 -1.8790  1.0601  1.9727
16865TIP3   OH272085   4.347   2.329  11.055 -0.1836 -0.2182  0.1811
16865TIP3    H172086   4.313   2.367  11.137 -1.0734 -0.6862  0.0336
16865TIP3    H272087   4.321   2.393  10.988  1.0961  0.4796  0.3350
16866TIP3   OH272088   0.727   2.544  12.140 -0.0760 -0.4426 -0.4858
16866TIP3    H172089   0.819   2.519  12.148  0.3933  1.2968 -0.2125
16866TIP3    H272090   0.729   2.626  12.090 -1.4362 -0.1053 -0.0021
16867TIP3   OH272091   3.099   6.696   5.101 -0.1866 -0.1841  0.5059
16867TIP3    H172092   3.175   6.639   5.112 -0.5624 -1.2428 -2.0426
16867TIP3    H272093   3.136   6.778   5.067 -0.0097 -0.1333  0.8197
16868TIP3   OH272094   5.385   1.681  12.797 -0.6211  0.3003  0.1576
16868TIP3    H172095   5.410   1.663  12.887 -1.0554  0.6815  0.3561
16868TIP3    H272096   5.462   1.657  12.745 -0.9822 -1.6398  0.4554
16869TIP3   OH272097   4.210   0.568   5.346  0.0127  0.0794  0.8484
16869TIP3    H172098   4.134   0.542   5.399  0.2948  0.4831  1.4486
16869TIP3    H272099   4.229   0.491   5.292 -1.4243  0.3007 -0.0148
16870TIP3   OH272100   6.110   2.403   2.055  0.3068 -0.1922 -0.9949
16870TIP3    H172101   6.068   2.486   2.036  1.6194  0.2080 -2.2275
16870TIP3    H272102   6.040   2.347   2.089 -0.2758  1.9186  1.4353
16871TIP3   OH272103   4.162   4.503   6.560  0.9256 -0.6314 -0.3361
16871TIP3    H172104   4.102   4.429   6.551  1.9033 -1.3482 -0.9794
16871TIP3    H272105   4.106   4.574   6.592 -0.0664 -1.5671  0.0533
16872TIP3   OH272106   4.331   3.152   4.095 -0.4225 -0.3187  1.0022
16872TIP3    H172107   4.395   3.223   4.097 -0.6336 -0.1471  2.5326
16872TIP3    H272108   4.324   3.124   4.186 -1.2907 -1.4513  0.5971
16873TIP3   OH272109   0.268   4.000  12.895 -0.0210 -0.1743 -0.0101
16873TIP3    H172110   0.322   4.078  12.882 -0.6553  0.6109  1.9957
16873TIP3    H272111   0.326   3.938  12.939  0.4442 -0.8187 -1.4910
16874TIP3   OH272112   5.113   6.778   3.623  0.2596 -0.0793 -0.5036
16874TIP3    H172113   5.033   6.732   3.597  0.2396 -0.4186  0.1566
16874TIP3    H272114   5.182   6.737   3.570  0.7991 -3.2663  2.5217
16875TIP3   OH272115   0.490   0.964   4.367 -0.1719  0.3776  0.1405
16875TIP3    H172116   0.574   0.976   4.410  0.0183  0.3480 -0.2166
16875TIP3    H272117   0.425   0.993   4.431  0.1111  0.4081  0.4122
16876TIP3   OH272118   1.392   3.716   1.154 -0.1909  0.0029  0.2937
16876TIP3    H172119   1.382   3.622   1.163 -0.0826 -0.0948 -0.5641
16876TIP3    H272120   1.382   3.732   1.060  0.5889  0.7536  0.3400
16877TIP3   OH272121   1.877   5.189   0.760  0.2257  0.4091  0.0077
16877TIP3    H172122   1.868   5.172   0.854 -0.0886 -1.4424 -0.3461
16877TIP3    H272123   1.925   5.114   0.726 -1.7459 -0.1188 -1.7168
16878TIP3   OH272124   5.384   4.706  14.182 -0.2228  0.5324 -0.3230
16878TIP3    H172125   5.303   4.659  14.201 -0.1565 -0.2928 -1.9461
16878TIP3    H272126   5.453   4.642  14.198  0.0041  0.7190 -0.5582
16879TIP3   OH272127   1.887   2.105   5.219 -0.3139 -0.6285 -0.2293
16879TIP3    H172128   1.810   2.083   5.272 -0.3423  0.5462  0.2145
16879TIP3    H272129   1.852   2.119   5.131 -0.3297 -2.1109 -0.4699
16880TIP3   OH272130   6.548   1.042   0.931  0.3636  0.2784  0.7826
16880TIP3    H172131   6.612   1.111   0.913  0.6328 -0.1781 -0.0375
16880TIP3    H272132   6.506   1.069   1.013  1.1943  0.8762  1.0177
16881TIP3   OH272133   5.824   2.012  12.015 -0.5413  0.3805 -0.3570
16881TIP3    H172134   5.874   2.089  11.988 -0.4924  0.4574 -0.0578
16881TIP3    H272135   5.827   1.953  11.940 -0.1634  0.4676 -0.4107
16882TIP3   OH272136   6.694   5.222  12.426  0.2999 -0.3530 -0.6755
16882TIP3    H172137   6.709   5.138  12.469  0.3889 -0.1048 -0.2219
16882TIP3    H272138   6.756   5.281  12.467 -0.9174  0.3378  0.2185
16883TIP3   OH272139   6.582   5.987  15.320  0.3513  0.4095  0.2434
16883TIP3    H172140   6.510   6.036  15.360  0.1851  1.3076 -1.1141
16883TIP3    H272141   6.647   5.979  15.390 -0.3092  1.1377  0.9607
16884TIP3   OH272142   0.069   4.323   1.168  0.3254 -0.4321  0.1136
16884TIP3    H172143   0.108   4.383   1.104 -0.4076  0.1121  0.1621
16884TIP3    H272144  -0.025   4.325   1.148  0.1371 -0.5617  0.9509
16885TIP3   OH272145   5.310   0.124  14.206 -0.3061 -0.2430  0.0140
16885TIP3    H172146   5.325   0.210  14.168 -0.3732  0.3742  1.3897
16885TIP3    H272147   5.398   0.089  14.223 -0.3053  0.7244  2.0820
16886TIP3   OH272148   5.262   4.214   0.813 -0.2201  0.4477  0.1675
16886TIP3    H172149   5.308   4.158   0.751  1.2847  1.3700  0.4016
16886TIP3    H272150   5.251   4.297   0.767 -1.7952  0.2058  0.0758
16887TIP3   OH272151   6.171   2.282   3.495  0.0018 -0.6444 -0.1931
16887TIP3    H172152   6.224   2.221   3.444  2.0641  0.6396  0.3416
16887TIP3    H272153   6.148   2.234   3.574 -0.0368 -1.3767 -0.6441
16888TIP3   OH272154   3.222   5.971   2.423 -0.2116  0.2472  0.4580
16888TIP3    H172155   3.171   6.046   2.391 -0.6958  0.4807  1.7438
16888TIP3    H272156   3.299   6.010   2.464  0.9547 -0.1022 -1.3697
16889TIP3   OH272157   0.971   3.818  13.415  0.3817  0.0964  0.3376
16889TIP3    H172158   0.957   3.861  13.500 -0.1051 -1.0257  0.8418
16889TIP3    H272159   0.899   3.755  13.409  0.5812 -0.0304 -0.7898
16890TIP3   OH272160   2.202   5.020  10.820  0.1826 -0.2018  0.1086
16890TIP3    H172161   2.211   5.049  10.911  0.8354 -2.1490  0.7053
16890TIP3    H272162   2.112   5.041  10.797  0.0678  0.4903  1.1485
16891TIP3   OH272163   6.390   5.994  13.133  0.1688 -0.4605 -0.5391
16891TIP3    H172164   6.383   6.078  13.178  0.1702 -0.8499  0.1920
16891TIP3    H272165   6.470   6.002  13.080  1.4253 -0.8276  1.2752
16892TIP3   OH272166   6.332   5.611  14.269 -0.0386  0.3869  0.0946
16892TIP3    H172167   6.290   5.694  14.293  0.1000  0.7352 -0.8484
16892TIP3    H272168   6.375   5.582  14.349  0.9629  1.8552  0.1026
16893TIP3   OH272169   4.816   4.166  15.337  0.6034 -0.0571 -0.1295
16893TIP3    H172170   4.723   4.168  15.359  1.0734 -0.8729  1.9839
16893TIP3    H272171   4.827   4.084  15.288  0.2449 -0.0331 -0.2513
16894TIP3   OH272172   0.696   6.085  12.481 -0.2814 -0.0035  0.0440
16894TIP3    H172173   0.743   6.002  12.492 -1.1555 -0.5190 -0.0715
16894TIP3    H272174   0.757   6.152  12.511  1.1012 -0.5287 -1.5157
16895TIP3   OH272175   4.818   5.507  12.953  0.5909  0.1973  0.0583
16895TIP3    H172176   4.913   5.497  12.962  0.7404  1.8929  0.4261
16895TIP3    H272177   4.807   5.578  12.890 -0.4032  1.5081  1.6664
16896TIP3   OH272178   4.513   5.846  13.114 -0.0467  0.4041  0.1362
16896TIP3    H172179   4.452   5.883  13.051 -0.4105 -1.3273 -0.5458
16896TIP3    H272180   4.595   5.895  13.099 -0.3258  0.4980 -1.1752
16897TIP3   OH272181   5.448   5.695   4.654 -0.2210  0.2810 -1.0490
16897TIP3    H172182   5.458   5.788   4.674 -1.8945  0.5883 -1.5433
16897TIP3    H272183   5.363   5.672   4.691  0.1994 -1.0628 -0.9045
16898TIP3   OH272184   5.909   5.982  11.484  0.1725 -0.6481  0.0262
16898TIP3    H172185   5.971   5.947  11.548  0.5192  1.1951  0.7317
16898TIP3    H272186   5.917   6.077  11.493 -2.3501 -0.3785 -0.2632
16899TIP3   OH272187   5.001   5.993   5.574 -0.1277  0.3872  0.0445
16899TIP3    H172188   5.083   6.033   5.604 -0.1434  1.0297 -0.7465
16899TIP3    H272189   5.027   5.907   5.540 -0.1026 -0.3326  1.8197
16900TIP3   OH272190   5.588   0.919  12.264  0.7915 -0.8636  0.1520
16900TIP3    H172191   5.573   0.841  12.317  1.4346 -1.8095 -1.0402
16900TIP3    H272192   5.514   0.921  12.203 -0.5610  0.8477  1.7739
16901TIP3   OH272193   4.507   3.094  12.811 -0.1690 -0.3496 -0.2138
16901TIP3    H172194   4.520   3.017  12.866  2.2958  0.8818  1.0323
16901TIP3    H272195   4.461   3.156  12.867 -1.3078 -0.5754 -0.9002
16902TIP3   OH272196   2.861   4.395  11.449 -0.6253 -0.2009 -0.5724
16902TIP3    H172197   2.857   4.394  11.545 -0.6071  1.4261 -0.5427
16902TIP3    H272198   2.926   4.327  11.428 -0.1304 -0.1186  0.5991
16903TIP3   OH272199   6.091   0.759  15.789  0.2661  0.0964 -0.0573
16903TIP3    H172200   6.067   0.740  15.699 -3.0606 -0.3431  0.8334
16903TIP3    H272201   6.106   0.854  15.791 -0.1452  0.1799 -0.9724
16904TIP3   OH272202   4.948   2.665  14.085  0.5313  0.6987 -0.2117
16904TIP3    H172203   4.944   2.675  13.990  2.3020  1.1688 -0.2428
16904TIP3    H272204   4.990   2.580  14.099 -3.2674 -1.2441  0.1641
16905TIP3   OH272205   5.906   2.674   5.194  0.2041 -0.1490 -0.5997
16905TIP3    H172206   5.926   2.584   5.168  1.6582  0.1207 -0.4560
16905TIP3    H272207   5.990   2.710   5.222 -0.2825  1.3842 -1.0530
16906TIP3   OH272208   3.622   5.521   0.198 -0.5648 -0.5995  0.2135
16906TIP3    H172209   3.635   5.520   0.103  0.0835 -1.0055  0.3065
16906TIP3    H272210   3.527   5.517   0.208 -0.7366  1.2895 -0.4388
16907TIP3   OH272211   2.282   5.464  13.124 -0.1785  0.2935 -0.2429
16907TIP3    H172212   2.248   5.542  13.080  1.0254  2.4067  2.4596
16907TIP3    H272213   2.204   5.416  13.151 -0.9334  1.2123 -0.7564
16908TIP3   OH272214   3.764   2.602  14.453  0.1501  0.5749 -0.2907
16908TIP3    H172215   3.698   2.558  14.507 -0.5574  0.5470 -1.1576
16908TIP3    H272216   3.741   2.694  14.456 -1.0871  0.3509 -2.1251
16909TIP3   OH272217   0.067   1.970  12.159 -0.2105  0.3138 -0.5946
16909TIP3    H172218   0.150   2.003  12.193 -0.4946  0.2621  0.1603
16909TIP3    H272219   0.035   2.040  12.102  0.0464  0.6087 -0.3798
16910TIP3   OH272220   3.795   4.722  12.508  0.5931 -0.2115 -0.1454
16910TIP3    H172221   3.738   4.735  12.583  1.0439 -0.0217  0.1668
16910TIP3    H272222   3.863   4.662  12.540  0.8133 -0.0906 -0.3834
16911TIP3   OH272223   6.284   0.006   2.193 -0.7029 -0.8336 -0.3584
16911TIP3    H172224   6.198   0.008   2.234 -0.3693  0.6622  0.2980
16911TIP3    H272225   6.266   0.006   2.099 -1.4529 -3.2392 -0.2491
16912TIP3   OH272226   4.335   4.378   1.637 -0.0717  0.1888  0.1006
16912TIP3    H172227   4.369   4.437   1.569  1.7357 -1.7168 -0.6828
16912TIP3    H272228   4.352   4.290   1.603 -0.5620 -0.7889  2.3345
16913TIP3   OH272229   0.827   1.692   0.054  0.1153 -0.4111 -0.8781
16913TIP3    H172230   0.841   1.704  -0.040  0.1260  0.8067 -0.7404
16913TIP3    H272231   0.732   1.698   0.065  0.3270  2.9377 -0.4112
16914TIP3   OH272232   6.520   3.934   2.520 -0.3108 -0.4523 -0.1388
16914TIP3    H172233   6.426   3.951   2.510 -0.2656  0.3449  0.7401
16914TIP3    H272234   6.529   3.904   2.610  0.5725  1.5528  0.4610
16915TIP3   OH272235   2.780   2.092   5.358 -0.0400  0.0737  0.4826
16915TIP3    H172236   2.735   2.008   5.367  0.2863 -0.1010  0.4913
16915TIP3    H272237   2.714   2.150   5.321  0.0095 -0.4376 -0.4293
16916TIP3   OH272238   3.663   1.765  13.133 -0.1609  0.1833 -0.3454
16916TIP3    H172239   3.597   1.826  13.167  0.5620  0.6867  0.1776
16916TIP3    H272240   3.686   1.801  13.047 -0.3376  0.1821 -0.3941
16917TIP3   OH272241   4.193   6.366   2.545 -0.4318 -0.1952  0.3738
16917TIP3    H172242   4.137   6.440   2.570 -0.1027  1.0686 -2.4461
16917TIP3    H272243   4.269   6.406   2.505 -0.3259 -2.0808 -1.3622
16918TIP3   OH272244   3.737   1.567   1.893 -0.1847  0.1942 -0.2382
16918TIP3    H172245   3.710   1.658   1.909 -0.3378 -0.1205  1.3934
16918TIP3    H272246   3.761   1.565   1.800 -0.5636  1.8026 -0.3875
16919TIP3   OH272247   4.067   2.972   1.761 -0.2278  0.3029  0.1207
16919TIP3    H172248   4.112   2.899   1.718 -1.4605 -1.0112  1.0244
16919TIP3    H272249   4.047   3.033   1.689  1.3824  0.0683 -0.5438
16920TIP3   OH272250   0.333   1.354   3.823  0.2613  0.3951  0.6303
16920TIP3    H172251   0.403   1.289   3.816  0.9152  1.4455 -4.8937
16920TIP3    H272252   0.256   1.311   3.787 -0.8403  0.7209  2.5546
16921TIP3   OH272253   5.576   4.985  13.916  0.4415 -0.1695 -0.1296
16921TIP3    H172254   5.637   4.981  13.843  0.6269 -2.1995  0.1009
16921TIP3    H272255   5.511   4.917  13.897 -0.6204  0.6366  0.5944
16922TIP3   OH272256   0.742   3.092  15.835  0.3716  0.2976  0.3689
16922TIP3    H172257   0.688   3.132  15.904  0.6547  0.6816  0.3706
16922TIP3    H272258   0.681   3.076  15.763  0.5123  2.0468 -0.1771
16923TIP3   OH272259   0.353   0.955  16.900 -0.6524  0.4173 -0.0096
16923TIP3    H172260   0.272   0.961  16.950 -1.4647 -0.6483 -1.1760
16923TIP3    H272261   0.325   0.953  16.809  0.7402  0.9936 -0.4574
16924TIP3   OH272262   2.260   5.177  17.256  0.3412 -0.6441  0.2294
16924TIP3    H172263   2.300   5.218  17.333  0.2575  1.5140 -0.8405
16924TIP3    H272264   2.325   5.114  17.226  1.2906  0.0272  0.8243
16925TIP3   OH272265   1.167   2.520   1.623 -0.3341  0.3017  0.2376
16925TIP3    H172266   1.262   2.515   1.610 -0.3559 -1.1189  0.5996
16925TIP3    H272267   1.137   2.580   1.555  0.5598 -0.8860 -1.2208
16926TIP3   OH272268   3.431   3.501  15.197  0.1002  0.4936 -0.2811
16926TIP3    H172269   3.509   3.546  15.230  0.2720 -0.0835  0.1072
16926TIP3    H272270   3.383   3.475  15.276 -1.3054  2.2456 -0.5248
16927TIP3   OH272271   2.711   0.901   0.043 -0.5731  0.2322 -0.2438
16927TIP3    H172272   2.776   0.921   0.111 -0.1094 -1.1181 -0.2893
16927TIP3    H272273   2.738   0.955  -0.031 -0.2011  0.5744  0.1347
16928TIP3   OH272274   1.373   6.424   5.937  0.5420 -0.4633  0.5225
16928TIP3    H172275   1.307   6.379   5.885 -0.1698  0.2583  0.8032
16928TIP3    H272276   1.394   6.364   6.008  0.4198 -0.8211  0.2557
16929TIP3   OH272277   0.297   1.764  16.984  0.0406  0.4253 -0.3025
16929TIP3    H172278   0.269   1.826  16.917  0.4972 -0.9952 -1.8433
16929TIP3    H272279   0.223   1.703  16.992  0.4463 -0.0812 -0.3722
16930TIP3   OH272280   6.085   0.950  11.671  0.0834  0.1132  0.0497
16930TIP3    H172281   6.030   0.991  11.604 -0.7078 -0.2811  0.4478
16930TIP3    H272282   6.174   0.978  11.650 -0.2327  0.4803 -0.8081
16931TIP3   OH272283   1.358   0.292  14.339 -0.2126  0.2855  0.4129
16931TIP3    H172284   1.312   0.230  14.281 -1.3356  0.0135  1.5890
16931TIP3    H272285   1.305   0.371  14.336 -0.3444  0.2259  1.1803
16932TIP3   OH272286   2.788   5.217   1.135  0.1590 -0.9836  0.0426
16932TIP3    H172287   2.804   5.300   1.089  2.1290 -0.7821  1.0102
16932TIP3    H272288   2.805   5.238   1.227 -0.7305 -2.1241  0.4739
16933TIP3   OH272289   2.561   3.354   1.980  0.3037  0.0822  0.0664
16933TIP3    H172290   2.612   3.434   1.993 -0.5697  0.9787 -1.9807
16933TIP3    H272291   2.573   3.333   1.888 -0.6835 -1.3375  0.2557
16934TIP3   OH272292   0.979   0.935   1.595 -0.5113 -0.1668  0.1829
16934TIP3    H172293   0.942   0.860   1.640 -2.2367  1.2803  1.2537
16934TIP3    H272294   1.006   0.995   1.665  0.8732  0.2106 -0.6512
16935TIP3   OH272295   2.792   1.434  12.104 -0.2825  0.4489  0.5813
16935TIP3    H172296   2.844   1.407  12.180  0.8606  2.3455  0.5066
16935TIP3    H272297   2.702   1.435  12.136  0.2028  1.3826  1.9615
16936TIP3   OH272298   5.730   0.550   0.602  0.3381  0.1101 -0.5255
16936TIP3    H172299   5.807   0.570   0.550  0.6006 -0.5712 -0.3995
16936TIP3    H272300   5.758   0.479   0.660  0.0103  0.7539  0.4338
16937TIP3   OH272301   2.713   4.401  16.689 -0.0355  0.3207 -0.7368
16937TIP3    H172302   2.807   4.382  16.686  0.1715  1.2477 -0.2455
16937TIP3    H272303   2.691   4.398  16.782 -0.5511 -0.1395 -0.8683
16938TIP3   OH272304   4.706   1.121   1.994  0.3474  0.5321  0.4698
16938TIP3    H172305   4.770   1.148   1.929  1.4696 -1.6230  0.6405
16938TIP3    H272306   4.622   1.147   1.957  1.0679  0.4519 -1.2554
16939TIP3   OH272307   5.803   3.883   3.111 -0.5989  0.4027  0.0534
16939TIP3    H172308   5.786   3.965   3.157 -0.6264  0.6073 -0.3113
16939TIP3    H272309   5.728   3.872   3.053 -0.7275 -0.0260  0.3025
16940TIP3   OH272310   5.023   6.371   4.530  0.3691  0.3205  0.3295
16940TIP3    H172311   5.062   6.455   4.509  0.5290 -0.0985 -1.0941
16940TIP3    H272312   4.958   6.356   4.461  1.7230 -1.6154 -0.5688
16941TIP3   OH272313   6.660   6.178  12.812 -0.1826 -0.0491  0.6607
16941TIP3    H172314   6.679   6.266  12.779  0.9313 -0.8267 -0.8471
16941TIP3    H272315   6.565   6.170  12.804 -0.2145  0.7736  0.1396
16942TIP3   OH272316   3.877   4.027  15.469 -0.2504 -0.6806  1.0128
16942TIP3    H172317   3.951   4.023  15.530 -1.2011 -0.3707  2.1920
16942TIP3    H272318   3.874   4.119  15.442  0.3772 -0.8847  0.2308
16943TIP3   OH272319   4.778   6.292  12.756  0.4025  0.6435 -0.2409
16943TIP3    H172320   4.726   6.213  12.770 -0.7330  1.5147  0.4623
16943TIP3    H272321   4.797   6.292  12.662 -0.3899  0.0266 -0.4048
16944TIP3   OH272322   3.441   1.388   2.746 -0.2148  0.0563  0.0403
16944TIP3    H172323   3.388   1.362   2.671 -0.0809  0.4639 -0.1991
16944TIP3    H272324   3.432   1.483   2.750 -2.5036 -0.1947  2.2529
16945TIP3   OH272325   0.588   0.002  14.658 -0.0098 -0.0459 -0.3462
16945TIP3    H172326   0.678  -0.030  14.666 -0.1812 -0.3305  0.5001
16945TIP3    H272327   0.534  -0.075  14.675 -0.4164  0.3570  0.2041
16946TIP3   OH272328   1.001   4.364   3.798 -0.2086  0.5883  0.3322
16946TIP3    H172329   1.062   4.380   3.870 -0.8656  0.1649  0.9843
16946TIP3    H272330   0.918   4.344   3.840 -0.0654 -1.9884 -0.4878
16947TIP3   OH272331   2.451   3.439   5.013 -0.0953  0.2035 -0.2382
16947TIP3    H172332   2.403   3.356   5.003  0.2289 -0.0305  0.0980
16947TIP3    H272333   2.457   3.475   4.925  1.3970 -1.0590 -0.6918
16948TIP3   OH272334   2.659   4.725  16.324 -0.1706  0.3117 -0.4638
16948TIP3    H172335   2.645   4.792  16.257 -2.4358 -0.0271 -0.3638
16948TIP3    H272336   2.681   4.775  16.403 -2.8186  1.0597 -0.1368
16949TIP3   OH272337   1.698   6.749  12.280  0.0941 -0.3819 -0.3311
16949TIP3    H172338   1.753   6.767  12.203 -0.7720  0.5908 -0.7420
16949TIP3    H272339   1.738   6.801  12.350 -0.0736  0.0310 -0.5372
16950TIP3   OH272340   2.106   3.467   4.525 -0.3291  0.3217 -0.0311
16950TIP3    H172341   2.045   3.400   4.556 -0.6205  1.8597  2.8696
16950TIP3    H272342   2.193   3.427   4.537 -0.5788 -0.2875 -0.2264
16951TIP3   OH272343   1.183   6.187  15.052  0.2260 -0.3978  0.9047
16951TIP3    H172344   1.193   6.224  14.965  1.4218  1.2614  1.7063
16951TIP3    H272345   1.227   6.250  15.110  0.6340 -2.1378  2.5416
16952TIP3   OH272346   6.190   4.510  15.192  0.1227 -0.4716  0.2671
16952TIP3    H172347   6.228   4.549  15.113  1.0391  0.1233  0.9862
16952TIP3    H272348   6.186   4.416  15.173  0.0343 -0.2974 -0.6061
16953TIP3   OH272349   4.330   2.870  13.876 -0.4856 -0.3787 -0.2171
16953TIP3    H172350   4.291   2.784  13.893 -3.0967  1.0518  1.4035
16953TIP3    H272351   4.255   2.927  13.859  1.1711  1.7289 -0.6933
16954TIP3   OH272352   6.229   4.312   5.585  0.4574 -0.3845  0.0891
16954TIP3    H172353   6.204   4.347   5.671  0.4302  0.1276 -0.1298
16954TIP3    H272354   6.309   4.262   5.603  0.0609 -0.8632  0.5353
16955TIP3   OH272355   3.755   5.992  15.026 -0.1450  0.1452  0.1042
16955TIP3    H172356   3.662   5.978  15.042 -0.2789 -0.2202 -0.9505
16955TIP3    H272357   3.777   6.072  15.074 -1.3283  1.0513 -0.8438
16956TIP3   OH272358   3.807   2.961  12.957 -0.5362  0.2361 -0.0637
16956TIP3    H172359   3.837   3.051  12.969 -0.9186  0.4810 -0.8575
16956TIP3    H272360   3.719   2.970  12.920 -0.8429 -0.4656  0.4695
16957TIP3   OH272361   4.963   4.269   5.147 -0.5137  0.1019  0.0196
16957TIP3    H172362   4.968   4.250   5.240  0.5142  2.4052  0.4597
16957TIP3    H272363   5.055   4.280   5.120 -0.7441 -1.4786 -1.4625
16958TIP3   OH272364   5.705   0.930  16.876  0.6476  0.5613 -0.3421
16958TIP3    H172365   5.747   0.980  16.806  0.3765  0.7926 -0.3394
16958TIP3    H272366   5.662   0.857  16.831  0.6931  0.5619 -0.3857
16959TIP3   OH272367   2.907   1.854   3.238 -0.0521  0.1767  0.2466
16959TIP3    H172368   2.816   1.873   3.260 -0.5840 -0.8220 -1.0033
16959TIP3    H272369   2.946   1.940   3.222 -0.5223  0.6706  1.7096
16960TIP3   OH272370   4.908   4.410  11.410 -0.5757 -0.3191 -0.1577
16960TIP3    H172371   4.823   4.400  11.367 -0.4085  0.0267 -0.5705
16960TIP3    H272372   4.945   4.322  11.414  0.9738  0.0832 -3.9098
16961TIP3   OH272373   4.235   1.099   5.957 -0.8725  0.4135  0.0023
16961TIP3    H172374   4.224   1.127   6.048 -1.5804 -0.2842  0.1354
16961TIP3    H272375   4.312   1.041   5.959  0.6849  2.3866 -0.2986
16962TIP3   OH272376   3.045   4.044   2.784  0.1315 -0.0397 -0.3794
16962TIP3    H172377   2.991   4.115   2.819 -1.0593 -0.0845 -2.0837
16962TIP3    H272378   3.135   4.074   2.797 -0.2794  0.2946  1.9292
16963TIP3   OH272379   2.007   3.832   0.120  0.2682 -0.0732  0.7145
16963TIP3    H172380   2.073   3.773   0.157  1.2336  0.6664  0.1585
16963TIP3    H272381   2.015   3.821   0.026  0.7770  1.2956  0.5861
16964TIP3   OH272382   1.520   0.309  13.090  0.5073  0.1413  0.0507
16964TIP3    H172383   1.458   0.238  13.107  0.4968  0.2908  0.6820
16964TIP3    H272384   1.596   0.266  13.052 -1.1768  0.3286 -3.7913
16965TIP3   OH272385   3.205   1.877  11.704 -0.0603  0.4538  0.1686
16965TIP3    H172386   3.165   1.963  11.718  0.3630  0.7431 -0.3579
16965TIP3    H272387   3.132   1.817  11.695 -0.3682  0.8763 -0.1656
16966TIP3   OH272388   4.794   5.562   4.370 -0.1941  0.4052  0.3867
16966TIP3    H172389   4.751   5.500   4.428  1.3353 -0.7817  0.3048
16966TIP3    H272390   4.819   5.635   4.427 -1.9519  0.9353  0.4924
16967TIP3   OH272391   4.169   2.655   0.345 -0.4694  0.3333  0.2932
16967TIP3    H172392   4.232   2.671   0.415 -0.5866  1.0799  0.2251
16967TIP3    H272393   4.095   2.612   0.389  0.6442 -1.8368  0.1498
16968TIP3   OH272394   5.581   2.189   1.511  0.2995 -0.6716  0.5775
16968TIP3    H172395   5.632   2.213   1.589  0.8275  0.6641 -0.1628
16968TIP3    H272396   5.573   2.094   1.517  1.3292 -0.7136  1.6561
16969TIP3   OH272397   2.458   1.949  14.895  0.6876  0.1889 -0.7031
16969TIP3    H172398   2.451   1.906  14.810 -2.9701  1.2289 -1.0217
16969TIP3    H272399   2.453   2.042  14.876 -0.4099  0.4288  0.6385
16970TIP3   OH272400   3.618   6.003  10.277 -0.6208  0.1009  0.1138
16970TIP3    H172401   3.628   6.073  10.343 -1.0570  0.1752  0.0990
16970TIP3    H272402   3.539   6.027  10.229 -0.0401  0.2985 -0.7481
16971TIP3   OH272403   1.953   6.700   2.094  0.2902  0.5382 -0.4284
16971TIP3    H172404   2.008   6.622   2.083 -0.0071  0.2833 -0.0862
16971TIP3    H272405   2.004   6.770   2.054  2.0213  0.8018  2.1123
16972TIP3   OH272406   0.626   2.928   0.196  0.1604  0.1091 -0.1627
16972TIP3    H172407   0.693   2.880   0.148  1.0996  1.3947 -0.1804
16972TIP3    H272408   0.623   3.014   0.154  0.5103  1.0251  1.6226
16973TIP3   OH272409   2.624   3.502  14.076  0.1573 -0.4279 -0.5769
16973TIP3    H172410   2.632   3.574  14.139 -1.2228 -0.2632 -0.5728
16973TIP3    H272411   2.715   3.476  14.058  0.6185  0.4093  0.4503
16974TIP3   OH272412   4.645   5.079  17.166  0.1440 -0.1947 -0.8533
16974TIP3    H172413   4.589   5.061  17.242 -1.0863 -1.1079 -1.9466
16974TIP3    H272414   4.665   5.172  17.172  0.1553 -0.2884  0.6646
16975TIP3   OH272415   4.697   6.172   2.843  0.3716 -0.0930  0.3960
16975TIP3    H172416   4.749   6.233   2.791  0.9200 -2.1234 -1.5113
16975TIP3    H272417   4.762   6.120   2.891 -0.0530  0.1266  1.2193
16976TIP3   OH272418   0.516   3.884   4.382 -0.8630 -0.4934 -0.0971
16976TIP3    H172419   0.586   3.887   4.316  0.1793  0.0963  1.0115
16976TIP3    H272420   0.562   3.882   4.466 -2.1735 -1.2531  0.6318
16977TIP3   OH272421   4.177   4.876  15.774  0.7733  0.4468 -0.1038
16977TIP3    H172422   4.212   4.879  15.863 -0.5304  0.2314  0.4219
16977TIP3    H272423   4.230   4.939  15.725  1.8054  0.2255  0.7025
16978TIP3   OH272424   1.906   3.266   1.667  0.7126  0.2803 -0.5762
16978TIP3    H172425   1.993   3.226   1.671  0.6866  0.2785 -0.0976
16978TIP3    H272426   1.907   3.316   1.585  1.4930  1.0569 -0.0959
16979TIP3   OH272427   6.185   5.959   4.966 -0.6273  0.1650 -0.2642
16979TIP3    H172428   6.256   6.022   4.953 -1.1381  0.6607 -0.6553
16979TIP3    H272429   6.105   6.007   4.942 -1.1523 -0.2156  0.7215
16980TIP3   OH272430   0.055   4.076  11.648 -0.6600 -0.7621  0.0360
16980TIP3    H172431  -0.006   4.124  11.593 -1.6467 -2.4573 -0.3947
16980TIP3    H272432   0.140   4.114  11.628 -1.1410 -0.6362 -1.8746
16981TIP3   OH272433   0.176   4.773   2.053  0.1451 -0.3269 -0.3455
16981TIP3    H172434   0.124   4.788   1.974 -0.2459  0.2422  0.0168
16981TIP3    H272435   0.216   4.857   2.072  0.4542 -0.5306 -0.0890
16982TIP3   OH272436   2.591   2.315   0.542  0.0640  0.3716 -0.5044
16982TIP3    H172437   2.685   2.302   0.558 -0.0757  0.7904  0.6785
16982TIP3    H272438   2.569   2.393   0.593 -1.3360 -0.8532  0.7938
16983TIP3   OH272439   3.840   5.385  16.709 -0.1139 -0.0102 -0.7668
16983TIP3    H172440   3.777   5.398  16.780  0.3644 -0.4199 -0.2641
16983TIP3    H272441   3.786   5.366  16.632 -0.5388 -2.2469  0.0570
16984TIP3   OH272442   6.214   4.135  15.640 -0.2340 -0.4265 -0.4621
16984TIP3    H172443   6.277   4.075  15.601 -0.0777 -0.5239 -0.0684
16984TIP3    H272444   6.137   4.130  15.584  1.1987  2.0404 -2.7611
16985TIP3   OH272445   2.049   1.781  15.094 -0.0516  0.2944  0.5777
16985TIP3    H172446   2.035   1.855  15.153  0.1071  1.8693 -1.3490
16985TIP3    H272447   1.961   1.746  15.079 -0.4674  1.8553 -0.7502
16986TIP3   OH272448   1.103   6.628  12.825  0.4197 -0.6115 -0.2341
16986TIP3    H172449   1.136   6.579  12.749 -2.3157 -0.3660 -1.6479
16986TIP3    H272450   1.059   6.704  12.787 -2.2413 -1.2054  1.4797
16987TIP3   OH272451   4.773   5.950   0.340 -0.0270  0.2750 -0.0266
16987TIP3    H172452   4.703   5.999   0.384 -1.2740 -1.0231 -0.5224
16987TIP3    H272453   4.743   5.859   0.342  1.5159 -0.2575 -0.5256
16988TIP3   OH272454   4.604   6.266   6.248 -0.3483 -0.8054  0.3732
16988TIP3    H172455   4.538   6.288   6.182  0.8284  1.4211 -0.1142
16988TIP3    H272456   4.662   6.204   6.205 -1.6870 -2.2214  0.5687
16989TIP3   OH272457   3.434   4.192   0.555  0.5012 -0.1045  0.7383
16989TIP3    H172458   3.524   4.177   0.525  1.0096 -0.5807  2.3929
16989TIP3    H272459   3.403   4.106   0.582  0.5625  0.4690  2.7792
16990TIP3   OH272460   5.796   3.388  14.717  0.2024 -0.1517 -0.0935
16990TIP3    H172461   5.736   3.365  14.788 -0.0474  0.3020 -0.1517
16990TIP3    H272462   5.865   3.322  14.721 -0.5622 -0.9903 -0.3472
16991TIP3   OH272463   0.791   1.651   0.771 -0.0631 -0.7930  0.8610
16991TIP3    H172464   0.741   1.690   0.700  2.0030 -0.2548 -0.3208
16991TIP3    H272465   0.790   1.557   0.752 -1.0157 -0.8475  1.1241
16992TIP3   OH272466   2.500   0.789  12.377 -0.3794 -0.3952 -0.2309
16992TIP3    H172467   2.497   0.747  12.291  3.2822 -0.9517 -0.1628
16992TIP3    H272468   2.488   0.882  12.359  0.3602 -0.5135 -1.3208
16993TIP3   OH272469   4.848   0.169   4.205 -0.0113  0.7699  0.2345
16993TIP3    H172470   4.822   0.203   4.290 -1.5346  0.0144  0.0832
16993TIP3    H272471   4.809   0.081   4.201  0.4445  0.6113 -1.0495
16994TIP3   OH272472   3.165   2.292  13.095  0.0992  0.2596  0.5661
16994TIP3    H172473   3.157   2.386  13.108  0.3002  0.7946 -2.8673
16994TIP3    H272474   3.079   2.257  13.119  0.2407  1.1644  2.5462
16995TIP3   OH272475   4.465   3.621   0.666  0.3146  0.2279  0.0716
16995TIP3    H172476   4.458   3.675   0.587 -1.1096 -0.2819 -0.1684
16995TIP3    H272477   4.403   3.660   0.727 -0.0766 -0.5977  0.2073
16996TIP3   OH272478   3.129   0.604  17.171 -0.1644 -0.2000 -0.1833
16996TIP3    H172479   3.037   0.626  17.160  0.0790 -0.0570 -2.0514
16996TIP3    H272480   3.176   0.662  17.112  1.3274  1.0695  2.1477
16997TIP3   OH272481   6.137   1.436   5.596  0.1747 -0.1573 -0.4078
16997TIP3    H172482   6.213   1.494   5.592 -1.3276  1.9463  0.5337
16997TIP3    H272483   6.141   1.399   5.684  0.5702 -0.7252 -0.6589
16998TIP3   OH272484   4.207   5.017  13.137  0.2876 -0.1412 -0.2995
16998TIP3    H172485   4.282   5.058  13.095  2.0684 -2.4952  0.4347
16998TIP3    H272486   4.194   4.935  13.089 -1.2093 -0.2091  0.1954
16999TIP3   OH272487   5.982   3.878  12.480  0.1600 -0.3386  0.0471
16999TIP3    H172488   5.957   3.895  12.571 -0.2945 -2.2998  0.3209
16999TIP3    H272489   6.061   3.823  12.487  0.6765  0.2856 -0.7609
17000TIP3   OH272490   2.548   4.649  14.780  0.3017 -0.5621  0.4269
17000TIP3    H172491   2.586   4.578  14.729  0.1844  0.0454 -0.5044
17000TIP3    H272492   2.619   4.680  14.835  0.7943 -0.3084 -0.3538
17001TIP3   OH272493   3.820   2.474   2.326  0.3798 -0.5776  0.4399
17001TIP3    H172494   3.814   2.379   2.338 -0.8655 -0.5580 -0.0132
17001TIP3    H272495   3.746   2.510   2.375  0.1285  0.0746 -0.4095
17002TIP3   OH272496   5.182   6.496  12.996  0.4508  0.1212  0.6501
17002TIP3    H172497   5.239   6.480  13.070  0.1161  0.4493  0.9861
17002TIP3    H272498   5.111   6.433  13.005  2.4054 -2.5313 -1.5789
17003TIP3   OH272499   3.086   4.081   6.123  0.2201 -0.1123  0.0725
17003TIP3    H172500   3.123   4.159   6.165  1.0424  0.0701 -0.9679
17003TIP3    H272501   3.108   4.009   6.183  0.2652  0.3221  0.5828
17004TIP3   OH272502   5.610   6.517  11.544 -0.2316 -0.0034  0.3007
17004TIP3    H172503   5.644   6.535  11.632  1.0144 -0.2652 -0.1099
17004TIP3    H272504   5.561   6.595  11.520 -1.2991 -0.2659  1.5646
17005TIP3   OH272505   3.047   1.451  13.369 -0.1763 -0.2183 -0.3589
17005TIP3    H172506   3.034   1.435  13.462  0.5779 -1.6177 -0.4789
17005TIP3    H272507   2.964   1.487  13.339 -1.5550 -2.7740  0.2260
17006TIP3   OH272508   4.794   3.465   3.085 -0.8800 -0.1876  0.5427
17006TIP3    H172509   4.870   3.486   3.139 -0.0566 -2.6693  0.4028
17006TIP3    H272510   4.811   3.377   3.053 -2.8671  0.0162 -1.1757
17007TIP3   OH272511   4.333   6.466   1.769  0.4742 -0.0232  0.1963
17007TIP3    H172512   4.365   6.450   1.681  2.1571  1.7595  0.4588
17007TIP3    H272513   4.266   6.398   1.783  1.5430 -1.5215 -1.7165
17008TIP3   OH272514   3.868   2.669  16.421 -0.7191  0.2189  0.1585
17008TIP3    H172515   3.894   2.704  16.336 -0.4367  1.3306  0.6882
17008TIP3    H272516   3.941   2.611  16.446 -1.2028 -0.7835 -0.7332
17009TIP3   OH272517   2.336   3.580   2.488  0.3893 -0.2199  0.1584
17009TIP3    H172518   2.275   3.596   2.560  1.0273  0.2938  0.5885
17009TIP3    H272519   2.285   3.530   2.424 -0.2962 -0.3358  0.7893
17010TIP3   OH272520   5.942   6.041  15.304  0.9734  0.2585  0.4162
17010TIP3    H172521   6.036   6.060  15.312  0.8981  0.1482  1.6636
17010TIP3    H272522   5.916   6.083  15.223  2.8272 -2.5875 -1.7728
17011TIP3   OH272523   1.141   5.757  11.855 -0.2665  0.1239 -0.5717
17011TIP3    H172524   1.145   5.791  11.944  0.7532  1.3267 -1.0661
17011TIP3    H272525   1.058   5.791  11.820 -0.3016  0.2868 -0.3323
17012TIP3   OH272526   3.155   3.664  15.356 -0.2688 -0.1756  0.3887
17012TIP3    H172527   3.154   3.746  15.405 -1.4745 -0.0554  0.1699
17012TIP3    H272528   3.196   3.601  15.416 -1.2087  0.1040  1.3240
17013TIP3   OH272529   1.163   1.467   1.809  0.0956  0.3989  0.0310
17013TIP3    H172530   1.104   1.469   1.734 -0.1845 -1.0271  0.1957
17013TIP3    H272531   1.217   1.390   1.795  0.1965  0.2545  1.1726
17014TIP3   OH272532   5.589   4.946  14.392 -0.0614  0.0695  0.2143
17014TIP3    H172533   5.632   4.974  14.311  0.5631  1.5553  1.0363
17014TIP3    H272534   5.639   4.870  14.422 -1.1961 -1.4126 -1.5466
17015TIP3   OH272535   2.567   6.287  12.060  0.1566 -0.2566 -0.1002
17015TIP3    H172536   2.534   6.232  11.988  0.6804 -0.1627 -0.4113
17015TIP3    H272537   2.488   6.310  12.110 -0.2281 -0.2353 -0.7067
17016TIP3   OH272538   1.581   5.112  10.322 -0.1802  0.2699 -0.4277
17016TIP3    H172539   1.527   5.035  10.337  1.0106 -0.8867 -1.8704
17016TIP3    H272540   1.671   5.080  10.328  0.3336  1.1487 -2.7158
17017TIP3   OH272541   0.247   5.763   1.073 -1.0399 -0.4758 -0.1537
17017TIP3    H172542   0.157   5.795   1.066 -0.9933 -0.6653 -1.7575
17017TIP3    H272543   0.297   5.840   1.099 -1.7633 -0.5332  1.4844
17018TIP3   OH272544   6.415   0.645  13.674  0.5754  0.0513  0.7486
17018TIP3    H172545   6.490   0.642  13.615  0.4531  0.2058  0.5831
17018TIP3    H272546   6.392   0.738  13.680  0.5169  0.0253  0.9480
17019TIP3   OH272547   1.247   0.816   1.198 -1.3673  0.1163  1.1553
17019TIP3    H172548   1.163   0.802   1.154 -0.9807 -0.5510  0.6261
17019TIP3    H272549   1.271   0.906   1.176 -1.5566  0.0445  0.6546
17020TIP3   OH272550   6.555   2.536  10.676 -0.6094  0.2616 -0.3109
17020TIP3    H172551   6.524   2.485  10.601  2.1643 -4.0533  1.2277
17020TIP3    H272552   6.503   2.505  10.750  0.7545  0.0024  0.5690
17021TIP3   OH272553   4.264   4.495  13.692  0.4742  0.6417  0.4454
17021TIP3    H172554   4.336   4.477  13.631  0.4138  0.0281  0.5601
17021TIP3    H272555   4.286   4.445  13.770 -1.4182 -1.7152 -0.4730
17022TIP3   OH272556   2.138   5.544   1.953 -0.4960  0.7063 -0.0976
17022TIP3    H172557   2.049   5.546   1.986 -1.8923 -0.5796 -3.5256
17022TIP3    H272558   2.153   5.631   1.918 -0.2933  0.9928  0.6882
17023TIP3   OH272559   3.979   5.009   1.621  0.3107 -0.4782  0.0072
17023TIP3    H172560   3.919   5.011   1.696 -0.0135  0.1529 -0.2661
17023TIP3    H272561   3.923   5.020   1.545  0.4754 -2.4389 -0.4421
17024TIP3   OH272562   1.707   4.348  11.313 -0.3812 -0.1637 -0.0005
17024TIP3    H172563   1.796   4.364  11.283  0.0010 -1.6259  0.3431
17024TIP3    H272564   1.655   4.415  11.268  0.8119  0.4186 -0.5402
17025TIP3   OH272565   6.245   2.542   3.538 -0.4097 -0.7335  0.4583
17025TIP3    H172566   6.220   2.450   3.532 -0.0692 -0.7707 -0.4141
17025TIP3    H272567   6.165   2.589   3.513 -0.4744 -0.7904  0.5544
17026TIP3   OH272568   5.632   3.091   4.211 -0.0001  0.3818  0.7368
17026TIP3    H172569   5.703   3.102   4.275  1.1827  3.3327 -0.9742
17026TIP3    H272570   5.552   3.107   4.261  0.6243 -1.1844  2.2997
17027TIP3   OH272571   6.026   3.589   5.153 -0.0462 -0.7727  0.1023
17027TIP3    H172572   5.970   3.542   5.091 -1.1213  1.0208 -0.3109
17027TIP3    H272573   6.115   3.578   5.118 -0.6192  0.0239 -1.6351
17028TIP3   OH272574   1.612   4.622  16.190  0.1841  0.1910  0.0513
17028TIP3    H172575   1.643   4.587  16.107 -0.3115 -0.5139  0.1593
17028TIP3    H272576   1.656   4.569  16.257  0.1150  0.3540  0.2304
17029TIP3   OH272577   4.507   5.620  14.617 -0.4059 -0.0165 -0.2892
17029TIP3    H172578   4.530   5.601  14.526 -2.0062  0.0095 -0.7109
17029TIP3    H272579   4.527   5.713  14.628  0.4193 -0.1752 -0.4046
17030TIP3   OH272580   5.134   5.004   2.746  0.0533 -0.7771  0.1137
17030TIP3    H172581   5.044   5.037   2.741 -0.0238 -0.8579  0.8263
17030TIP3    H272582   5.187   5.071   2.705 -0.0491  0.4666  1.9605
17031TIP3   OH272583   6.227   3.628  17.280  0.8296  0.3369  0.2564
17031TIP3    H172584   6.317   3.600  17.300  0.4926 -0.5692  0.5467
17031TIP3    H272585   6.172   3.557  17.315  0.1012 -0.0782 -1.6980
17032TIP3   OH272586   0.001   1.482   4.025  0.1980  0.6393 -0.1293
17032TIP3    H172587   0.087   1.440   4.036  0.6364  0.9362 -2.2048
17032TIP3    H272588   0.009   1.565   4.072  1.2091  0.8440 -0.6427
17033TIP3   OH272589   4.186   1.634   0.332  0.7613 -0.4727  0.7854
17033TIP3    H172590   4.098   1.645   0.366 -0.6569 -0.6806 -2.5784
17033TIP3    H272591   4.221   1.723   0.325  1.2304 -0.4589  3.0477
17034TIP3   OH272592   3.970   2.840  11.309  0.0761 -0.0631 -0.2582
17034TIP3    H172593   4.053   2.806  11.342  0.2418  1.1123  0.5739
17034TIP3    H272594   3.982   2.847  11.214  0.8418 -0.1367 -0.1700
17035TIP3   OH272595   4.684   3.108   0.342 -0.4492 -0.4450  0.6144
17035TIP3    H172596   4.699   3.013   0.340  0.7938 -0.2193 -2.8693
17035TIP3    H272597   4.596   3.119   0.307 -0.2234 -0.2387  0.1149
17036TIP3   OH272598   5.483   6.137   1.863 -0.3275  0.4168  0.5560
17036TIP3    H172599   5.467   6.228   1.889 -1.0936  0.0085  1.5183
17036TIP3    H272600   5.444   6.084   1.932  2.4056 -0.6441  1.3493
17037TIP3   OH272601   5.661   5.183   5.272 -0.2502 -0.2267 -0.5894
17037TIP3    H172602   5.694   5.272   5.281 -0.7612 -0.0392 -0.5438
17037TIP3    H272603   5.739   5.130   5.256  0.4353 -0.2403  2.4731
17038TIP3   OH272604   1.430   1.564  11.767  0.5861 -0.0370  0.1044
17038TIP3    H172605   1.482   1.622  11.822  0.7533  1.4860 -1.5830
17038TIP3    H272606   1.348   1.612  11.753  0.4034 -0.5644 -0.6514
17039TIP3   OH272607   2.226   5.442  14.412  0.0628 -0.2234 -0.2048
17039TIP3    H172608   2.192   5.419  14.499 -0.1531  1.9337  0.2950
17039TIP3    H272609   2.242   5.357  14.370 -2.2508 -1.2964  0.9845
17040TIP3   OH272610   1.469   5.345  13.785 -0.7253  0.1706 -0.1641
17040TIP3    H172611   1.400   5.280  13.775 -0.3293 -0.6074  2.0180
17040TIP3    H272612   1.426   5.429  13.767 -1.3966 -0.6038 -2.2857
17041TIP3   OH272613   6.043   0.278   1.812 -0.4492 -0.4206  0.0207
17041TIP3    H172614   5.965   0.280   1.757 -0.1954  2.0657 -0.2758
17041TIP3    H272615   6.042   0.361   1.859  2.1936 -0.2238 -0.1983
17042TIP3   OH272616   0.321   6.442  12.575 -0.3815  0.3622  0.3144
17042TIP3    H172617   0.412   6.422  12.552 -0.1580  3.0246 -1.4288
17042TIP3    H272618   0.328   6.516  12.637 -1.3276 -0.4777  1.4523
17043TIP3   OH272619   3.788   5.615  16.978 -0.1689  0.3957 -0.3884
17043TIP3    H172620   3.862   5.643  17.031  1.0962 -1.4040 -1.1739
17043TIP3    H272621   3.768   5.692  16.924  1.1925  0.8704 -0.2459
17044TIP3   OH272622   3.968   5.567  14.913  0.5961 -0.4180 -0.1908
17044TIP3    H172623   4.003   5.645  14.957 -1.0076 -0.3587  0.9995
17044TIP3    H272624   3.873   5.578  14.915  0.4460 -0.7431 -3.1085
17045TIP3   OH272625   5.675   2.258   4.299  0.4578 -0.4413 -0.4761
17045TIP3    H172626   5.718   2.328   4.249  1.1685 -0.1469  0.5305
17045TIP3    H272627   5.584   2.263   4.271  0.6437  0.3867 -0.9896
17046TIP3   OH272628   5.699   3.066  15.483  0.5450  0.9826 -0.4915
17046TIP3    H172629   5.635   3.136  15.473 -0.0299  0.6059  0.4791
17046TIP3    H272630   5.724   3.043  15.394 -0.3814  1.4031 -0.8605
17047TIP3   OH272631   6.665   0.760   0.881 -0.0904 -0.0812 -0.0866
17047TIP3    H172632   6.690   0.765   0.789  0.6709  0.2645  0.1379
17047TIP3    H272633   6.609   0.837   0.894  0.2300  0.1586 -0.1286
17048TIP3   OH272634   0.224   5.044  16.143  0.1925 -0.1451 -0.2852
17048TIP3    H172635   0.132   5.069  16.127 -0.2972 -1.7969 -0.1666
17048TIP3    H272636   0.274   5.095  16.079 -0.4960  2.9932  1.6007
17049TIP3   OH272637   0.673   0.365   0.239 -0.1807 -0.5151 -0.5185
17049TIP3    H172638   0.643   0.289   0.288 -1.7971 -0.9246 -2.0919
17049TIP3    H272639   0.762   0.341   0.211  0.5468 -0.5007  1.6650
17050TIP3   OH272640   4.569   3.534  13.729 -0.0373 -0.1656  0.1063
17050TIP3    H172641   4.546   3.465  13.791  0.1779 -0.6255 -0.3260
17050TIP3    H272642   4.493   3.593  13.730 -0.6346 -0.9161 -0.2370
17051TIP3   OH272643   6.392   2.988   4.827  0.1831 -0.6270 -0.8560
17051TIP3    H172644   6.408   2.908   4.877 -0.1590 -1.0884 -1.4843
17051TIP3    H272645   6.297   2.990   4.814  0.2176 -0.2489 -1.0564
17052TIP3   OH272646   1.512   5.807   3.985 -0.1421  1.0274  0.0977
17052TIP3    H172647   1.466   5.727   4.010 -0.0137  0.1049 -2.4293
17052TIP3    H272648   1.601   5.778   3.964 -0.1555  1.7554 -1.0494
17053TIP3   OH272649   4.974   2.614  11.647 -0.5210 -0.1308  0.6121
17053TIP3    H172650   4.941   2.565  11.571 -0.9986 -0.7740  1.2267
17053TIP3    H272651   4.923   2.696  11.646  1.0638  0.8889 -1.0705
17054TIP3   OH272652   5.935   3.787   5.634  0.1616  0.0968  0.0252
17054TIP3    H172653   5.990   3.745   5.568 -0.8784 -2.1577  0.5623
17054TIP3    H272654   5.847   3.753   5.617 -0.3772  0.6763  1.6118
17055TIP3   OH272655   5.158   1.720   6.125  0.3775 -0.5080 -0.0585
17055TIP3    H172656   5.232   1.679   6.081 -0.4051 -2.2657  0.2311
17055TIP3    H272657   5.110   1.648   6.164 -1.0076  0.6946  0.5096
17056TIP3   OH272658   1.711   3.576   2.016  0.3468  0.0849  0.4361
17056TIP3    H172659   1.629   3.549   1.977 -0.1381  1.8480  0.1836
17056TIP3    H272660   1.743   3.499   2.063 -1.7326 -0.4375  1.0195
17057TIP3   OH272661   5.338   3.046   1.598  0.1578 -0.0865  0.1650
17057TIP3    H172662   5.423   3.089   1.608 -0.0489  0.3009  0.2780
17057TIP3    H272663   5.276   3.106   1.640 -0.1993 -0.2624 -0.1103
17058TIP3   OH272664   6.013   2.051  14.140  0.0733  0.3735  0.1026
17058TIP3    H172665   5.974   2.105  14.209 -1.0129 -0.4695  0.1553
17058TIP3    H272666   6.105   2.042  14.166 -0.2800  0.2192  1.3561
17059TIP3   OH272667   5.304   1.708  17.026  0.0827  0.1054  0.3284
17059TIP3    H172668   5.258   1.658  17.093  1.3360 -0.9900  0.4060
17059TIP3    H272669   5.235   1.744  16.970 -0.9154 -0.0774  1.4332
17060TIP3   OH272670   1.257   6.696  15.632 -0.4726  0.1526 -0.6264
17060TIP3    H172671   1.283   6.651  15.712 -0.8239  0.2452 -0.4599
17060TIP3    H272672   1.178   6.744  15.656 -1.7102 -1.3835 -1.5148
17061TIP3   OH272673   6.629   6.334  16.873  0.5764 -0.1357 -0.6955
17061TIP3    H172674   6.628   6.266  16.805  0.9219 -0.0124 -0.8223
17061TIP3    H272675   6.710   6.382  16.858  1.5162 -1.1904  0.8935
17062TIP3   OH272676   3.411   2.945  16.548 -0.1218  0.8929 -0.6010
17062TIP3    H172677   3.432   2.971  16.458  1.5686 -2.0657 -1.1212
17062TIP3    H272678   3.496   2.927  16.588 -1.0916 -1.8650  0.2965
17063TIP3   OH272679   2.689   5.472  13.398  0.2007  0.3762  0.4955
17063TIP3    H172680   2.733   5.408  13.454  1.1628  0.7889  0.2269
17063TIP3    H272681   2.750   5.545  13.392 -0.0799  0.5309 -0.7075
17064TIP3   OH272682   3.135   5.755  11.770  0.6163 -0.2961  0.0430
17064TIP3    H172683   3.111   5.672  11.812 -1.3582  1.7024  3.1005
17064TIP3    H272684   3.053   5.787  11.733  0.4674  2.1159  2.3218
17065TIP3   OH272685   4.295   5.383  10.618 -0.0100 -0.3231 -0.1145
17065TIP3    H172686   4.261   5.457  10.668  0.1260 -0.5207  0.2716
17065TIP3    H272687   4.218   5.340  10.581  0.0096  1.1995 -2.0349
17066TIP3   OH272688   5.789   5.046  10.579  0.0972  0.0321 -0.0066
17066TIP3    H172689   5.795   5.127  10.629 -1.9008 -0.5434  1.2256
17066TIP3    H272690   5.811   4.977  10.642 -2.9477 -0.7406  0.2607
17067TIP3   OH272691   0.379   3.035  11.437 -0.0414  0.1335 -0.2339
17067TIP3    H172692   0.401   2.970  11.370 -0.0801 -0.3493  0.2232
17067TIP3    H272693   0.432   3.112  11.413  0.9256 -0.4768 -0.0712
17068TIP3   OH272694   6.616   2.737   0.903 -0.3621  0.1040  0.3587
17068TIP3    H172695   6.608   2.827   0.873 -0.5073  0.2713  0.8951
17068TIP3    H272696   6.681   2.698   0.845  1.1134  1.0822  1.3308
17069TIP3   OH272697   2.283   4.827   4.241  0.0533 -0.3734 -0.2757
17069TIP3    H172698   2.215   4.769   4.276  0.6039 -2.0954 -2.0111
17069TIP3    H272699   2.257   4.914   4.271 -1.3134 -1.3726  1.5612
17070TIP3   OH272700   5.419   2.106  15.141 -0.0794 -0.0338 -0.4301
17070TIP3    H172701   5.498   2.159  15.151 -0.3004  0.1219  0.5404
17070TIP3    H272702   5.412   2.091  15.047  0.3358  1.1158 -0.6475
17071TIP3   OH272703   3.720   2.999   4.168  0.0116  0.2293  0.1255
17071TIP3    H172704   3.747   2.928   4.225 -0.5203  0.6954  0.9663
17071TIP3    H272705   3.761   2.979   4.084  0.6486 -0.5546  0.6168
17072TIP3   OH272706   1.212   5.223  15.178  0.2789  0.1821 -0.0674
17072TIP3    H172707   1.258   5.215  15.094  1.1652  0.4714  0.3814
17072TIP3    H272708   1.122   5.244  15.154  0.3307 -0.6062 -0.9704
17073TIP3   OH272709   0.012   3.301  15.572 -0.5221  0.0259 -0.1425
17073TIP3    H172710   0.099   3.268  15.591 -0.7059 -1.3331 -1.5568
17073TIP3    H272711   0.023   3.395  15.563  0.4353  0.0974  1.6106
17074TIP3   OH272712   1.499   4.957  12.230 -0.1064  0.1894 -0.6248
17074TIP3    H172713   1.477   4.988  12.317 -0.5407 -0.7204 -0.4031
17074TIP3    H272714   1.528   5.035  12.183  0.3322  0.6422  0.3903
17075TIP3   OH272715   4.767   3.730   5.552  0.5031  0.3965  0.4084
17075TIP3    H172716   4.854   3.692   5.566 -0.2333 -1.7144 -0.5940
17075TIP3    H272717   4.731   3.738   5.641  0.5380 -1.6493  0.6420
17076TIP3   OH272718   0.347   0.934   2.516 -0.1024  0.2114  0.0184
17076TIP3    H172719   0.388   0.999   2.573 -0.8566  0.7912 -0.1043
17076TIP3    H272720   0.257   0.963   2.506 -0.7669 -1.4728  0.8999
17077TIP3   OH272721   1.415   6.213   4.925 -0.5139  0.4827 -0.2117
17077TIP3    H172722   1.464   6.131   4.936  1.0723  1.0620 -2.5121
17077TIP3    H272723   1.365   6.223   5.006 -0.2819 -2.4596  0.3485
17078TIP3   OH272724   2.672   2.033  15.625  0.1288 -0.4704  0.4637
17078TIP3    H172725   2.684   2.081  15.543 -1.1267 -2.8245 -1.1960
17078TIP3    H272726   2.588   2.063  15.658 -0.5911 -1.3558 -0.5031
17079TIP3   OH272727   3.130   2.018  14.175  0.2114 -0.2610 -0.4321
17079TIP3    H172728   3.200   2.063  14.224 -0.2956  0.6047 -0.4942
17079TIP3    H272729   3.079   1.973  14.242 -1.0927  1.7481 -0.0046
17080TIP3   OH272730   3.756   4.806   1.462  0.2023  0.2319 -0.6034
17080TIP3    H172731   3.770   4.807   1.556 -0.2532 -0.8538 -0.5189
17080TIP3    H272732   3.692   4.876   1.446 -0.8920 -0.5877  0.0945
17081TIP3   OH272733   4.750   3.228   3.928  0.0651 -0.9224 -0.1573
17081TIP3    H172734   4.751   3.320   3.900 -2.5182 -0.2731  1.6628
17081TIP3    H272735   4.841   3.208   3.948  0.4442  1.7701  1.0448
17082TIP3   OH272736   2.124   2.791   4.087  0.4491 -0.1294  0.3954
17082TIP3    H172737   2.125   2.696   4.088  0.0892 -0.1422 -0.2027
17082TIP3    H272738   2.076   2.816   4.167 -1.0992 -0.4873 -0.3987
17083TIP3   OH272739   3.129   4.486   3.018 -0.1772 -0.3532  0.1014
17083TIP3    H172740   3.043   4.516   2.987 -0.4446  0.6000  1.6922
17083TIP3    H272741   3.110   4.435   3.097  0.7648  0.6362  0.9982
17084TIP3   OH272742   6.467   6.249  15.053  0.1716  0.4781 -0.4312
17084TIP3    H172743   6.398   6.193  15.087 -0.4100  0.1842 -2.0311
17084TIP3    H272744   6.532   6.187  15.017  0.4411  0.7812 -0.4689
17085TIP3   OH272745   1.282   1.404   5.246 -0.3168 -0.5081 -0.0794
17085TIP3    H172746   1.357   1.377   5.298  0.7850  0.4040 -1.1714
17085TIP3    H272747   1.206   1.369   5.293  0.7891 -1.4963  0.9826
17086TIP3   OH272748   6.096   4.852  13.306  0.7122  0.5020 -0.8808
17086TIP3    H172749   6.116   4.759  13.297  1.0605  0.7144 -2.5246
17086TIP3    H272750   6.060   4.877  13.221 -1.0342  1.4748  0.1165
17087TIP3   OH272751   6.669   1.593  13.437  0.0807  0.6188 -0.0822
17087TIP3    H172752   6.638   1.513  13.394 -1.8218  1.5952 -0.5575
17087TIP3    H272753   6.705   1.562  13.521 -0.4979 -0.7510 -0.3226
17088TIP3   OH272754   1.024   2.299   1.480  0.1652 -0.0737  0.2891
17088TIP3    H172755   0.941   2.270   1.516  0.8308 -0.7917  1.2759
17088TIP3    H272756   1.059   2.359   1.545 -0.8465  2.3910 -1.3934
17089TIP3   OH272757   6.319   5.074  14.807 -0.3592 -0.0588 -0.6239
17089TIP3    H172758   6.231   5.069  14.771 -1.0267 -0.1338  0.9953
17089TIP3    H272759   6.375   5.090  14.731 -1.6435 -1.0256 -1.7933
17090TIP3   OH272760   2.481   2.579   5.056  0.0585 -0.7660  0.4680
17090TIP3    H172761   2.464   2.558   5.148 -2.4811  2.6078  0.8921
17090TIP3    H272762   2.515   2.669   5.058 -0.2070 -0.5792 -1.8975
17091TIP3   OH272763   3.836   2.571  12.066  0.0391 -0.0856  0.2129
17091TIP3    H172764   3.804   2.647  12.114 -0.4103 -0.2729  0.2084
17091TIP3    H272765   3.826   2.497  12.126  1.4132  0.0226  0.5772
17092TIP3   OH272766   3.315   3.088   3.586  0.5240  0.0667 -0.2564
17092TIP3    H172767   3.372   3.101   3.662  0.8500 -2.4143 -0.0350
17092TIP3    H272768   3.350   3.010   3.543 -0.4520  0.6798 -2.2405
17093TIP3   OH272769   0.532   1.122  16.986 -0.4407 -0.5740 -0.6238
17093TIP3    H172770   0.461   1.060  16.969  0.5263 -1.7600 -0.4172
17093TIP3    H272771   0.552   1.112  17.079  0.5872 -0.9221 -0.8631
17094TIP3   OH272772   6.586   6.155   4.575  0.1060 -0.0100 -0.2776
17094TIP3    H172773   6.609   6.080   4.522 -0.9369 -0.5051 -0.0301
17094TIP3    H272774   6.511   6.195   4.531  0.5341  0.7753 -0.3090
17095TIP3   OH272775   3.177   1.641  11.983 -0.6204  0.1915 -0.0912
17095TIP3    H172776   3.204   1.610  11.897 -0.5310 -0.5747  0.2074
17095TIP3    H272777   3.180   1.563  12.039 -3.8203 -0.0189 -0.1126
17096TIP3   OH272778   5.106   5.971  11.463 -0.4722 -0.5400 -0.0994
17096TIP3    H172779   5.148   5.958  11.378 -0.5681  0.0638 -0.2467
17096TIP3    H272780   5.033   6.031  11.445  1.2238  1.9078  0.8753
17097TIP3   OH272781   1.205   0.599   4.225 -0.2372 -0.2617 -0.0947
17097TIP3    H172782   1.161   0.618   4.142 -1.0323 -1.9290 -0.0760
17097TIP3    H272783   1.148   0.636   4.292  0.4730  1.2051 -0.2779
17098TIP3   OH272784   3.010   0.359  15.681  0.2986 -0.6039  0.0725
17098TIP3    H172785   3.012   0.395  15.770 -4.1185  1.4301 -0.5268
17098TIP3    H272786   2.917   0.348  15.662  1.1417 -1.0093 -4.3009
17099TIP3   OH272787   4.686   3.633  17.242  0.1588 -0.4069  0.1017
17099TIP3    H172788   4.772   3.672  17.259 -0.3216  1.2251 -1.0154
17099TIP3    H272789   4.678   3.563  17.306  1.9835 -0.0494  0.7537
17100TIP3   OH272790   5.675   6.375   1.927  0.1896 -0.1474  0.1621
17100TIP3    H172791   5.687   6.353   1.834  1.6153  0.2947  0.2155
17100TIP3    H272792   5.662   6.470   1.927 -0.2387 -0.2087  0.3721
17101TIP3   OH272793   5.140   5.683  12.189  0.6104 -0.1891 -0.3873
17101TIP3    H172794   5.093   5.600  12.196 -0.3565  0.4466  0.6796
17101TIP3    H272795   5.085   5.737  12.132  0.5823  0.1810 -0.0112
17102TIP3   OH272796   3.636   2.536   1.477 -0.4594 -0.2211  0.2324
17102TIP3    H172797   3.616   2.453   1.434 -0.4506 -0.1031  0.0036
17102TIP3    H272798   3.720   2.520   1.521 -1.4901 -1.0272  2.0030
17103TIP3   OH272799   5.488   5.842   2.876 -0.6552  0.0955 -0.0584
17103TIP3    H172800   5.561   5.890   2.835 -0.0876 -0.6386  0.0824
17103TIP3    H272801   5.531   5.771   2.923 -1.5556 -1.0231 -0.9188
17104TIP3   OH272802   0.217   2.258   1.667  0.1806  0.4775  0.0970
17104TIP3    H172803   0.217   2.333   1.727  1.6781  1.4204 -1.0766
17104TIP3    H272804   0.289   2.204   1.697 -1.4357 -0.9857  1.4898
17105TIP3   OH272805   6.659   0.243   2.158  0.0275  0.0517  0.3700
17105TIP3    H172806   6.702   0.295   2.090  0.7357  0.2845  0.9908
17105TIP3    H272807   6.697   0.274   2.240  1.1203 -2.0849  0.6933
17106TIP3   OH272808   4.641   3.734   5.797  0.0024 -0.7418  0.0970
17106TIP3    H172809   4.645   3.662   5.860  1.6787  0.8575  1.8923
17106TIP3    H272810   4.611   3.809   5.848  2.0474  0.7583 -0.8305
17107TIP3   OH272811   0.729   1.295  16.306 -0.8747 -0.3702 -0.1857
17107TIP3    H172812   0.729   1.222  16.368 -0.6966  0.5429  0.9044
17107TIP3    H272813   0.637   1.322  16.301 -0.7057  0.4059  0.7140
17108TIP3   OH272814   2.485   2.539   0.717  0.1331 -0.0514  0.7116
17108TIP3    H172815   2.455   2.464   0.768  2.4221  0.2108  2.5392
17108TIP3    H272816   2.567   2.565   0.759  1.1084  1.3890 -1.9576
17109TIP3   OH272817   3.013   0.705   3.957  0.5495 -0.2526  0.6141
17109TIP3    H172818   2.959   0.765   4.009 -0.9875 -1.1903  0.1490
17109TIP3    H272819   3.057   0.761   3.893  1.4774  0.7526  2.1003
17110TIP3   OH272820   4.727   1.934   1.618 -0.2066 -0.6326  0.1268
17110TIP3    H172821   4.768   2.009   1.661  1.3704 -1.5720  0.3009
17110TIP3    H272822   4.777   1.921   1.538  0.6523 -2.5542  0.9433
17111TIP3   OH272823   0.561   5.773   3.492 -0.1111 -0.2631  0.1547
17111TIP3    H172824   0.592   5.862   3.510  0.7567 -0.6266  0.4658
17111TIP3    H272825   0.515   5.781   3.408  0.2095  0.4239  0.0381
17112TIP3   OH272826   6.352   3.960   4.470  0.0709  0.0325 -0.0084
17112TIP3    H172827   6.330   4.048   4.441  0.2676  0.5674  1.4284
17112TIP3    H272828   6.375   3.970   4.562 -0.6013 -1.6222  0.3667
17113TIP3   OH272829   5.044   0.082  12.058 -0.6713 -0.6755  0.4577
17113TIP3    H172830   5.129   0.080  12.015  0.6692  2.7885  2.7846
17113TIP3    H272831   5.042   0.003  12.112  1.9965  0.2416  1.9816
17114TIP3   OH272832   5.052   4.338   0.105 -0.0145  0.0139  0.1985
17114TIP3    H172833   4.982   4.364   0.165  0.7085  0.4589  0.8661
17114TIP3    H272834   5.068   4.417   0.052 -0.7854 -0.4353 -0.7332
17115TIP3   OH272835   0.285   1.993  16.272 -0.0294 -0.1150  0.0071
17115TIP3    H172836   0.282   2.087  16.252 -0.0344  0.0382  0.7365
17115TIP3    H272837   0.375   1.967  16.252 -0.3489 -0.2234 -1.3862
17116TIP3   OH272838   2.007   5.544   1.166  0.3665  0.0331 -0.2650
17116TIP3    H172839   1.951   5.542   1.088 -0.5531  1.5679  0.3404
17116TIP3    H272840   1.980   5.468   1.217  0.1781 -0.3312 -0.9038
17117TIP3   OH272841   4.832   3.695   6.139 -0.0249 -0.0056  0.0043
17117TIP3    H172842   4.790   3.627   6.086  0.3608 -1.1689  1.1619
17117TIP3    H272843   4.769   3.766   6.140 -0.1629 -0.0894 -1.7569
17118TIP3   OH272844   3.533   5.651   5.254  0.3506  0.3649  0.6539
17118TIP3    H172845   3.511   5.589   5.185 -0.2954  0.5694  0.6655
17118TIP3    H272846   3.468   5.634   5.323  0.6204  0.5632  0.9582
17119TIP3   OH272847   6.569   1.277  14.278 -0.6547 -0.2976 -0.1151
17119TIP3    H172848   6.607   1.348  14.329  1.8666 -1.3690 -0.4481
17119TIP3    H272849   6.578   1.200  14.335 -2.1529 -0.6185 -0.2914
17120TIP3   OH272850   3.232   4.154   4.242  0.0105 -0.3301  0.8364
17120TIP3    H172851   3.302   4.205   4.283  1.2650 -2.1686  1.0611
17120TIP3    H272852   3.244   4.065   4.276 -1.4160 -1.0362 -0.4190
17121TIP3   OH272853   0.221   1.130   1.324  0.5600  0.5174 -0.8689
17121TIP3    H172854   0.164   1.189   1.274  1.0938  1.5142 -0.3111
17121TIP3    H272855   0.304   1.176   1.330  1.1241 -0.4951 -0.8111
17122TIP3   OH272856   0.643   3.105   4.768  0.1569 -0.0184 -0.3823
17122TIP3    H172857   0.659   3.064   4.683 -1.9309  0.2971 -0.9626
17122TIP3    H272858   0.629   3.032   4.828 -2.0254 -0.2147 -1.0978
17123TIP3   OH272859   1.088   0.159  11.138  0.1535 -0.5700  0.2540
17123TIP3    H172860   1.113   0.165  11.045  0.1689  0.6740  0.3290
17123TIP3    H272861   0.993   0.149  11.137 -0.1412  1.9057  0.1482
17124TIP3   OH272862   4.112   0.687   0.075  0.1541 -0.0527 -0.2048
17124TIP3    H172863   4.065   0.662  -0.005  1.3380  0.8252 -1.1884
17124TIP3    H272864   4.114   0.782   0.073 -0.9906  0.0339  1.5843
17125TIP3   OH272865   5.560   2.400  11.511 -0.7916 -0.1099  0.1790
17125TIP3    H172866   5.656   2.409  11.513 -1.0453  3.1439  1.4363
17125TIP3    H272867   5.535   2.432  11.424 -0.9553  2.5752  1.1628
17126TIP3   OH272868   0.380   2.633  12.638 -0.8250 -0.5791 -0.0735
17126TIP3    H172869   0.373   2.614  12.544 -0.9881 -3.2024  0.4428
17126TIP3    H272870   0.422   2.556  12.675  0.3638  0.9586  1.8556
17127TIP3   OH272871   1.551   0.086   4.335  0.5542 -0.2365 -0.2487
17127TIP3    H172872   1.621   0.050   4.389  0.3968 -0.8952 -0.4795
17127TIP3    H272873   1.593   0.103   4.250  0.2179 -1.5091 -0.6785
17128TIP3   OH272874   5.172   0.054  10.941  0.2773  0.3130  0.1403
17128TIP3    H172875   5.253   0.103  10.952 -0.4152  1.4523  0.2303
17128TIP3    H272876   5.151   0.024  11.030  0.9096 -0.4932  0.0231
17129TIP3   OH272877   5.014   0.268   3.311  0.3653 -0.0531  0.6408
17129TIP3    H172878   5.085   0.307   3.261 -0.4917 -1.4212 -1.6825
17129TIP3    H272879   4.957   0.341   3.333  2.1387  0.9706  2.0314
17130TIP3   OH272880   2.162   4.722  17.245 -0.4853 -0.5186  0.4623
17130TIP3    H172881   2.079   4.675  17.235 -1.0490  0.2558  1.4413
17130TIP3    H272882   2.201   4.721  17.157 -1.2662 -1.3646  0.1169
17131TIP3   OH272883   2.399   0.127   1.133 -0.0672 -0.0065  0.4045
17131TIP3    H172884   2.364   0.054   1.082 -0.0789 -0.5932  1.2281
17131TIP3    H272885   2.418   0.195   1.069  0.1295 -0.8110 -0.3992
17132TIP3   OH272886   6.009   4.652   3.099  0.0492 -0.1116  0.5314
17132TIP3    H172887   6.045   4.633   3.013 -0.7647 -0.8621  0.3559
17132TIP3    H272888   6.049   4.736   3.124  1.1120 -0.4323 -0.0992
17133TIP3   OH272889   1.957   2.946   0.294 -0.2412 -0.6033 -0.9335
17133TIP3    H172890   1.898   3.018   0.312 -2.2312 -1.9316 -1.9168
17133TIP3    H272891   2.023   2.982   0.234 -0.0066  0.8946  0.2074
17134TIP3   OH272892   6.385   5.599   2.477 -0.1506 -0.1026 -0.4216
17134TIP3    H172893   6.312   5.544   2.451  0.0893 -0.0297 -1.2562
17134TIP3    H272894   6.345   5.666   2.532 -0.3444 -1.4752  1.1457
17135TIP3   OH272895   6.159   2.268  12.311 -0.2921 -0.1953  0.3512
17135TIP3    H172896   6.087   2.321  12.278  0.7983  0.7274 -0.5573
17135TIP3    H272897   6.173   2.201  12.244 -0.0341 -0.1220  0.3299
17136TIP3   OH272898   0.206   5.788   4.074 -0.5004 -0.1436 -0.5933
17136TIP3    H172899   0.139   5.720   4.070 -0.7019 -0.1200  1.4280
17136TIP3    H272900   0.252   5.783   3.991 -0.4507 -2.7968 -0.4347
17137TIP3   OH272901   6.629   4.642   1.530  0.1642 -0.1323  0.1594
17137TIP3    H172902   6.614   4.716   1.471  0.5260 -0.1991 -0.0174
17137TIP3    H272903   6.618   4.564   1.474 -1.2351 -0.2438  0.5681
17138TIP3   OH272904   0.720   4.477   5.602  0.1760 -0.0540  0.1273
17138TIP3    H172905   0.747   4.413   5.537  0.5066 -0.2944  0.5005
17138TIP3    H272906   0.770   4.556   5.580 -0.3394  0.1186 -0.4188
17139TIP3   OH272907   1.354   3.132   6.256 -0.0858  0.1051  0.4124
17139TIP3    H172908   1.427   3.150   6.316  0.0331  1.2252 -0.0640
17139TIP3    H272909   1.349   3.210   6.200 -0.4201 -0.7907 -0.8162
17140TIP3   OH272910   5.725   3.917  12.377 -0.0929 -0.5677  0.8538
17140TIP3    H172911   5.733   4.011  12.360 -0.8180 -0.7708 -0.6835
17140TIP3    H272912   5.812   3.890  12.405  1.0862 -0.0745 -2.1028
17141TIP3   OH272913   0.768   3.901  14.407  0.6836  0.1847  0.3912
17141TIP3    H172914   0.746   3.954  14.330  0.1177 -1.0182 -0.2788
17141TIP3    H272915   0.855   3.931  14.432  1.3639 -0.2250 -1.4204
17142TIP3   OH272916   6.008   3.614  15.458 -0.5458  1.1023 -0.0579
17142TIP3    H172917   6.097   3.585  15.438 -0.9436  1.2921 -2.2440
17142TIP3    H272918   5.984   3.565  15.536  1.3051  0.7104  0.2976
17143TIP3   OH272919   3.281   5.944  16.658 -0.0698 -0.5210  0.2945
17143TIP3    H172920   3.372   5.933  16.685  0.0462 -2.3087 -0.7652
17143TIP3    H272921   3.283   5.939  16.563 -1.4632 -2.0774  0.3287
17144TIP3   OH272922   3.420   5.712  11.795  0.2727  0.5248  0.0457
17144TIP3    H172923   3.345   5.749  11.840 -0.5847 -0.9882 -0.0893
17144TIP3    H272924   3.386   5.687  11.709  0.8919 -0.2567  0.0206
17145TIP3   OH272925   2.633   4.048   2.855 -0.7871 -0.9896 -0.0492
17145TIP3    H172926   2.712   4.093   2.826 -2.7110 -0.2163 -4.6641
17145TIP3    H272927   2.591   4.109   2.915 -1.1623  1.5725 -2.8143
17146TIP3   OH272928   2.232   3.780   0.326  0.1395 -0.6677  0.8766
17146TIP3    H172929   2.325   3.797   0.310  0.3015 -1.3990  1.0211
17146TIP3    H272930   2.189   3.863   0.309  0.7381 -0.5141  0.1020
17147TIP3   OH272931   0.135   2.983  15.203 -0.0157 -0.0804  0.2597
17147TIP3    H172932   0.050   3.025  15.187 -0.4384 -1.5139 -1.4613
17147TIP3    H272933   0.128   2.898  15.159  2.3591 -0.1622 -0.0207
17148TIP3   OH272934   5.843   6.519   0.284 -0.6209  0.4110 -0.1652
17148TIP3    H172935   5.925   6.478   0.258  0.4126  0.7662  2.4113
17148TIP3    H272936   5.857   6.613   0.269 -1.6760  0.2250 -2.5785
17149TIP3   OH272937   4.192   5.105   1.796 -0.4053 -0.5258 -0.7557
17149TIP3    H172938   4.273   5.133   1.754  0.0312 -0.1896  0.3070
17149TIP3    H272939   4.123   5.153   1.749 -0.0286 -1.0411 -1.8574
17150TIP3   OH272940   2.923   4.030  13.526  0.3335 -0.5723  0.2248
17150TIP3    H172941   2.887   3.941  13.515 -0.3268 -0.2192 -0.4894
17150TIP3    H272942   3.001   4.017  13.580  0.9448 -1.7430 -0.8945
17151TIP3   OH272943   3.928   0.026  13.475  0.0004 -0.6099  0.4630
17151TIP3    H172944   3.888  -0.048  13.428 -2.4103  1.0509 -0.1860
17151TIP3    H272945   3.896   0.018  13.565 -2.0918  0.8576 -0.1125
17152TIP3   OH272946   3.456   5.659   5.749 -0.3379  0.4007 -0.3815
17152TIP3    H172947   3.503   5.672   5.832  0.1206  1.5232 -0.8043
17152TIP3    H272948   3.439   5.565   5.746 -0.0435  0.2904  0.8166
17153TIP3   OH272949   2.199   5.640   2.288  0.4721 -0.3596  0.1067
17153TIP3    H172950   2.225   5.704   2.354 -1.5385  0.6169 -0.0033
17153TIP3    H272951   2.105   5.653   2.279  0.1107 -3.0677 -0.2213
17154TIP3   OH272952   0.006   0.222  16.492  0.4135 -0.0714  0.4764
17154TIP3    H172953  -0.019   0.188  16.406  0.7067 -0.5155  0.5664
17154TIP3    H272954  -0.074   0.260  16.528  0.1461 -0.4305  0.2652
17155TIP3   OH272955   0.686   5.562  16.916  0.7313 -0.3205 -0.2120
17155TIP3    H172956   0.680   5.552  17.011  0.5597  0.0474 -0.1819
17155TIP3    H272957   0.638   5.487  16.881  3.3893 -2.1440 -0.0403
17156TIP3   OH272958   3.707   6.120  16.316  0.5066  0.2215 -0.0648
17156TIP3    H172959   3.733   6.094  16.227  0.2842 -0.5660  0.0925
17156TIP3    H272960   3.653   6.197  16.303 -0.0376 -0.2486 -0.6724
17157TIP3   OH272961   6.743   6.037  13.358 -0.6420  0.2643 -0.5180
17157TIP3    H172962   6.715   5.950  13.386 -0.8432  0.5492  0.1814
17157TIP3    H272963   6.724   6.040  13.264 -0.1918 -0.6152 -0.6446
17158TIP3   OH272964   4.626   5.709   0.330 -0.4171 -0.2901  0.2363
17158TIP3    H172965   4.694   5.643   0.339 -1.4113 -1.1933  1.3982
17158TIP3    H272966   4.552   5.674   0.381 -1.0100  1.6386  0.7435
17159TIP3   OH272967   2.528   6.536  11.015 -0.5027  0.2539 -0.5329
17159TIP3    H172968   2.572   6.480  10.952  0.5016  0.1269  0.2657
17159TIP3    H272969   2.564   6.623  10.999  1.1549 -0.1048  1.0854
17160TIP3   OH272970   2.531   4.252  13.753  0.0599  0.5742  0.6030
17160TIP3    H172971   2.619   4.275  13.782  0.1815  1.9470 -0.7445
17160TIP3    H272972   2.473   4.295  13.816  0.3388  1.9590 -0.0685
17161TIP3   OH272973   2.346   4.015   1.978  0.2031 -0.0824  0.2513
17161TIP3    H172974   2.324   3.940   2.035  1.3033  0.3949  1.3177
17161TIP3    H272975   2.273   4.076   1.991  0.1624 -0.2229  0.7173
17162TIP3   OH272976   5.993   4.251   1.875  0.3753 -0.4626  1.1233
17162TIP3    H172977   6.068   4.308   1.893  0.4663 -0.2983  0.2170
17162TIP3    H272978   6.028   4.181   1.821  0.2018 -1.2479  2.0236
17163TIP3   OH272979   1.951   1.101  10.468 -0.4205  0.2548  0.1797
17163TIP3    H172980   1.905   1.037  10.522  1.1778  0.4672  1.7950
17163TIP3    H272981   2.031   1.057  10.440 -0.9939  0.3190 -1.6324
17164TIP3   OH272982   2.373   5.957  13.514  0.4506  0.0425  0.3506
17164TIP3    H172983   2.378   6.051  13.532 -0.7676  0.4396 -1.2740
17164TIP3    H272984   2.457   5.923  13.546  0.5609  1.5267  1.7301
17165TIP3   OH272985   1.480   3.714   3.338  0.2693  0.1243 -0.3318
17165TIP3    H172986   1.476   3.770   3.260  0.4700  0.3841 -0.1572
17165TIP3    H272987   1.420   3.756   3.400  1.1580  0.6960  0.1532
17166TIP3   OH272988   6.148   2.668  15.633  0.4948 -0.4628 -0.0349
17166TIP3    H172989   6.094   2.627  15.701  0.3901  0.1202  0.2397
17166TIP3    H272990   6.114   2.757  15.627  1.6118 -0.0063  0.3426
17167TIP3   OH272991   4.927   5.077   3.102  0.1390  0.2716  0.0911
17167TIP3    H172992   4.875   5.046   3.028 -1.9764  0.3828  1.4829
17167TIP3    H272993   4.900   5.168   3.113  1.2350  0.5679  0.3304
17168TIP3   OH272994   6.314   4.584  14.964  0.4767  0.4484  0.4968
17168TIP3    H172995   6.399   4.628  14.965  0.1897  1.0009  1.5969
17168TIP3    H272996   6.318   4.526  14.888  2.5045 -0.8416  1.5505
17169TIP3   OH272997   1.058   0.567  15.339  0.0463 -0.0320 -0.1199
17169TIP3    H172998   1.073   0.547  15.431 -0.8473 -0.9576 -0.1696
17169TIP3    H272999   0.972   0.609  15.337  0.7481  1.4366 -0.3487
17170TIP3   OH273000   0.306   3.370  13.122 -0.0498  0.6211 -0.0935
17170TIP3    H173001   0.318   3.464  13.105 -1.7262  0.6299 -1.3440
17170TIP3    H273002   0.220   3.365  13.165  0.3536 -0.2804  0.6133
17171TIP3   OH273003   5.312   2.032   4.642 -0.4504 -0.4240  0.2316
17171TIP3    H173004   5.344   1.993   4.723  1.2449 -0.1353 -0.2923
17171TIP3    H273005   5.288   2.122   4.667 -1.1878 -0.7330  0.6827
17172TIP3   OH273006   2.515   2.443  12.276 -0.3290 -0.6808 -0.0210
17172TIP3    H173007   2.599   2.413  12.241 -0.5515 -1.6649  0.2681
17172TIP3    H273008   2.474   2.364  12.312 -1.1005 -0.0977  0.4105
17173TIP3   OH273009   3.670   4.274  12.890 -0.1855 -0.4376  0.2109
17173TIP3    H173010   3.583   4.244  12.917  0.1426 -2.4141 -0.8310
17173TIP3    H273011   3.716   4.194  12.864  1.6571  0.6826 -0.0595
17174TIP3   OH273012   2.581   5.455  15.286 -0.5756 -0.2962 -0.4304
17174TIP3    H173013   2.642   5.395  15.327  0.3643  1.0030  0.1147
17174TIP3    H273014   2.588   5.536  15.337  0.1839  1.1545 -2.7388
17175TIP3   OH273015   4.027   1.346  14.575  0.0350  0.3183  0.1827
17175TIP3    H173016   4.013   1.309  14.662  1.4853  1.3506  0.8677
17175TIP3    H273017   4.005   1.275  14.515 -0.4277 -0.5803  1.4022
17176TIP3   OH273018   2.476   0.181   0.796  0.0236 -0.0587 -0.4462
17176TIP3    H173019   2.437   0.267   0.810 -1.9647 -0.7928 -1.3280
17176TIP3    H273020   2.509   0.155   0.882 -2.7608 -0.0429  0.6783
17177TIP3   OH273021   6.097   2.415   4.913 -0.3787 -0.6327 -0.0418
17177TIP3    H173022   6.060   2.411   4.825 -0.6808 -0.5329  0.0803
17177TIP3    H273023   6.178   2.364   4.907  0.1193  0.2184 -0.6235
17178TIP3   OH273024   4.531   0.589  16.453  0.5650  0.2840  0.0188
17178TIP3    H173025   4.516   0.614  16.544  0.1448 -1.2547  0.3692
17178TIP3    H273026   4.612   0.634  16.429  0.9516  0.2796  1.3069
17179TIP3   OH273027   3.301   2.161   4.267  0.0376 -0.7333 -0.1012
17179TIP3    H173028   3.390   2.154   4.232  0.5109 -2.7909  1.4635
17179TIP3    H273029   3.305   2.234   4.329  0.4135 -0.3296 -0.5894
17180TIP3   OH273030   5.069   1.887   5.572  1.0359  0.3058 -0.0835
17180TIP3    H173031   5.004   1.957   5.577 -0.1345 -0.5290 -3.0926
17180TIP3    H273032   5.061   1.841   5.656 -1.1422  1.1858  0.2208
17181TIP3   OH273033   6.213   3.331   4.509 -0.3900 -0.1710  0.0397
17181TIP3    H173034   6.263   3.267   4.560  1.9651 -0.2421 -2.1983
17181TIP3    H273035   6.205   3.291   4.422 -0.2207  1.8942 -0.9595
17182TIP3   OH273036   5.801   5.885  12.862  0.5833  0.4448 -0.2403
17182TIP3    H173037   5.742   5.857  12.792  0.3174  3.1197 -1.1375
17182TIP3    H273038   5.860   5.947  12.821  0.9758  1.4234  1.7235
17183TIP3   OH273039   0.450   4.916   6.382  0.4259 -0.5048 -0.4917
17183TIP3    H173040   0.377   4.887   6.436 -0.0627  1.7141  0.0977
17183TIP3    H273041   0.524   4.921   6.442  0.6332 -1.0205 -0.7024
17184TIP3   OH273042   4.387   1.638  11.328 -0.2366 -0.2097 -0.2193
17184TIP3    H173043   4.462   1.681  11.289 -0.8898 -0.6480 -2.0164
17184TIP3    H273044   4.399   1.545  11.307 -0.7548 -0.4143  0.3629
17185TIP3   OH273045   3.140   3.767   5.126  0.1995  0.0693 -0.3802
17185TIP3    H173046   3.085   3.777   5.203 -0.6963  1.4628 -1.1690
17185TIP3    H273047   3.078   3.763   5.052  1.0277 -1.3941 -1.0251
17186TIP3   OH273048   2.746   2.739  14.875  0.8317 -0.1106 -0.4568
17186TIP3    H173049   2.680   2.740  14.806 -1.0623 -0.0009  1.3063
17186TIP3    H273050   2.732   2.821  14.923  0.5932 -1.2246  1.4307
17187TIP3   OH273051   0.639   1.201   2.491 -0.0625 -0.1548  0.1680
17187TIP3    H173052   0.570   1.267   2.504 -0.4269 -0.2258 -1.3035
17187TIP3    H273053   0.639   1.186   2.397  1.8797 -0.2743  0.1851
17188TIP3   OH273054   0.086   3.117   0.518 -0.1520  0.0833 -0.2799
17188TIP3    H173055   0.012   3.176   0.506 -0.7673 -0.5155  0.4634
17188TIP3    H273056   0.149   3.142   0.451 -2.4099 -1.5533 -3.1554
17189TIP3   OH273057   3.084   6.133   5.700 -0.6959  0.5550  0.4892
17189TIP3    H173058   3.020   6.074   5.661  0.8342 -0.3386 -0.7467
17189TIP3    H273059   3.138   6.076   5.756  1.4926  0.5136 -1.5801
17190TIP3   OH273060   4.323   2.816   0.600 -0.3098  0.2224 -0.0422
17190TIP3    H173061   4.353   2.759   0.671 -0.5092  1.5136  1.0946
17190TIP3    H273062   4.232   2.837   0.623 -1.4696 -2.0051 -2.3967
17191TIP3   OH273063   1.113   5.184   5.148  0.2598 -0.0918 -0.3411
17191TIP3    H173064   1.029   5.199   5.192  0.1662 -0.0175 -0.5467
17191TIP3    H273065   1.129   5.090   5.159  0.6431  0.0741  0.5764
17192TIP3   OH273066   4.487   6.672   2.485 -0.2802 -0.2441 -0.6271
17192TIP3    H173067   4.554   6.636   2.427  0.0004  0.0274 -0.4732
17192TIP3    H273068   4.405   6.629   2.458 -0.1021 -0.3191 -1.0364
17193TIP3   OH273069   2.036   5.785   1.807 -0.6364  0.2531 -0.0528
17193TIP3    H173070   2.105   5.832   1.762 -0.8202 -0.5520 -1.1930
17193TIP3    H273071   1.955   5.823   1.773 -0.7698 -0.0735 -0.0991
17194TIP3   OH273072   3.040   2.470   4.565 -0.1020  0.1283  0.3654
17194TIP3    H173073   2.983   2.495   4.491 -0.5255 -1.2208  0.2242
17194TIP3    H273074   3.024   2.537   4.631 -0.1761  1.0144 -0.5366
17195TIP3   OH273075   2.668   1.448   0.814  0.2810  0.0518  0.4905
17195TIP3    H173076   2.582   1.407   0.804  0.5882 -0.7532  1.1743
17195TIP3    H273077   2.687   1.485   0.727 -0.5602 -0.1340  0.2217
17196TIP3   OH273078   0.397   3.176   1.955 -0.5538  0.1521 -0.4133
17196TIP3    H173079   0.313   3.129   1.959 -1.2785  1.2388 -2.2229
17196TIP3    H273080   0.459   3.117   1.996 -2.4364 -0.1731  2.0755
17197TIP3   OH273081   3.739   2.152  13.217  0.4814  0.1139 -0.1584
17197TIP3    H173082   3.718   2.060  13.203 -0.5356  0.1478  1.1520
17197TIP3    H273083   3.655   2.195  13.232  0.9420  1.2656 -0.7610
17198TIP3   OH273084   2.718   1.017   3.012 -0.0981  0.3206 -0.5079
17198TIP3    H173085   2.679   1.010   2.925  2.1405 -1.5411 -1.4337
17198TIP3    H273086   2.683   0.942   3.060  1.3608 -0.6754 -0.9646
17199TIP3   OH273087   5.168   5.582  14.649 -0.1036  0.5772 -0.2148
17199TIP3    H173088   5.099   5.557  14.588 -0.8365  0.8137  0.5107
17199TIP3    H273089   5.244   5.600  14.594 -0.5200 -0.0344 -0.9893
17200TIP3   OH273090   5.827   5.008  13.773  0.2526  0.1519 -0.1392
17200TIP3    H173091   5.855   4.918  13.790  0.4260 -0.2520 -2.4082
17200TIP3    H273092   5.896   5.062  13.810  0.7142 -0.6821  0.2382
17201TIP3   OH273093   0.182   3.900   0.662  0.1634  0.1233  0.1006
17201TIP3    H173094   0.140   3.876   0.745  0.1754 -0.2937 -0.0124
17201TIP3    H273095   0.275   3.908   0.683  0.1068  0.4562  0.2230
17202TIP3   OH273096   2.937   2.985   6.057  0.9932  0.0080  0.3362
17202TIP3    H173097   2.929   2.911   6.117  1.0328 -1.3420 -1.2777
17202TIP3    H273098   2.988   3.050   6.105 -0.5270 -0.2912  2.4277
17203TIP3   OH273099   6.532   2.033   4.563  0.5987  0.1746 -0.1703
17203TIP3    H173100   6.464   1.971   4.538  0.8847 -0.7624  1.3037
17203TIP3    H273101   6.612   2.000   4.524  0.2472  1.2314 -1.8335
17204TIP3   OH273102   1.436   1.821   2.662  0.1980 -0.3861  0.6931
17204TIP3    H173103   1.347   1.790   2.647  0.6050 -0.0969 -2.5279
17204TIP3    H273104   1.483   1.802   2.581  2.9910 -0.1909  2.2000
17205TIP3   OH273105   0.549   2.758  14.357  0.1076 -0.4448 -0.0698
17205TIP3    H173106   0.569   2.665  14.354  0.6428 -0.2832 -1.8293
17205TIP3    H273107   0.538   2.784  14.265 -2.6202  0.6716  0.5060
17206TIP3   OH273108   1.710   1.980  16.488  0.3244  0.3428 -0.2764
17206TIP3    H173109   1.702   1.971  16.583  0.3572  0.5938 -0.2485
17206TIP3    H273110   1.653   1.913  16.452  2.2627 -1.4829 -0.0834
17207TIP3   OH273111   6.531   5.984  16.084 -0.2708  0.5183  0.2971
17207TIP3    H173112   6.555   6.068  16.123  0.9007  0.9193 -1.2356
17207TIP3    H273113   6.451   6.003  16.033 -0.7273  0.4151  0.9726
17208TIP3   OH273114   5.706   3.459  12.922 -0.0209 -0.3337  0.4181
17208TIP3    H173115   5.737   3.436  13.009 -1.2923 -1.5050  0.5887
17208TIP3    H273116   5.765   3.412  12.862 -0.6669 -1.5476  0.7136
17209TIP3   OH273117   5.227   4.299   5.038 -0.0582 -0.0229  0.2973
17209TIP3    H173118   5.245   4.241   4.964  1.1177  0.5970  0.0922
17209TIP3    H273119   5.313   4.324   5.072 -0.5717  0.4861  1.2572
17210TIP3   OH273120   4.883   6.592   3.587 -0.1197 -0.2447 -0.3445
17210TIP3    H173121   4.796   6.572   3.623  1.0891 -1.8207  1.7888
17210TIP3    H273122   4.892   6.533   3.512 -1.3093  0.6857 -1.2401
17211TIP3   OH273123   2.240   1.796   5.382  0.1333  0.0530 -0.5219
17211TIP3    H173124   2.154   1.770   5.417  0.7273  1.6891  2.2923
17211TIP3    H273125   2.286   1.713   5.369 -1.0773 -0.7416  0.1099
17212TIP3   OH273126   0.068   3.218  16.760  0.0600  0.2402  0.0998
17212TIP3    H173127  -0.023   3.246  16.750 -0.5468 -1.5418  0.3718
17212TIP3    H273128   0.105   3.227  16.672 -0.4183  0.8552 -0.0447
17213TIP3   OH273129   0.374   3.473   0.096  0.0491 -0.4542 -0.1533
17213TIP3    H173130   0.293   3.421   0.099  0.5567 -1.2439 -0.0136
17213TIP3    H273131   0.357   3.539   0.030 -1.0110 -0.1249  0.4388
17214TIP3   OH273132   5.814   1.561  16.076 -0.3570 -0.0480  0.6478
17214TIP3    H173133   5.830   1.638  16.130  0.3230  0.1235  0.2074
17214TIP3    H273134   5.819   1.487  16.137 -0.2119  0.1912  0.9227
17215TIP3   OH273135   2.250   1.792   0.459 -0.2359 -0.2707  0.2692
17215TIP3    H173136   2.261   1.881   0.426 -0.6898 -0.3695 -0.1570
17215TIP3    H273137   2.325   1.744   0.425 -0.0361 -0.0707  0.4269
17216TIP3   OH273138   4.831   0.920  12.907 -0.2918 -0.0388  0.2794
17216TIP3    H173139   4.788   0.989  12.857 -3.4442 -2.5152 -0.5708
17216TIP3    H273140   4.905   0.893  12.853 -0.3485  1.1501 -0.4087
17217TIP3   OH273141   0.935   1.580   2.457  0.8226 -0.3304 -0.1765
17217TIP3    H173142   0.925   1.497   2.503  0.1256 -0.6665 -0.9178
17217TIP3    H273143   0.847   1.600   2.426  1.3039 -0.1368 -1.4163
17218TIP3   OH273144   4.974   0.312   3.969 -0.3418  0.7598 -0.6676
17218TIP3    H173145   4.969   0.311   4.064 -0.5590  0.3096 -0.6795
17218TIP3    H273146   5.027   0.389   3.948  0.4511  0.3665 -0.1481
17219TIP3   OH273147   0.033   5.738   3.159  0.0836  0.2496  1.0158
17219TIP3    H173148   0.119   5.707   3.129  0.2750  0.8865  0.9100
17219TIP3    H273149   0.033   5.832   3.140  0.1424  0.6400  2.8874
17220TIP3   OH273150   3.762   0.625  13.551  0.1188  0.0839  0.1941
17220TIP3    H173151   3.731   0.615  13.642  0.7301 -1.1976  0.2697
17220TIP3    H273152   3.825   0.696  13.555 -0.0203  0.1830  0.7316
17221TIP3   OH273153   6.603   1.413  15.456  0.1355  0.4693  0.3024
17221TIP3    H173154   6.671   1.382  15.514  1.3093  2.6676  0.1514
17221TIP3    H273155   6.545   1.465  15.511 -1.1794 -0.9730  0.3297
17222TIP3   OH273156   6.137   0.259   3.581  0.4441  0.7222 -0.2736
17222TIP3    H173157   6.111   0.313   3.506 -1.7393 -0.2094 -0.2247
17222TIP3    H273158   6.176   0.181   3.542  0.3542  0.7516 -0.4236
17223TIP3   OH273159   3.702   4.376   1.227  0.6613 -0.3873 -0.6680
17223TIP3    H173160   3.621   4.327   1.217  1.3868 -1.8592  0.4924
17223TIP3    H273161   3.694   4.420   1.311  0.5006  0.5871 -1.1797
17224TIP3   OH273162   3.978   6.654   0.155  0.3557 -0.4963  0.0994
17224TIP3    H173163   4.029   6.575   0.176  0.7033 -0.2343  0.2522
17224TIP3    H273164   3.898   6.646   0.206 -1.0123 -2.2605 -2.2242
17225TIP3   OH273165   4.669   0.798   5.029 -0.6636 -0.4123 -0.1541
17225TIP3    H173166   4.628   0.778   4.945 -3.4291  0.0294  1.0408
17225TIP3    H273167   4.671   0.714   5.075 -1.8555 -0.1010  0.4715
17226TIP3   OH273168   4.554   5.579   0.573  0.2193  0.0493 -0.0703
17226TIP3    H173169   4.596   5.658   0.608  1.4693 -0.2841 -0.7746
17226TIP3    H273170   4.619   5.510   0.587 -0.3383 -0.5960 -0.6407
17227TIP3   OH273171   1.043   5.426  14.945  0.2093 -1.1123  0.3501
17227TIP3    H173172   0.959   5.416  14.988  0.1336  1.0056  0.7285
17227TIP3    H273173   1.023   5.465  14.860  0.9763  2.0803  1.5442
17228TIP3   OH273174   1.368   3.234  15.315 -0.5111  0.1215  0.1563
17228TIP3    H173175   1.339   3.168  15.377  0.5199  0.1901  0.7365
17228TIP3    H273176   1.325   3.315  15.344 -0.4841  0.0368  0.4320
17229TIP3   OH273177   3.905   1.820  12.271  0.4111 -0.3456 -0.3615
17229TIP3    H173178   3.931   1.733  12.302 -0.0987 -0.6580 -0.7995
17229TIP3    H273179   3.809   1.818  12.270  0.3816  0.3898  0.0841
17230TIP3   OH273180   1.261   1.263   1.479  0.5797 -0.1567  0.3493
17230TIP3    H173181   1.192   1.233   1.420 -0.4392  1.0294  0.9097
17230TIP3    H273182   1.280   1.188   1.534 -1.7902  0.0915  1.5999
17231TIP3   OH273183   2.124   3.095  15.735 -0.1819 -0.3767 -0.3127
17231TIP3    H173184   2.090   3.099  15.825 -0.5719  0.6223 -0.4959
17231TIP3    H273185   2.058   3.047  15.686 -0.1522 -0.5885 -0.1457
17232TIP3   OH273186   5.099   0.119   0.654 -0.3012  0.7913  0.2262
17232TIP3    H173187   5.005   0.120   0.675 -0.0504  1.1962  1.3538
17232TIP3    H273188   5.143   0.127   0.739  0.7919 -1.2348 -0.1153
17233TIP3   OH273189   3.669   6.087   0.943 -0.5173  0.2209  0.4853
17233TIP3    H173190   3.608   6.126   1.005 -0.7185  1.5119 -0.4896
17233TIP3    H273191   3.753   6.086   0.990 -1.1045 -0.7694  1.5207
17234TIP3   OH273192   5.363   5.052  12.267 -0.2804  0.3234 -0.3652
17234TIP3    H173193   5.281   5.089  12.234 -0.5981  0.3390  0.4146
17234TIP3    H273194   5.388   5.111  12.338  1.6999  1.7073 -2.1726
17235TIP3   OH273195   5.377   4.297  11.330 -0.3622  0.4949 -0.1546
17235TIP3    H173196   5.323   4.328  11.257 -0.5716  1.6482  0.4895
17235TIP3    H273197   5.337   4.335  11.408  1.3910  1.3899  0.3301
17236TIP3   OH273198   3.238   3.049  13.860 -0.0163  0.2504  0.1224
17236TIP3    H173199   3.290   3.086  13.931  1.0287 -0.8426 -0.0551
17236TIP3    H273200   3.275   2.962  13.846 -1.5663 -0.3561 -0.3531
17237TIP3   OH273201   6.303   2.999  13.225  0.3586  0.2747 -0.1458
17237TIP3    H173202   6.383   2.967  13.267  0.9469 -0.2062 -1.5644
17237TIP3    H273203   6.242   2.926  13.232  1.0036 -0.4188 -1.5406
17238TIP3   OH273204   4.939   3.581  12.470 -0.0595 -0.1037  0.4223
17238TIP3    H173205   4.852   3.567  12.505  0.0196 -0.8547  0.3311
17238TIP3    H273206   4.996   3.584  12.547 -0.2247  0.8771  0.5115
17239TIP3   OH273207   1.170   3.864   2.627  0.3299  0.2780 -0.4209
17239TIP3    H173208   1.088   3.893   2.668  0.3871 -0.8415  0.5080
17239TIP3    H273209   1.143   3.818   2.548  0.0458 -0.1906 -0.0551
17240TIP3   OH273210   6.445   2.116  15.208  0.0065 -0.6025 -0.8140
17240TIP3    H173211   6.419   2.084  15.294 -1.3823  0.4864 -0.8037
17240TIP3    H273212   6.512   2.182  15.225  0.0065 -0.6672 -0.5740
17241TIP3   OH273213   1.443   2.270   3.411 -0.2925  0.2335  0.2917
17241TIP3    H173214   1.403   2.226   3.336 -0.8636 -0.5297  1.0342
17241TIP3    H273215   1.537   2.268   3.392 -0.3409 -0.9604  0.1275
17242TIP3   OH273216   4.578   5.455   4.994 -0.1208 -0.0314  0.2045
17242TIP3    H173217   4.591   5.432   5.086  2.4536 -0.9824 -0.3433
17242TIP3    H273218   4.571   5.371   4.949  1.8364  0.3479 -0.8572
17243TIP3   OH273219   6.184   0.965   4.692  0.1440  0.5135 -0.5671
17243TIP3    H173220   6.105   0.942   4.741  0.8264 -0.4852  0.0847
17243TIP3    H273221   6.158   0.957   4.600 -1.1399  2.3926 -0.4053
17244TIP3   OH273222   4.532   2.322  14.180  0.5575 -0.1739 -0.6583
17244TIP3    H173223   4.511   2.413  14.201 -2.0702 -1.1373  1.3224
17244TIP3    H273224   4.590   2.294  14.251  0.6719 -0.2893 -0.7982
17245TIP3   OH273225   6.474   2.240  11.163 -0.1827  0.4754  0.5043
17245TIP3    H173226   6.469   2.271  11.253  0.8675 -0.4606  0.8934
17245TIP3    H273227   6.445   2.149  11.167 -0.3262  0.4911 -0.1353
17246TIP3   OH273228   5.791   6.282  13.494  0.6650  0.4183 -0.2467
17246TIP3    H173229   5.739   6.346  13.445 -0.4883  1.3213  2.0887
17246TIP3    H273230   5.877   6.323  13.503  0.4755  0.8397 -0.3412
17247TIP3   OH273231   3.494   1.406  14.795  0.3195  0.4780  0.6747
17247TIP3    H173232   3.412   1.456  14.798  1.2236  1.9621  1.3011
17247TIP3    H273233   3.474   1.325  14.843 -1.6179 -0.5117 -1.6724
17248TIP3   OH273234   6.130   5.136   1.474 -0.3843  0.5488  0.0229
17248TIP3    H173235   6.103   5.055   1.515 -0.1604  0.2548 -0.4053
17248TIP3    H273236   6.147   5.196   1.547  1.4995 -0.4341  0.4300
17249TIP3   OH273237   6.254   0.951  14.647 -0.0290 -0.2809  0.1638
17249TIP3    H173238   6.301   0.884  14.598  2.2402  1.4925 -0.1787
17249TIP3    H273239   6.298   0.954  14.731 -0.8012  0.0675  0.5596
17250TIP3   OH273240   6.419   3.336   1.833  0.5381 -0.4008 -0.1491
17250TIP3    H173241   6.473   3.368   1.905  0.9532  0.7234 -0.9501
17250TIP3    H273242   6.482   3.314   1.764  0.1013 -0.8372 -0.4119
17251TIP3   OH273243   3.873   6.734  11.210  0.0661 -0.3746  0.3996
17251TIP3    H173244   3.886   6.801  11.277 -0.4551 -0.3105  0.4331
17251TIP3    H273245   3.778   6.722  11.205 -0.0167  1.0727 -1.7765
17252TIP3   OH273246   3.900   0.078   2.962  0.8847  0.4655 -0.0838
17252TIP3    H173247   3.852  -0.004   2.972 -0.3857  1.1056 -0.8888
17252TIP3    H273248   3.973   0.055   2.905  0.1765  0.0377 -0.8248
17253TIP3   OH273249   1.628   4.371   3.235  0.3747 -0.6665 -0.5253
17253TIP3    H173250   1.614   4.451   3.184 -3.1984 -1.2052 -0.5366
17253TIP3    H273251   1.674   4.312   3.175 -1.2060 -0.2592 -2.1906
17254TIP3   OH273252   6.407   1.560   0.812  0.1869  0.5901  0.4303
17254TIP3    H173253   6.460   1.637   0.792  1.6614 -0.4307  0.2959
17254TIP3    H273254   6.348   1.551   0.737  0.5371  1.1358  0.0891
17255TIP3   OH273255   5.778   4.543   6.426 -0.1567 -0.2135 -0.9120
17255TIP3    H173256   5.799   4.458   6.464 -1.3967 -0.5192 -0.9117
17255TIP3    H273257   5.723   4.523   6.351 -1.3139  0.6392 -0.3079
17256TIP3   OH273258   4.596   5.678   3.394  0.1337 -0.3605  0.0812
17256TIP3    H173259   4.544   5.750   3.356 -1.2039 -1.5503 -0.3928
17256TIP3    H273260   4.687   5.707   3.385 -0.4484  2.0877  1.5639
17257TIP3   OH273261   5.863   3.378   0.146 -0.1325 -0.2068  0.6132
17257TIP3    H173262   5.851   3.311   0.214  1.7634  0.0930  1.2635
17257TIP3    H273263   5.788   3.367   0.088  0.6868 -3.5604  0.1306
17258TIP3   OH273264   1.644   0.828  13.559 -0.6978  0.6297 -0.0073
17258TIP3    H173265   1.670   0.909  13.514 -1.2972  0.2503 -1.0541
17258TIP3    H273266   1.677   0.839  13.648 -1.7949  2.5428  0.1944
17259TIP3   OH273267   4.120   3.174   4.715 -0.0141  0.3078 -0.3304
17259TIP3    H173268   4.163   3.248   4.758 -0.5025  1.3094 -1.5356
17259TIP3    H273269   4.046   3.153   4.772  0.0317  0.8628 -0.0647
17260TIP3   OH273270   6.029   2.087  16.788  0.6134  0.7721 -0.1717
17260TIP3    H173271   6.018   2.133  16.871 -1.4543  2.2261 -1.2024
17260TIP3    H273272   6.007   2.153  16.721  0.4310 -0.9031 -1.7926
17261TIP3   OH273273   1.849   4.982  12.989 -0.1571  0.2077 -0.6185
17261TIP3    H173274   1.785   4.990  13.060 -0.1435  1.5945 -0.7489
17261TIP3    H273275   1.835   4.894  12.954 -0.0732 -0.5424  1.1832
17262TIP3   OH273276   4.302   0.120  16.008 -0.2323 -0.1662  0.5959
17262TIP3    H173277   4.339   0.114  16.096  2.1880  0.8385 -0.3076
17262TIP3    H273278   4.317   0.034  15.969  2.5042  0.6543 -0.2459
17263TIP3   OH273279   6.042   6.531   2.515  0.0243 -0.2620  0.3739
17263TIP3    H173280   6.092   6.607   2.485  0.3242 -1.3684 -2.0440
17263TIP3    H273281   5.953   6.548   2.485 -0.1539 -0.3220  0.8675
17264TIP3   OH273282   3.497   6.743  12.486 -0.2203 -0.7032 -0.3041
17264TIP3    H173283   3.483   6.721  12.579  0.3906  1.3499  0.2848
17264TIP3    H273284   3.588   6.719  12.469  0.1650  0.4745  0.0824
17265TIP3   OH273285   0.346   0.782  11.871  0.7132  0.1005  0.0827
17265TIP3    H173286   0.425   0.732  11.894  1.4508  0.7552 -1.0037
17265TIP3    H273287   0.342   0.852  11.937  2.2073  1.3048 -1.0570
17266TIP3   OH273288   1.645   5.609  13.971 -0.1681  0.0942 -0.4195
17266TIP3    H173289   1.596   5.646  13.898  0.4590  1.8057 -0.0105
17266TIP3    H273290   1.735   5.600  13.938 -0.5820 -2.3608 -0.9413
17267TIP3   OH273291   2.657   3.494  14.659 -0.3806  0.4562 -0.6138
17267TIP3    H173292   2.622   3.573  14.700 -0.5184 -0.1299  0.4178
17267TIP3    H273293   2.579   3.444  14.634 -0.3066 -0.2327  0.4797
17268TIP3   OH273294   5.148   6.683  15.091 -0.0626 -0.0109  0.1899
17268TIP3    H173295   5.085   6.724  15.032  0.5655  2.5347  1.2207
17268TIP3    H273296   5.098   6.669  15.172  0.4751  1.3937  0.7849
17269TIP3   OH273297   5.950   3.970   2.109 -0.0598  0.0682 -0.0606
17269TIP3    H173298   6.037   4.009   2.120  1.2014 -2.7290  0.1283
17269TIP3    H273299   5.954   3.888   2.158 -1.6269 -1.8643 -3.0666
17270TIP3   OH273300   0.936   3.046   2.261 -0.6317 -0.2788 -0.3031
17270TIP3    H173301   0.861   3.104   2.273  1.9670  3.0787  0.5439
17270TIP3    H273302   0.986   3.055   2.342 -0.1812 -3.8564 -0.1166
17271TIP3   OH273303   1.640   4.706  14.425  0.0876  0.3486 -0.0163
17271TIP3    H173304   1.693   4.771  14.378  0.8681 -1.2863 -1.4299
17271TIP3    H273305   1.549   4.736  14.411  0.4216  1.0009 -0.8778
17272TIP3   OH273306   2.025   3.770  11.960 -0.3233 -0.2403 -0.2428
17272TIP3    H173307   1.981   3.827  12.023 -1.5033 -0.7833 -0.5490
17272TIP3    H273308   2.107   3.815  11.939 -0.3083  0.3518  1.0337
17273TIP3   OH273309   6.698   4.547  11.908 -1.1941  0.5799  0.3486
17273TIP3    H173310   6.632   4.534  11.840 -0.4915  2.2483 -0.6997
17273TIP3    H273311   6.655   4.604  11.972 -1.8149 -0.8927  1.2682
17274TIP3   OH273312   0.330   6.126  11.141 -0.1528 -0.2929  0.7440
17274TIP3    H173313   0.290   6.207  11.173  1.0925  0.9508 -0.7477
17274TIP3    H273314   0.424   6.145  11.137  0.0089 -1.3320 -0.9674
17275TIP3   OH273315   4.254   1.129  17.055 -0.2184  0.0435 -0.2732
17275TIP3    H173316   4.332   1.158  17.008 -1.7747 -0.0648 -3.0153
17275TIP3    H273317   4.204   1.209  17.071 -1.1914 -0.2587 -1.6687
17276TIP3   OH273318   4.582   3.835  15.415  0.3719  0.7453 -0.4466
17276TIP3    H173319   4.515   3.783  15.371  0.9169  1.5968 -2.3354
17276TIP3    H273320   4.534   3.895  15.471 -0.2578 -2.2686  2.3829
17277TIP3   OH273321   0.958   1.664   1.183 -0.3387  0.3919  0.1447
17277TIP3    H173322   1.006   1.589   1.219 -0.1705  0.5267  0.1974
17277TIP3    H273323   0.923   1.632   1.100  1.2336  0.8167 -0.6903
17278TIP3   OH273324   6.380   0.241  15.051 -0.4596 -0.2753 -0.0100
17278TIP3    H173325   6.417   0.242  14.962 -1.7070 -1.4388 -0.5602
17278TIP3    H273326   6.311   0.175  15.047 -1.6106  0.8233  1.4041
17279TIP3   OH273327   0.936   5.170  13.525  0.4072  0.4748  0.1092
17279TIP3    H173328   0.981   5.121  13.594 -1.4106  0.4823  1.3271
17279TIP3    H273329   0.901   5.247  13.569 -2.7345 -0.6746 -0.3171
17280TIP3   OH273330   5.714   1.695   4.499 -0.0472 -0.2595 -0.5226
17280TIP3    H173331   5.691   1.766   4.559 -0.6447 -2.1036  1.4951
17280TIP3    H273332   5.804   1.714   4.472  0.3089  0.5194  1.1427
17281TIP3   OH273333   2.385   2.617   0.445 -0.3221  0.4411 -0.1010
17281TIP3    H173334   2.393   2.564   0.525 -2.4460  0.2589  0.0274
17281TIP3    H273335   2.291   2.619   0.427 -0.1099  2.6690 -1.1322
17282TIP3   OH273336   3.262   5.394  12.427 -0.3866 -0.6870  0.3022
17282TIP3    H173337   3.309   5.466  12.385 -2.4547  1.7722  2.0313
17282TIP3    H273338   3.192   5.373  12.367 -0.2273 -0.7354  0.1332
17283TIP3   OH273339   4.711   4.024   2.652  0.2100  0.1347 -0.1903
17283TIP3    H173340   4.760   3.960   2.705  0.5563 -0.4753 -1.2222
17283TIP3    H273341   4.627   3.982   2.635 -1.0333  1.5577  2.3292
17284TIP3   OH273342   6.102   1.916   1.910 -0.0321 -0.5989  0.2030
17284TIP3    H173343   6.149   1.929   1.993  0.3314 -1.6308  0.1717
17284TIP3    H273344   6.055   1.833   1.922 -0.1074 -0.6717 -0.5636
17285TIP3   OH273345   4.127   0.035   0.073 -0.1059 -0.0803 -0.5600
17285TIP3    H173346   4.069  -0.040   0.086 -0.2371  0.2119  0.6008
17285TIP3    H273347   4.213   0.004   0.102  0.2324 -0.3797 -1.8786
17286TIP3   OH273348   2.045   6.699   2.867 -0.1689 -0.2133  0.3058
17286TIP3    H173349   2.072   6.703   2.959  0.7913  0.8643 -0.0226
17286TIP3    H273350   1.968   6.756   2.862 -0.7845 -0.9925  0.6151
17287TIP3   OH273351   1.499   1.383   4.949  0.5537  0.4372 -0.4944
17287TIP3    H173352   1.564   1.431   5.000 -0.9024  1.0786  0.7970
17287TIP3    H273353   1.549   1.314   4.904  2.0383  0.6243  0.8454
17288TIP3   OH273354   5.427   2.841   1.768  0.1320 -0.3107  0.3865
17288TIP3    H173355   5.379   2.760   1.750  0.4868 -0.1227 -1.4419
17288TIP3    H273356   5.396   2.903   1.702  1.4774  0.4030  0.4057
17289TIP3   OH273357   4.437   4.043   2.590  0.4143 -0.0424  0.3690
17289TIP3    H173358   4.487   4.125   2.589  0.1036  0.1352 -0.4423
17289TIP3    H273359   4.392   4.043   2.674 -1.1769  1.5790 -0.4507
17290TIP3   OH273360   2.494   2.626   4.501 -0.2385 -0.0644  0.2510
17290TIP3    H173361   2.513   2.635   4.594 -1.9917  1.6194  0.4695
17290TIP3    H273362   2.432   2.697   4.481  1.5910  0.8216 -2.6317
17291TIP3   OH273363   2.499   3.744  16.085  0.2419  0.4977 -0.3772
17291TIP3    H173364   2.506   3.673  16.021  2.8075  0.0038  0.4039
17291TIP3    H273365   2.585   3.785  16.085 -0.5347  2.1969  0.8407
17292TIP3   OH273366   1.443   5.967   0.045  0.2534 -0.0319  0.2318
17292TIP3    H173367   1.483   6.032  -0.013  1.6953 -0.3628  0.8459
17292TIP3    H273368   1.499   5.890   0.039 -0.0569 -0.3675  1.4112
17293TIP3   OH273369   5.511   0.663   0.850 -0.2168  0.3604 -0.2593
17293TIP3    H173370   5.516   0.568   0.864  1.0294  0.3234 -0.8711
17293TIP3    H273371   5.467   0.672   0.766  0.9890  0.2664 -0.9107
17294TIP3   OH273372   5.781   5.410  13.950  0.0755 -0.5031  0.5570
17294TIP3    H173373   5.738   5.455  14.023  1.5407  0.8981  0.5843
17294TIP3    H273374   5.808   5.326  13.987 -2.0717 -1.1521  0.7011
17295TIP3   OH273375   2.994   2.895   0.157  0.3643 -0.0486 -0.0737
17295TIP3    H173376   3.088   2.887   0.167  0.3265 -1.5375 -0.7431
17295TIP3    H273377   2.968   2.817   0.107 -1.3086 -0.0400  0.7249
17296TIP3   OH273378   5.951   5.346   2.330 -0.8096 -0.1160 -0.4126
17296TIP3    H173379   5.880   5.323   2.390 -1.7785  1.1029 -1.0614
17296TIP3    H273380   5.930   5.435   2.301  0.3233 -0.2037 -1.5642
17297TIP3   OH273381   2.548   6.230   6.462  0.2008  0.1618 -0.6146
17297TIP3    H173382   2.526   6.302   6.520  0.0387 -1.0069  0.8193
17297TIP3    H273383   2.640   6.211   6.480  0.2230 -0.0277 -0.9180
17298TIP3   OH273384   3.340   2.700   4.142 -0.8946 -0.7779  0.8644
17298TIP3    H173385   3.377   2.672   4.226  0.6618 -0.0192  0.4480
17298TIP3    H273386   3.389   2.779   4.120 -0.9468 -1.2567 -1.0027
17299TIP3   OH273387   3.784   6.587   2.201 -0.4823 -0.1385  0.3656
17299TIP3    H173388   3.865   6.607   2.249 -0.4476 -1.2108  0.7596
17299TIP3    H273389   3.733   6.534   2.262 -2.8494  3.1094  1.3539
17300TIP3   OH273390   3.618   4.005  15.416  0.3503 -0.3489 -0.2857
17300TIP3    H173391   3.618   3.989  15.322  0.5966  2.9288 -0.9071
17300TIP3    H273392   3.711   4.011  15.439  0.2648  1.9588 -0.4538
17301TIP3   OH273393   5.680   0.391  14.340  1.0817 -0.6461  0.6955
17301TIP3    H173394   5.738   0.331  14.292  0.2985 -0.2469 -0.7899
17301TIP3    H273395   5.630   0.435  14.271 -0.5238 -0.5096  1.9366
17302TIP3   OH273396   0.332   4.801  13.737  0.0117 -0.0586  0.6451
17302TIP3    H173397   0.342   4.893  13.759  1.3797 -0.0354 -0.0492
17302TIP3    H273398   0.374   4.754  13.810 -0.5950 -0.1395  0.9491
17303TIP3   OH273399   4.861   1.784   5.913 -0.6799 -0.6441 -0.6495
17303TIP3    H173400   4.923   1.797   5.842 -1.8472  0.8602 -1.4166
17303TIP3    H273401   4.908   1.813   5.991 -0.8162  1.6840 -1.4011
17304TIP3   OH273402   1.604   2.021   0.933  0.5039 -0.0657  0.0751
17304TIP3    H173403   1.611   1.998   0.840  0.9706  1.0594 -0.1728
17304TIP3    H273404   1.510   2.025   0.949  0.4065 -1.3125 -0.0682
17305TIP3   OH273405   3.719   5.605  12.958 -0.1810  0.2348  0.8514
17305TIP3    H173406   3.738   5.544  12.887  2.0654  0.8237  0.9028
17305TIP3    H273407   3.635   5.576  12.993  0.2018 -1.9870 -0.0007
17306TIP3   OH273408   4.791   5.182  14.206 -0.5958 -0.1601  0.5091
17306TIP3    H173409   4.755   5.254  14.259 -1.0735 -0.3423  0.4352
17306TIP3    H273410   4.805   5.111  14.269 -1.6468 -0.5538  0.3139
17307TIP3   OH273411   5.688   2.370  12.897  0.4518  0.0157 -0.4145
17307TIP3    H173412   5.771   2.412  12.874  0.0946  0.3009 -1.2045
17307TIP3    H273413   5.633   2.441  12.931 -0.6652  0.5198 -3.1047
17308TIP3   OH273414   3.465   3.986   5.007  0.2994  0.1972  0.0617
17308TIP3    H173415   3.525   4.032   4.947 -0.9924  0.9712 -0.6680
17308TIP3    H273416   3.444   4.051   5.073 -0.0057  0.0410  0.1180
17309TIP3   OH273417   3.536   2.124   2.976  0.2779  0.1391  0.2881
17309TIP3    H173418   3.503   2.108   2.888 -0.9499  1.0088  0.5705
17309TIP3    H273419   3.470   2.086   3.034  0.4811  0.6333  0.8500
17310TIP3   OH273420   6.334   1.596   2.521 -0.4370 -0.0446  0.4590
17310TIP3    H173421   6.373   1.668   2.472 -1.4365 -0.6356 -1.2363
17310TIP3    H273422   6.409   1.546   2.555  0.2771 -0.0572 -1.1202
17311TIP3   OH273423   6.755   2.959   2.473  0.5053  0.0577  0.2942
17311TIP3    H173424   6.763   2.960   2.378  1.0711 -0.8153  0.3249
17311TIP3    H273425   6.833   3.007   2.503  1.0957 -0.9189  0.3499
17312TIP3   OH273426   0.764   5.889   0.284  0.4538 -0.7582 -0.2740
17312TIP3    H173427   0.815   5.948   0.340 -1.3706 -0.2199  0.8718
17312TIP3    H273428   0.771   5.804   0.327 -1.6864 -0.1648  1.3314
17313TIP3   OH273429   1.585   4.896   0.055 -0.0645 -0.4230 -0.1006
17313TIP3    H173430   1.512   4.876  -0.003 -0.5472 -1.8065  0.9450
17313TIP3    H273431   1.659   4.848   0.019  0.2694  0.7048 -0.9620
17314TIP3   OH273432   1.220   2.993  13.005  0.4683  0.5326  0.4124
17314TIP3    H173433   1.245   2.997  12.913  0.8591 -0.8229  0.4529
17314TIP3    H273434   1.125   2.980  13.004  0.5117  0.2322  0.1960
17315TIP3   OH273435   0.632   5.217  15.353  0.8312 -0.2349 -0.8289
17315TIP3    H173436   0.584   5.290  15.313 -0.1993 -0.1386  0.5428
17315TIP3    H273437   0.566   5.149  15.365  1.6791 -1.1950 -1.6038
17316TIP3   OH273438   5.240   0.768  15.769 -0.2227  0.0471  0.3205
17316TIP3    H173439   5.237   0.822  15.849 -0.8940  1.2116 -0.4696
17316TIP3    H273440   5.293   0.819  15.708 -0.1732 -0.5856 -0.1652
17317TIP3   OH273441   1.090   3.834   5.294 -0.0933 -0.3904  0.4496
17317TIP3    H173442   1.138   3.779   5.232 -0.0037 -1.6543  1.6078
17317TIP3    H273443   1.029   3.774   5.337 -0.0555  0.4295  1.6860
17318TIP3   OH273444   5.100   1.431   1.658  0.1010  0.6245  0.7143
17318TIP3    H173445   5.167   1.394   1.600  1.2310  0.6417  1.9704
17318TIP3    H273446   5.069   1.357   1.710 -0.6078  0.6871  0.3889
17319TIP3   OH273447   6.657   6.586  16.414 -0.0509 -0.2535 -0.0797
17319TIP3    H173448   6.659   6.593  16.319 -1.2271  1.3403 -0.0148
17319TIP3    H273449   6.592   6.519  16.432  0.2319 -0.6149 -0.3968
17320TIP3   OH273450   4.188   0.385   3.916 -0.8594  0.9010  0.7292
17320TIP3    H173451   4.226   0.431   3.990 -1.2507  1.7835  0.3915
17320TIP3    H273452   4.094   0.385   3.933 -0.8972  0.5696  0.5331
17321TIP3   OH273453   1.323   0.045   5.166  0.1584  0.2835 -0.3302
17321TIP3    H173454   1.239   0.090   5.163  1.0801  2.2298  1.7179
17321TIP3    H273455   1.345   0.029   5.074 -1.3655  1.7872 -0.9894
17322TIP3   OH273456   2.049   0.274  14.635 -0.0351 -0.3756 -0.3903
17322TIP3    H173457   1.960   0.254  14.664  0.1863 -1.1039 -0.2094
17322TIP3    H273458   2.052   0.370  14.629 -0.7309 -0.3384 -0.0846
17323TIP3   OH273459   3.432   6.450  16.779  0.6755  0.0596 -0.5760
17323TIP3    H173460   3.447   6.544  16.775 -0.0394  0.1444 -1.5575
17323TIP3    H273461   3.421   6.424  16.688 -1.9337 -0.4902 -0.1586
17324TIP3   OH273462   0.831   2.407   5.102  0.1952  0.1190  0.2333
17324TIP3    H173463   0.878   2.472   5.153 -1.1752  1.0319  0.3653
17324TIP3    H273464   0.876   2.325   5.120  2.4948  1.1515 -0.6432
17325TIP3   OH273465   0.161   4.758  14.051 -0.0057  0.6057  0.6490
17325TIP3    H173466   0.245   4.749  14.005 -2.1203 -1.6317 -2.9533
17325TIP3    H273467   0.122   4.837  14.014 -0.6310  0.1708  0.3719
17326TIP3   OH273468   0.412   1.811   4.330  0.3765 -0.3215  0.1974
17326TIP3    H173469   0.463   1.874   4.380  0.0880 -0.5142  0.7302
17326TIP3    H273470   0.469   1.787   4.257  0.1024  1.3437 -0.5995
17327TIP3   OH273471   6.016   6.596  16.840  0.2051  0.2302 -0.1248
17327TIP3    H173472   5.983   6.681  16.813  0.2800  0.6049  0.9261
17327TIP3    H273473   6.106   6.593  16.807  0.4665  0.8891  0.5223
17328TIP3   OH273474   4.721   5.183  11.053 -0.1330 -0.2851  0.1185
17328TIP3    H173475   4.781   5.173  11.127  0.8855  1.9986 -0.3675
17328TIP3    H273476   4.697   5.093  11.029  0.2374 -1.0824  2.6179
17329TIP3   OH273477   1.803   3.500  14.428 -0.5234 -0.3261 -0.3554
17329TIP3    H173478   1.809   3.405  14.416 -0.0830 -0.4157  0.4995
17329TIP3    H273479   1.709   3.519  14.426 -0.6363 -0.8469 -0.0664
17330TIP3   OH273480   5.982   4.375  15.990  0.0546  0.1343  0.4047
17330TIP3    H173481   6.019   4.463  15.996 -0.5746  0.4007  0.4493
17330TIP3    H273482   5.887   4.390  15.988 -0.0292 -0.5006 -0.3024
17331TIP3   OH273483   0.097   4.417   5.062 -0.1413  0.7947  0.7447
17331TIP3    H173484   0.056   4.485   5.009  0.2054  1.1326  0.9098
17331TIP3    H273485   0.178   4.396   5.016 -0.7679 -0.2817  0.1097
17332TIP3   OH273486   0.489   1.024  15.651  0.2081 -0.0380  0.4628
17332TIP3    H173487   0.548   1.087  15.608 -1.1373 -1.7215 -4.1260
17332TIP3    H273488   0.428   1.079  15.700  1.9451  1.9853  0.4872
17333TIP3   OH273489   2.876   3.680  16.601 -0.7696 -0.2544 -0.0974
17333TIP3    H173490   2.852   3.591  16.574  2.2905 -0.9817 -0.5748
17333TIP3    H273491   2.968   3.674  16.625 -0.7773  2.6008  0.8172
17334TIP3   OH273492   6.663   1.514   0.638 -0.4387  0.0396  0.7946
17334TIP3    H173493   6.749   1.474   0.644 -0.2973  0.0510 -0.8999
17334TIP3    H273494   6.663   1.559   0.553 -1.9087  0.4963  1.0200
17335TIP3   OH273495   4.882   2.999  12.618 -0.1191  0.1715 -0.0649
17335TIP3    H173496   4.918   3.044  12.541  0.7014 -1.7293 -0.8159
17335TIP3    H273497   4.865   3.069  12.681  3.0477  1.3275 -0.4144
17336TIP3   OH273498   5.945   1.289  15.584  0.1461 -0.1668 -0.0010
17336TIP3    H173499   5.864   1.241  15.600 -0.5023  0.4346 -1.4492
17336TIP3    H273500   5.921   1.381  15.588  0.7013  0.0143 -0.7498
17337TIP3   OH273501   4.238   5.769  16.763 -0.0394  0.3252 -0.1474
17337TIP3    H173502   4.273   5.737  16.680  2.5453 -0.3410  1.1332
17337TIP3    H273503   4.274   5.857  16.771  0.7141 -0.0673  0.8258
17338TIP3   OH273504   6.684   5.993   2.649  0.1550  0.3540  0.3187
17338TIP3    H173505   6.738   6.066   2.679  0.1673  0.2884  0.4607
17338TIP3    H273506   6.594   6.026   2.653  0.2712  0.8796 -1.1318
17339TIP3   OH273507   0.975   5.444   2.380 -0.1320  0.1941  0.1304
17339TIP3    H173508   1.048   5.465   2.322 -0.8253  1.6745 -0.2106
17339TIP3    H273509   0.906   5.504   2.355 -1.7497 -1.6770 -0.0489
17340TIP3   OH273510   2.064   0.345   3.292  0.1423 -0.1904 -0.1520
17340TIP3    H173511   1.993   0.287   3.265 -1.0361  0.3298  1.7434
17340TIP3    H273512   2.028   0.396   3.364  1.9332  1.2267 -0.2086
17341TIP3   OH273513   3.181   0.812   0.810 -0.2682 -0.0733  0.5287
17341TIP3    H173514   3.144   0.752   0.745 -0.8700  0.3179  0.5010
17341TIP3    H273515   3.201   0.891   0.761 -1.9162  0.6876  1.0420
17342TIP3   OH273516   3.859   0.661  11.911 -0.0192  0.2968 -0.1862
17342TIP3    H173517   3.770   0.675  11.878 -0.5396  1.2886  1.5636
17342TIP3    H273518   3.896   0.594  11.854 -2.0093 -0.3546 -0.7290
17343TIP3   OH273519   2.372   6.290  16.678 -0.6677  0.4641 -0.8266
17343TIP3    H173520   2.451   6.320  16.723 -0.0768 -2.0043 -0.1697
17343TIP3    H273521   2.367   6.344  16.599  1.8361  0.4232 -1.0423
17344TIP3   OH273522   1.238   0.782   0.491 -0.2076  0.1134  0.1047
17344TIP3    H173523   1.325   0.807   0.461 -0.5277  2.3420  0.9008
17344TIP3    H273524   1.180   0.849   0.454 -1.4756 -0.9332  0.1687
17345TIP3   OH273525   0.170   6.219   4.653  0.7658  0.0141 -0.1702
17345TIP3    H173526   0.099   6.236   4.715  0.7518 -1.2851  0.1746
17345TIP3    H273527   0.162   6.126   4.633  0.5846  0.4661 -2.3437
17346TIP3   OH273528   2.277   6.444  11.116  0.0067 -0.0003 -0.1176
17346TIP3    H173529   2.273   6.362  11.166  0.0474  0.6658  0.9743
17346TIP3    H273530   2.366   6.476  11.129  0.2909 -0.2600 -1.3302
17347TIP3   OH273531   4.861   5.398  14.011 -0.4068  0.5271  0.1688
17347TIP3    H173532   4.850   5.321  14.068  1.5489  1.0823  1.3516
17347TIP3    H273533   4.944   5.382  13.966  0.1403  2.0674  0.6213
17348TIP3   OH273534   3.979   2.425   2.886 -0.4177  0.1537 -0.2897
17348TIP3    H173535   4.064   2.383   2.894  0.4774  1.4753 -2.3762
17348TIP3    H273536   3.989   2.508   2.931 -0.8439 -0.0260  0.1336
17349TIP3   OH273537   2.862   6.767   4.482  0.4133  0.2785  0.5416
17349TIP3    H173538   2.854   6.674   4.463  0.7993  0.1881  0.8220
17349TIP3    H273539   2.812   6.781   4.562 -0.2571  0.4501  0.0976
17350TIP3   OH273540   1.402   6.250   5.690  0.4136  0.6042  0.2152
17350TIP3    H173541   1.459   6.323   5.715 -0.4534  1.4388 -0.2014
17350TIP3    H273542   1.331   6.291   5.641  1.3758 -0.8121 -2.4743
17351TIP3   OH273543   3.782   2.088   6.655 -0.4992 -0.4736  0.5647
17351TIP3    H173544   3.694   2.112   6.682 -0.2926 -1.0463  1.7452
17351TIP3    H273545   3.815   2.166   6.609 -1.7869 -0.4424 -0.3286
17352TIP3   OH273546   3.736   6.390   3.109  0.0299  0.2989 -0.0568
17352TIP3    H173547   3.742   6.326   3.038 -0.9753  1.3636 -1.1217
17352TIP3    H273548   3.759   6.340   3.188 -0.9472 -1.4298 -0.8306
17353TIP3   OH273549   4.390   4.741  12.411 -0.4733  0.7909 -0.1185
17353TIP3    H173550   4.431   4.709  12.331 -0.1387 -1.7220  0.9971
17353TIP3    H273551   4.463   4.780  12.461  0.0541 -1.0574  0.5919
17354TIP3   OH273552   2.591   4.898   0.701 -0.2475  0.2435 -0.3699
17354TIP3    H173553   2.584   4.854   0.786 -1.0652  0.4698 -0.3177
17354TIP3    H273554   2.657   4.965   0.714 -1.5221  1.3489  0.5574
17355TIP3   OH273555   5.212   6.255  10.416  0.1129 -0.0261  0.4382
17355TIP3    H173556   5.118   6.237  10.409  0.3512 -2.2111  2.1953
17355TIP3    H273557   5.217   6.338  10.464 -0.9310  0.2106  0.1390
17356TIP3   OH273558   1.360   5.085   2.505 -0.3929 -0.3448  0.2612
17356TIP3    H173559   1.289   5.147   2.518  0.1541  0.1457  0.9447
17356TIP3    H273560   1.317   5.002   2.483 -1.1285  0.3062 -0.8320
17357TIP3   OH273561   0.413   5.052   4.046  0.2475  0.5211  0.2236
17357TIP3    H173562   0.346   5.007   3.995  1.1601  0.0878 -0.6015
17357TIP3    H273563   0.378   5.053   4.135 -0.4593 -0.4867 -0.0330
17358TIP3   OH273564   5.994   2.801   1.742  0.4023  0.2153  0.0871
17358TIP3    H173565   5.942   2.869   1.785  1.7185  2.3712 -1.5866
17358TIP3    H273566   5.930   2.738   1.709 -1.0297  1.8121 -0.2394
17359TIP3   OH273567   4.640   2.079   4.925  0.5588  0.2939  0.1972
17359TIP3    H173568   4.624   2.020   4.999  0.5413  0.6710  0.4962
17359TIP3    H273569   4.690   2.027   4.863  2.7489  0.7465  1.5550
17360TIP3   OH273570   0.542   2.523   3.349  0.0479  0.3554 -0.1527
17360TIP3    H173571   0.593   2.579   3.291 -0.6670  1.8295  0.6235
17360TIP3    H273572   0.451   2.537   3.323 -0.0345 -1.9676 -1.2721
17361TIP3   OH273573   3.799   2.758   2.622 -0.9677 -0.1800  0.3052
17361TIP3    H173574   3.887   2.728   2.601  0.5661  3.5257  0.9486
17361TIP3    H273575   3.761   2.783   2.537 -0.0754  1.3938  0.3380
17362TIP3   OH273576   0.480   0.617  14.446 -0.0926  0.2937  0.3257
17362TIP3    H173577   0.441   0.648  14.364 -1.1280  0.4674  0.8652
17362TIP3    H273578   0.444   0.676  14.513 -1.2755 -1.4107  1.2309
17363TIP3   OH273579   0.624   1.350  13.358  0.1571  0.8465  0.0362
17363TIP3    H173580   0.695   1.410  13.380 -0.8822  1.7471  1.0367
17363TIP3    H273581   0.615   1.294  13.435  1.5063 -1.0090 -1.1141
17364TIP3   OH273582   2.959   6.546   2.888  0.1103  0.1609 -0.3076
17364TIP3    H173583   2.940   6.638   2.874 -1.6131 -0.4485 -2.2506
17364TIP3    H273584   2.873   6.504   2.896  0.8036 -1.5530 -1.4151
17365TIP3   OH273585   1.222   4.916   1.047  0.5798 -0.0763 -0.1117
17365TIP3    H173586   1.231   4.986   0.982 -0.1142  0.1237  0.0056
17365TIP3    H273587   1.215   4.962   1.131  0.0499 -0.2804 -0.0425
17366TIP3   OH273588   3.057   1.190   3.531  0.1122  0.4124  0.2380
17366TIP3    H173589   3.135   1.204   3.585 -0.4388  0.8196  0.9418
17366TIP3    H273590   2.988   1.239   3.576 -0.2369  1.2078 -1.1432
17367TIP3   OH273591   6.683   1.636   3.851 -0.3177 -0.1778  0.0668
17367TIP3    H173592   6.732   1.562   3.886 -2.0599 -2.1293 -1.4495
17367TIP3    H273593   6.621   1.596   3.789 -2.6172  2.3539  0.6345
17368TIP3   OH273594   1.186   4.629  14.650  0.2849  0.9773  0.1239
17368TIP3    H173595   1.121   4.694  14.623 -0.5730  0.6942  1.5040
17368TIP3    H273596   1.257   4.680  14.688 -0.9304  1.0645  2.3435
17369TIP3   OH273597   2.682   2.998   1.866  0.3800 -0.0996  0.6728
17369TIP3    H173598   2.719   2.911   1.850 -0.0456 -0.2740  0.6333
17369TIP3    H273599   2.747   3.042   1.921  0.5920 -0.4468  0.7023
17370TIP3   OH273600   5.914   2.235   5.799  0.0335  0.0021 -0.4605
17370TIP3    H173601   5.964   2.308   5.836  0.1543 -1.0550  1.4839
17370TIP3    H273602   5.951   2.223   5.711  0.6677  1.6350 -0.4383
17371TIP3   OH273603   4.790   2.679   4.311  0.1813 -0.2831  0.0451
17371TIP3    H173604   4.865   2.739   4.311  1.8028 -2.2344 -1.9376
17371TIP3    H273605   4.724   2.724   4.258  0.5476  0.7423  0.4524
17372TIP3   OH273606   5.415   1.234  12.042 -0.2345  0.1715 -0.0655
17372TIP3    H173607   5.490   1.249  12.101 -1.5165  1.7002  1.2622
17372TIP3    H273608   5.453   1.229  11.955  1.5555 -0.4075  0.7329
17373TIP3   OH273609   5.227   6.324   1.661  0.1450 -0.7189  0.3513
17373TIP3    H173610   5.245   6.287   1.747  0.0251 -0.0252  0.6807
17373TIP3    H273611   5.176   6.257   1.616  0.9203 -1.4313  0.5159
17374TIP3   OH273612   5.950   0.282   1.491 -0.0346  0.3725  0.3537
17374TIP3    H173613   5.922   0.373   1.483  0.8152  0.5671 -0.5255
17374TIP3    H273614   6.033   0.278   1.443 -0.0397 -0.8472  0.4277
17375TIP3   OH273615   2.148   4.200  15.109 -0.1010 -0.5985 -0.0345
17375TIP3    H173616   2.216   4.267  15.116 -1.3460  0.6860 -0.0475
17375TIP3    H273617   2.167   4.154  15.027 -0.2086  0.8342 -0.8776
17376TIP3   OH273618   5.936   2.908   0.375  0.1135 -0.5180  0.0760
17376TIP3    H173619   5.953   2.819   0.344  0.5757 -0.3723 -0.0786
17376TIP3    H273620   5.852   2.931   0.336  1.7377  0.5110 -2.8969
17377TIP3   OH273621   6.597   1.798   4.200 -0.1365 -0.3635 -0.0130
17377TIP3    H173622   6.516   1.751   4.219  1.3264 -3.7500 -1.7202
17377TIP3    H273623   6.647   1.794   4.281 -1.1956  0.8825  0.7408
17378TIP3   OH273624   2.182   2.115  12.930 -0.3253 -0.0420  0.2913
17378TIP3    H173625   2.208   2.187  12.988  0.0089  0.7022 -0.7577
17378TIP3    H273626   2.180   2.154  12.843  0.2912 -1.4119 -0.3582
17379TIP3   OH273627   0.616   5.361   1.520 -0.1070  0.4683 -0.0800
17379TIP3    H173628   0.570   5.424   1.575 -1.4338  0.9388 -1.6715
17379TIP3    H273629   0.610   5.398   1.431  0.8401 -0.9070 -0.7352
17380TIP3   OH273630   3.400   3.679   3.526 -0.1240 -0.7425 -0.0183
17380TIP3    H173631   3.323   3.729   3.553  0.6390  0.3667  0.1751
17380TIP3    H273632   3.395   3.598   3.576 -2.0404 -1.3908 -1.2554
17381TIP3   OH273633   3.819   4.807   4.130 -0.2911 -0.1509 -0.3720
17381TIP3    H173634   3.753   4.760   4.079 -0.6335  0.7319 -0.7525
17381TIP3    H273635   3.778   4.892   4.150  0.1864 -0.1409  0.6026
17382TIP3   OH273636   2.877   6.532   2.356  0.2194  0.1657  0.3057
17382TIP3    H173637   2.883   6.481   2.437 -0.4711  0.4581  0.5481
17382TIP3    H273638   2.964   6.569   2.344  0.5681 -0.6097  0.4304
17383TIP3   OH273639   1.795   3.012   0.832 -0.1022 -0.0281  0.0087
17383TIP3    H173640   1.779   3.096   0.874 -1.1923 -0.8455  1.2866
17383TIP3    H273641   1.844   2.961   0.897 -1.5887 -1.2236  0.2364
17384TIP3   OH273642   1.150   4.183   4.670  0.0126 -0.3850 -0.4614
17384TIP3    H173643   1.184   4.230   4.746  0.6683 -0.0244 -0.9696
17384TIP3    H273644   1.225   4.133   4.637 -0.2855 -0.5974 -0.8184
17385TIP3   OH273645   5.883   5.673   3.064 -0.2976  0.1962 -0.6260
17385TIP3    H173646   5.790   5.672   3.085 -0.0359  0.8546  0.5881
17385TIP3    H273647   5.920   5.738   3.123  0.6135  1.3848 -2.4649
17386TIP3   OH273648   4.391   5.221  15.115 -0.0974 -0.1647 -0.5629
17386TIP3    H173649   4.454   5.238  15.185 -1.1746  0.4486  0.2738
17386TIP3    H273650   4.321   5.170  15.158 -0.5814 -0.1020 -1.2706
17387TIP3   OH273651   3.280   2.494  12.480  0.0518 -0.2198 -0.4760
17387TIP3    H173652   3.271   2.551  12.557  0.8596  0.6150 -0.9958
17387TIP3    H273653   3.374   2.485  12.467 -0.0763 -0.7972 -1.0520
17388TIP3   OH273654   0.241   5.418  17.169 -0.0984 -0.1811  0.0970
17388TIP3    H173655   0.152   5.425  17.135  0.0247 -0.7546 -0.3560
17388TIP3    H273656   0.288   5.366  17.103  0.3424 -0.6581  0.7802
17389TIP3   OH273657   3.477   2.139  11.727  0.4696 -0.5373  0.1046
17389TIP3    H173658   3.518   2.052  11.734  0.6075 -0.5772 -1.0234
17389TIP3    H273659   3.387   2.121  11.701  0.6306 -0.3312 -0.6141
17390TIP3   OH273660   1.067   2.294   5.388  0.3577 -0.2443 -0.5631
17390TIP3    H173661   1.113   2.364   5.344  0.2073  0.3203  0.1588
17390TIP3    H273662   0.997   2.269   5.328  0.5817  0.0341 -0.9402
17391TIP3   OH273663   3.373   5.719   0.395  0.2876  0.5057  0.1466
17391TIP3    H173664   3.335   5.667   0.324  0.6357  1.1054 -0.4836
17391TIP3    H273665   3.306   5.785   0.414 -0.0237  0.0272  0.7356
17392TIP3   OH273666   1.836   0.058   2.906  0.4342  0.1320 -0.1414
17392TIP3    H173667   1.779  -0.016   2.888  0.8813  0.0021 -1.0534
17392TIP3    H273668   1.803   0.128   2.849 -0.9140  1.1050  1.7882
17393TIP3   OH273669   3.654   3.651  15.238 -0.0547  0.5796  0.2979
17393TIP3    H173670   3.694   3.579  15.190  1.3150 -0.1315  2.4236
17393TIP3    H273671   3.711   3.664  15.314 -1.2988  2.6854  0.9182
17394TIP3   OH273672   5.489   2.429  16.526  0.2975 -0.2678  0.7325
17394TIP3    H173673   5.406   2.469  16.501  0.3542  0.1098  1.1585
17394TIP3    H273674   5.466   2.338  16.548  0.2675 -0.6526 -0.8224
17395TIP3   OH273675   3.570   4.323  13.482 -0.3817 -0.0353  0.2576
17395TIP3    H173676   3.544   4.415  13.490 -0.4049 -0.1243  1.3532
17395TIP3    H273677   3.662   4.325  13.456 -1.0635  0.2862 -2.2524
17396TIP3   OH273678   4.159   1.691  15.917  0.2216  0.1197  0.4551
17396TIP3    H173679   4.170   1.717  16.009  0.3666  3.2161 -0.3885
17396TIP3    H273680   4.235   1.636  15.899  0.9520  0.6557  1.7850
17397TIP3   OH273681   3.381   0.805   1.392 -0.0312  0.1542  0.0062
17397TIP3    H173682   3.333   0.835   1.469  1.4362  1.4531  0.4353
17397TIP3    H273683   3.395   0.884   1.340  0.5369 -0.4221 -0.7235
17398TIP3   OH273684   1.187   0.755   3.046 -0.1872 -0.7084  0.5500
17398TIP3    H173685   1.255   0.818   3.022 -0.2973 -1.1538 -0.9799
17398TIP3    H273686   1.111   0.780   2.994 -0.7714 -1.0257  1.2504
17399TIP3   OH273687   2.130   2.735  13.590  0.1586  0.2374  0.3831
17399TIP3    H173688   2.188   2.774  13.655  1.2788  0.9543 -1.0208
17399TIP3    H273689   2.183   2.730  13.510 -1.5381  0.3830 -0.7815
17400TIP3   OH273690   5.848   0.232  16.885 -0.3924 -0.2509 -0.3474
17400TIP3    H173691   5.924   0.288  16.903 -1.5225  1.7359 -1.6298
17400TIP3    H273692   5.845   0.173  16.960  2.5415 -0.5272 -0.3552
17401TIP3   OH273693   4.616   1.506  15.121  0.1942 -0.2244  0.6745
17401TIP3    H173694   4.588   1.416  15.102  0.2640 -0.0308 -0.3435
17401TIP3    H273695   4.654   1.500  15.209 -0.2067 -1.1028  0.8011
17402TIP3   OH273696   5.476   6.224  16.792 -0.1404  0.7224 -0.3181
17402TIP3    H173697   5.402   6.279  16.769  1.6778  3.1538 -0.5792
17402TIP3    H273698   5.553   6.280  16.779  1.8486 -2.0962 -1.2526
17403TIP3   OH273699   2.394   0.766  13.698  0.3510  0.2799 -0.2656
17403TIP3    H173700   2.397   0.676  13.664 -0.6575  1.0193 -2.3768
17403TIP3    H273701   2.450   0.816  13.640 -1.3327  1.5592 -0.8395
17404TIP3   OH273702   1.619   3.374   3.654  0.5704 -0.5895  0.2119
17404TIP3    H173703   1.681   3.436   3.691  1.0338 -1.1083  0.2997
17404TIP3    H273704   1.672   3.312   3.604  0.0703 -0.6729 -0.2266
17405TIP3   OH273705   4.992   4.280  12.609 -0.1624 -0.2264 -0.1163
17405TIP3    H173706   5.042   4.219  12.555 -1.2185 -1.0376 -0.1970
17405TIP3    H273707   5.007   4.250  12.699 -0.6626 -0.5934 -0.1543
17406TIP3   OH273708   3.409   4.280  14.403 -0.1203  0.5587 -0.9709
17406TIP3    H173709   3.436   4.336  14.330 -1.6188  2.2643 -0.2344
17406TIP3    H273710   3.408   4.338  14.479 -0.1182 -0.8470  0.1114
17407TIP3   OH273711   2.512   3.356   5.445 -0.1485  0.0960  0.5707
17407TIP3    H173712   2.489   3.399   5.528 -1.3597 -1.3579  1.0237
17407TIP3    H273713   2.562   3.279   5.472 -0.4914 -0.3433 -0.0461
17408TIP3   OH273714   5.620   2.889  12.007 -0.1123 -0.4051  0.3513
17408TIP3    H173715   5.558   2.818  12.022 -0.7476  0.0144 -0.2225
17408TIP3    H273716   5.684   2.882  12.078 -0.2380 -1.4695  0.3600
17409TIP3   OH273717   6.572   0.628  16.529 -0.9736  0.1026 -0.3574
17409TIP3    H173718   6.530   0.668  16.605  1.3431 -3.1528  2.8329
17409TIP3    H273719   6.578   0.535  16.552  3.0317 -0.3984 -2.9486
17410TIP3   OH273720   0.284   2.094   4.629 -0.0786 -0.0392 -0.3916
17410TIP3    H173721   0.373   2.076   4.657 -0.5901  0.0513  1.3638
17410TIP3    H273722   0.265   2.028   4.563  1.9191  1.1109 -2.1638
17411TIP3   OH273723   5.346   2.152   3.667 -0.0607 -0.5347  0.8373
17411TIP3    H173724   5.358   2.103   3.749  2.9042  0.1230  0.8585
17411TIP3    H273725   5.349   2.085   3.599 -0.2545 -0.8441  1.1304
17412TIP3   OH273726   6.319   5.203  15.392 -0.8848 -0.4668  0.2151
17412TIP3    H173727   6.271   5.279  15.360 -0.1277 -0.6212 -1.3302
17412TIP3    H273728   6.274   5.128  15.352 -0.5925 -0.7322  0.3817
17413TIP3   OH273729   3.989   4.097  15.219 -0.2347  0.2393 -0.1008
17413TIP3    H173730   4.021   4.050  15.141 -1.6414 -0.1642 -0.4393
17413TIP3    H273731   3.972   4.028  15.283  1.8445  0.6428  0.9290
17414TIP3   OH273732   4.833   1.304   1.520 -0.3525 -0.2953  0.0811
17414TIP3    H173733   4.863   1.281   1.608  0.8540  0.1906 -0.1820
17414TIP3    H273734   4.745   1.338   1.532 -0.2159 -0.2830  1.0932
17415TIP3   OH273735   4.614   1.410   2.092 -0.0437 -0.0774 -0.3130
17415TIP3    H173736   4.675   1.431   2.022  0.7068 -0.9229  0.0858
17415TIP3    H273737   4.664   1.421   2.172  0.4130 -3.3545 -0.0810
17416TIP3   OH273738   0.799   6.189  14.692  0.0282  0.1135 -0.0330
17416TIP3    H173739   0.846   6.111  14.721  1.2846  0.8437 -0.0815
17416TIP3    H273740   0.716   6.156  14.658  0.6657 -1.2321 -0.3009
17417TIP3   OH273741   6.818   5.822   5.890  0.9005  0.0340 -0.0640
17417TIP3    H173742   6.733   5.781   5.908  1.5068 -0.2890  2.2641
17417TIP3    H273743   6.800   5.884   5.820 -1.1632 -0.3786  0.0558
17418TIP3   OH273744   0.410   5.719  14.617  0.2135 -0.2237  1.0303
17418TIP3    H173745   0.423   5.657  14.545  0.5300 -0.8945  1.6585
17418TIP3    H273746   0.344   5.677  14.673 -0.2114  0.4057  1.0099
17419TIP3   OH273747   3.004   6.529  13.531  1.0630 -0.0389  0.4179
17419TIP3    H173748   3.048   6.477  13.598  2.1020  0.5120  0.1629
17419TIP3    H273749   3.061   6.604  13.517  0.9624 -0.2513 -1.2452
17420TIP3   OH273750   2.704   5.993   5.896 -0.3300  0.3212  0.8157
17420TIP3    H173751   2.625   6.013   5.945 -0.3696  1.5490  0.2628
17420TIP3    H273752   2.766   5.961   5.962 -1.2650 -0.5977  1.2487
17421TIP3   OH273753   6.437   6.380   2.071  0.2296  0.5400  0.4492
17421TIP3    H173754   6.532   6.381   2.086  0.2362  0.9693  0.3744
17421TIP3    H273755   6.427   6.416   1.983  0.0238  0.1328  0.3057
17422TIP3   OH273756   5.172   6.229  15.269  0.0026  0.2355 -0.0626
17422TIP3    H173757   5.143   6.238  15.178  1.3321  0.0161 -0.5201
17422TIP3    H273758   5.195   6.317  15.297  0.1108  0.2251 -0.1192
17423TIP3   OH273759   5.839   6.783   5.198  0.3931  0.2614 -0.2405
17423TIP3    H173760   5.803   6.702   5.161  0.4515  0.4007 -0.6027
17423TIP3    H273761   5.930   6.784   5.169  0.2198  0.7809 -0.7721
17424TIP3   OH273762   2.862   2.160   6.799 -0.0933  0.5639  0.2290
17424TIP3    H173763   2.934   2.100   6.822 -0.8099  0.6140  2.8560
17424TIP3    H273764   2.897   2.247   6.817 -0.6586  0.6061  1.2041
17425TIP3   OH273765   5.784   4.677  17.190  0.1416  0.5303  0.4761
17425TIP3    H173766   5.741   4.622  17.255  1.2267 -1.0644 -0.1113
17425TIP3    H273767   5.794   4.762  17.233 -2.1843  0.4947  1.1495
17426TIP3   OH273768   2.614   3.079   5.159  0.1632 -0.1855  0.1825
17426TIP3    H173769   2.705   3.052   5.166  0.7440  0.9054 -2.5109
17426TIP3    H273770   2.619   3.169   5.126 -1.8740  0.1872  0.8322
17427TIP3   OH273771   2.264   5.926  12.598  0.2281 -0.3122 -1.1399
17427TIP3    H173772   2.190   5.986  12.589  0.4509  0.1568 -0.0084
17427TIP3    H273773   2.250   5.859  12.531 -1.0400 -0.0444 -1.1510
17428TIP3   OH273774   4.384   5.314  11.197 -0.2461 -0.2448  0.3890
17428TIP3    H173775   4.324   5.290  11.268 -0.3042  1.5749  0.9920
17428TIP3    H273776   4.329   5.364  11.136  1.0741  3.5198  2.1032
17429TIP3   OH273777   0.429   3.388  15.082 -0.5871 -0.3883  0.1935
17429TIP3    H173778   0.482   3.309  15.091 -0.0201 -0.0700 -0.3835
17429TIP3    H273779   0.434   3.411  14.990 -1.5760 -0.2438  0.1654
17430TIP3   OH273780   2.353   2.416  14.619 -0.3284  0.6850  0.6961
17430TIP3    H173781   2.345   2.443  14.528  0.6715 -0.8518  0.1453
17430TIP3    H273782   2.323   2.492  14.669  1.5946  2.5035 -0.8393
17431TIP3   OH273783   4.079   5.623   5.031 -0.2182  0.3290  0.3301
17431TIP3    H173784   4.050   5.707   5.066  0.0716  0.2230  0.8250
17431TIP3    H273785   4.091   5.567   5.107  0.6263  0.1672  0.0883
17432TIP3   OH273786   5.910   4.344   0.476 -0.1857  0.4505 -0.6971
17432TIP3    H173787   5.976   4.275   0.486  1.2847  1.5151 -2.5725
17432TIP3    H273788   5.915   4.394   0.558 -2.3377 -2.4727  1.3333
17433TIP3   OH273789   2.705   2.433   2.048  0.0358  0.1371 -0.3696
17433TIP3    H173790   2.716   2.527   2.030 -1.4222  0.1050 -1.4939
17433TIP3    H273791   2.682   2.430   2.141 -2.0615  1.0831 -0.8297
17434TIP3   OH273792   4.678   5.307  13.063 -0.3805 -0.4680 -0.3775
17434TIP3    H173793   4.626   5.270  12.991 -0.2352 -0.2132 -0.6098
17434TIP3    H273794   4.731   5.375  13.023 -0.0218 -0.5802 -0.0959
17435TIP3   OH273795   4.906   0.095   0.159 -0.1183  0.2760 -0.6329
17435TIP3    H173796   4.919   0.187   0.180  3.1615 -0.1516 -0.5519
17435TIP3    H273797   4.937   0.086   0.069 -1.0474 -0.6219 -0.8715
17436TIP3   OH273798   2.681   2.097   1.365 -0.2333 -0.3143 -0.0265
17436TIP3    H173799   2.638   2.049   1.435 -0.7922  0.5147  0.2077
17436TIP3    H273800   2.770   2.113   1.397 -0.1085 -1.0038 -0.0223
17437TIP3   OH273801   2.270   1.809   5.805 -0.8470  0.7879 -0.3080
17437TIP3    H173802   2.348   1.862   5.794  0.7651 -1.6641 -1.0638
17437TIP3    H273803   2.275   1.744   5.734 -2.6862 -0.4347  0.6484
17438TIP3   OH273804   1.793   3.244  14.391 -0.3103  0.0373  0.1839
17438TIP3    H173805   1.802   3.149  14.391  0.2574  0.0884  0.1810
17438TIP3    H273806   1.763   3.265  14.302 -1.4028 -0.2182  0.4824
17439TIP3   OH273807   2.284   0.018   3.232 -0.1158 -0.2191  0.3341
17439TIP3    H173808   2.292   0.056   3.320 -0.6263 -3.1543  1.7324
17439TIP3    H273809   2.195  -0.015   3.228 -0.4189  0.8071 -1.7164
17440TIP3   OH273810   2.069   4.193  12.942 -0.3648  0.4094  0.1290
17440TIP3    H173811   1.985   4.151  12.923  0.4714 -0.4186 -1.8786
17440TIP3    H273812   2.112   4.133  13.003 -0.1741 -0.4452 -0.8403
17441TIP3   OH273813   4.853   4.692   5.199  0.2086 -0.3401  0.4750
17441TIP3    H173814   4.813   4.721   5.117  0.3282  0.8150  0.8155
17441TIP3    H273815   4.941   4.664   5.174 -0.8755 -3.1481 -0.3166
17442TIP3   OH273816   3.203   5.518   5.181  0.4600  0.6217  0.4830
17442TIP3    H173817   3.223   5.460   5.255 -0.3404 -0.6010 -0.2345
17442TIP3    H273818   3.280   5.513   5.125  0.6661  0.7647  0.7568
17443TIP3   OH273819   3.618   0.408  14.002  0.1259  0.0075  0.5598
17443TIP3    H173820   3.671   0.437  14.076  2.2252  1.1909 -1.3657
17443TIP3    H273821   3.613   0.313  14.012  0.9626  0.0841  1.8321
17444TIP3   OH273822   3.786   3.359  12.082  0.1209  0.2758  0.1132
17444TIP3    H173823   3.851   3.293  12.105  0.5691  0.6537 -0.0582
17444TIP3    H273824   3.834   3.422  12.029 -0.2625  0.8362  0.4298
17445TIP3   OH273825   5.812   4.667   2.344 -0.5503 -0.2699 -0.3733
17445TIP3    H173826   5.834   4.575   2.331 -1.3644 -0.3538 -1.2300
17445TIP3    H273827   5.802   4.702   2.256 -0.4516  0.5943 -0.0500
17446TIP3   OH273828   5.715   1.200   2.174 -0.0295  0.0390  0.6056
17446TIP3    H173829   5.620   1.192   2.188 -0.8216  1.1340 -3.3712
17446TIP3    H273830   5.732   1.294   2.185  0.6360 -0.1903  1.5273
17447TIP3   OH273831   6.362   3.777   4.272  0.1186  0.0281  0.4534
17447TIP3    H173832   6.308   3.716   4.322  0.9041  0.4393  1.8375
17447TIP3    H273833   6.369   3.854   4.329  1.1830  0.4358 -0.2153
17448TIP3   OH273834   3.376   0.794  11.673  0.5928  0.3982  0.5111
17448TIP3    H173835   3.305   0.755  11.725  0.5506 -1.3645 -0.8365
17448TIP3    H273836   3.338   0.875  11.638 -1.8835 -2.0661 -2.7741
17449TIP3   OH273837   1.192   1.640   2.435 -0.5696  0.3382  0.5070
17449TIP3    H173838   1.210   1.717   2.381 -1.7427  0.5863  0.4379
17449TIP3    H273839   1.097   1.645   2.451 -0.7984 -1.5485 -0.1761
17450TIP3   OH273840   3.803   5.939  13.177 -0.1383 -0.4758  0.1698
17450TIP3    H173841   3.797   5.871  13.245  1.9577 -0.7068  0.1508
17450TIP3    H273842   3.818   5.891  13.096  2.8795  0.0196  0.3729
17451TIP3   OH273843   0.272   6.575   3.473  0.1934  0.0348 -0.2298
17451TIP3    H173844   0.274   6.663   3.435 -0.0017  0.5558  0.9583
17451TIP3    H273845   0.283   6.516   3.398  1.1098  1.0930 -0.9339
17452TIP3   OH273846   1.557   5.486  14.632 -0.2334 -0.1538  0.2270
17452TIP3    H173847   1.467   5.508  14.607 -0.5806 -0.8151  0.8688
17452TIP3    H273848   1.553   5.394  14.658  0.5583 -0.0891  0.6010
17453TIP3   OH273849   0.837   5.332   0.197 -0.0777  0.7473  0.5318
17453TIP3    H173850   0.832   5.351   0.291 -3.1455  0.5521  0.4394
17453TIP3    H273851   0.889   5.252   0.192 -0.6136  0.2746  2.1278
17454TIP3   OH273852   0.613   5.942  15.135  0.4385 -0.1502 -0.3424
17454TIP3    H173853   0.524   5.917  15.113  0.3411  1.0493 -1.3776
17454TIP3    H273854   0.604   6.006  15.206  0.5127 -0.5247  0.0074
17455TIP3   OH273855   6.186   4.126   0.033  0.1234 -0.0092  0.1079
17455TIP3    H173856   6.234   4.053   0.071  0.9684  0.7494  0.5254
17455TIP3    H273857   6.102   4.088   0.005  0.3783 -1.0319  0.7137
17456TIP3   OH273858   2.340   2.566   1.526  0.3640  0.3392 -0.4486
17456TIP3    H173859   2.252   2.531   1.516 -0.2103  1.5807  0.1751
17456TIP3    H273860   2.379   2.514   1.597 -0.9858  1.8643  1.4801
17457TIP3   OH273861   6.303   2.414  15.095  0.9633  0.6521 -0.0197
17457TIP3    H173862   6.365   2.409  15.169  0.6054 -1.4010  0.1838
17457TIP3    H273863   6.252   2.493  15.112  0.5416 -0.0566  2.2503
17458TIP3   OH273864   6.246   0.536   0.551  0.1785 -0.0386  0.0317
17458TIP3    H173865   6.246   0.593   0.628  2.5819 -0.5199  0.4335
17458TIP3    H273866   6.271   0.450   0.585 -3.1041 -1.3178 -0.6213
17459TIP3   OH273867   6.012   2.000  14.974  0.2739  0.3585  0.0892
17459TIP3    H173868   6.106   1.997  14.956  0.3942 -1.4104  0.8554
17459TIP3    H273869   6.006   2.021  15.067  0.0108 -1.8693  0.6070
17460TIP3   OH273870   3.713   5.082   1.444  0.3540 -0.3620 -0.0980
17460TIP3    H173871   3.767   5.052   1.371  1.2665  2.0813 -0.4716
17460TIP3    H273872   3.657   5.151   1.406  0.8637  0.9503  1.4831
17461TIP3   OH273873   2.418   5.608   4.443  0.1161 -0.1652  0.5577
17461TIP3    H173874   2.514   5.608   4.447  0.0820  0.5610  1.5192
17461TIP3    H273875   2.395   5.521   4.410  1.1400 -0.0422 -0.5244
17462TIP3   OH273876   3.964   6.512  17.161 -0.3737 -0.1139  0.2059
17462TIP3    H173877   4.020   6.493  17.236 -1.9241 -1.4684  1.0471
17462TIP3    H273878   3.892   6.564  17.197  1.8475  4.4077 -1.3966
17463TIP3   OH273879   0.189   0.874   5.088  0.3485 -0.1657  0.0342
17463TIP3    H173880   0.118   0.809   5.084  0.5450 -0.3669 -0.2258
17463TIP3    H273881   0.219   0.881   4.997 -0.6173  1.3374 -0.1710
17464TIP3   OH273882   3.952   4.452   5.025 -0.3362  0.0191 -0.6488
17464TIP3    H173883   4.019   4.503   5.071  0.2124 -0.2161 -1.1743
17464TIP3    H273884   3.897   4.518   4.983 -1.9695  0.2979  1.8685
17465TIP3   OH273885   2.631   0.600  17.020 -0.1093  0.1373  0.1780
17465TIP3    H173886   2.649   0.617  16.927  1.6407  1.0480  0.6736
17465TIP3    H273887   2.657   0.509  17.033 -0.9098 -0.1729 -0.3531
17466TIP3   OH273888   2.586   5.993  16.847 -0.1360  0.1084 -0.6295
17466TIP3    H173889   2.679   5.980  16.865 -0.1201  0.2286 -0.6266
17466TIP3    H273890   2.573   6.087  16.854 -0.5331 -0.0299  0.7666
17467TIP3   OH273891   5.519   6.000   4.464 -0.0030 -0.3865  0.3066
17467TIP3    H173892   5.582   5.958   4.405 -1.0781 -0.4080 -0.8458
17467TIP3    H273893   5.504   6.086   4.426 -0.8802 -0.4849  0.4361
17468TIP3   OH273894   3.755   2.196  17.151  0.1871 -0.7300 -0.2023
17468TIP3    H173895   3.727   2.153  17.232 -0.1881  1.5827  0.9480
17468TIP3    H273896   3.698   2.159  17.083  0.0946 -2.2596  0.6888
17469TIP3   OH273897   0.959   0.205  13.953  0.5766 -0.1753  0.2352
17469TIP3    H173898   0.867   0.211  13.928  0.7488  0.7185 -0.2108
17469TIP3    H273899   0.999   0.150  13.885  1.1804  2.7931 -1.9303
17470TIP3   OH273900   2.903   2.660   5.339 -0.4528 -0.2605 -0.1413
17470TIP3    H173901   2.830   2.718   5.321 -0.9666 -0.9162 -0.2072
17470TIP3    H273902   2.881   2.618   5.422 -0.9019 -1.5885 -0.9000
17471TIP3   OH273903   4.842   0.281  13.206  0.1245 -0.4675 -0.2502
17471TIP3    H173904   4.937   0.280  13.195  0.0155  1.5697 -1.5601
17471TIP3    H273905   4.826   0.217  13.276  2.5911  0.2721  1.0697
17472TIP3   OH273906   1.219   6.737   3.348  0.4261  0.0188  0.6147
17472TIP3    H173907   1.188   6.751   3.438 -2.1275 -1.9281  0.1197
17472TIP3    H273908   1.234   6.642   3.343 -0.4352 -0.0482 -1.2652
17473TIP3   OH273909   0.804   3.897   1.850  0.7515 -0.7304  0.2937
17473TIP3    H173910   0.869   3.925   1.785  0.4377 -3.2202 -1.1439
17473TIP3    H273911   0.855   3.851   1.917  0.9627  1.0913  1.4405
17474TIP3   OH273912   5.109   2.773  17.029 -0.3785 -0.5455 -0.1041
17474TIP3    H173913   5.092   2.733  16.944  0.8801  0.6680 -0.9434
17474TIP3    H273914   5.204   2.783  17.033 -0.6154  1.7002  0.3805
17475TIP3   OH273915   0.155   2.942  17.198 -0.3668  0.2970 -0.7667
17475TIP3    H173916   0.188   2.852  17.190  0.9877  0.9365 -2.5254
17475TIP3    H273917   0.087   2.949  17.131 -2.0540 -0.0742  0.8505
17476TIP3   OH273918   1.305   4.827   3.008 -0.8426  0.0997  0.2524
17476TIP3    H173919   1.230   4.768   3.005 -0.1900 -0.7328  0.1202
17476TIP3    H273920   1.302   4.864   3.096 -0.4509 -1.1968  0.8187
17477TIP3   OH273921   0.561   3.088   6.808 -0.0771  0.2734  0.3423
17477TIP3    H173922   0.575   3.142   6.730  0.0553  0.9082  0.8103
17477TIP3    H273923   0.617   3.012   6.794 -0.5888  0.0419 -0.5175
17478TIP3   OH273924   2.539   4.728   4.347  0.4323  0.0024 -0.0012
17478TIP3    H173925   2.598   4.793   4.386  0.9548  0.0509 -0.8530
17478TIP3    H273926   2.464   4.779   4.318  1.3708  0.4422 -1.7622
17479TIP3   OH273927   4.677   6.566  14.960  0.4986  0.6688  0.4245
17479TIP3    H173928   4.586   6.550  14.986  0.3351  1.0052  0.0702
17479TIP3    H273929   4.695   6.498  14.895  0.8991 -0.1554  1.4002
17480TIP3   OH273930   4.208   1.969  13.417 -0.1197 -0.8182 -0.0618
17480TIP3    H173931   4.249   1.994  13.334  1.8538 -1.3168  0.7339
17480TIP3    H273932   4.248   1.885  13.439 -0.0486 -0.3156  1.7727
17481TIP3   OH273933   2.537   2.763  13.816 -0.3389  0.0190 -0.4890
17481TIP3    H173934   2.570   2.761  13.905  1.0889  2.6489 -0.9136
17481TIP3    H273935   2.444   2.785  13.825 -0.2772 -0.0740  0.3631
17482TIP3   OH273936   4.339   6.731   2.939 -0.8940 -0.2431  0.6170
17482TIP3    H173937   4.336   6.700   3.030 -2.3854 -0.5190  0.4951
17482TIP3    H273938   4.304   6.820   2.943  1.5851  0.7732  0.6822
17483TIP3   OH273939   1.543   2.347   4.056  0.0417  0.3613  0.0249
17483TIP3    H173940   1.521   2.369   3.966  0.1421  1.9314  0.3656
17483TIP3    H273941   1.574   2.256   4.052 -1.4148 -0.0868 -1.2607
17484TIP3   OH273942   2.003   1.211   4.892  0.0588  0.1884  0.4214
17484TIP3    H173943   1.939   1.155   4.935 -1.2843  0.5305 -1.0750
17484TIP3    H273944   2.087   1.187   4.932 -0.2175 -4.0927 -1.2241
17485TIP3   OH273945   3.862   2.312   5.749 -0.0607  0.0488  0.0460
17485TIP3    H173946   3.929   2.287   5.685  0.0885  0.7863 -0.0907
17485TIP3    H273947   3.805   2.372   5.702  0.7182  1.5236  0.9178
17486TIP3   OH273948   3.780   3.009  12.666 -0.2354  0.3485 -0.0681
17486TIP3    H173949   3.858   2.959  12.643 -1.0055 -0.1684 -1.6404
17486TIP3    H273950   3.727   3.009  12.586 -1.8802  0.6054  0.9988
17487TIP3   OH273951   3.522   4.918   3.534 -0.0233 -0.2172 -0.1897
17487TIP3    H173952   3.453   4.967   3.580  0.5103  2.1220 -1.7248
17487TIP3    H273953   3.490   4.913   3.443  1.4750  0.2442 -0.7590
17488TIP3   OH273954   3.275   0.575   0.998 -0.0191  0.2932 -0.3598
17488TIP3    H173955   3.334   0.543   1.066 -0.6068  1.5384  0.7716
17488TIP3    H273956   3.289   0.670   0.996 -2.3415  0.7122  0.3660
17489TIP3   OH273957   0.175   3.069   2.523  0.5140  0.3631  0.1403
17489TIP3    H173958   0.246   3.060   2.460  0.2597  1.8694 -0.3822
17489TIP3    H273959   0.191   3.153   2.567  0.1835 -0.2370  1.4474
17490TIP3   OH273960   5.377   2.774   2.326  0.6663 -0.4549 -0.1903
17490TIP3    H173961   5.353   2.770   2.418  1.9049 -0.2136  0.1495
17490TIP3    H273962   5.346   2.860   2.297  0.7952 -0.2959  0.1448
17491TIP3   OH273963   1.094   3.649  13.689  0.7302 -0.3456  0.2898
17491TIP3    H173964   1.183   3.642  13.654  0.4214 -0.0698 -0.5802
17491TIP3    H273965   1.081   3.743  13.700  0.5877 -0.3947  0.5360
17492TIP3   OH273966   4.417   2.862   0.354 -0.6651  0.3319 -0.2233
17492TIP3    H173967   4.434   2.955   0.344  2.8797 -0.1198  0.6916
17492TIP3    H273968   4.389   2.852   0.445 -1.5556  0.5473 -0.4692
17493TIP3   OH273969   3.985   1.791   1.375 -0.6337 -0.5425  0.1731
17493TIP3    H173970   4.031   1.870   1.403 -1.5316 -0.2053  0.7248
17493TIP3    H273971   3.892   1.813   1.382 -0.8906 -1.1313 -1.1580
17494TIP3   OH273972   4.747   1.529  15.363 -0.8666  0.3908 -0.2217
17494TIP3    H173973   4.678   1.566  15.419 -0.8616  0.7386 -0.4443
17494TIP3    H273974   4.802   1.605  15.340 -1.3951  0.4000 -1.4567
17495TIP3   OH273975   0.878   6.407  14.867 -0.4028  0.3855  0.1474
17495TIP3    H173976   0.865   6.352  14.790  0.8202  0.3089 -0.0061
17495TIP3    H273977   0.906   6.346  14.936 -1.7792  0.4065  0.7410
17496TIP3   OH273978   3.630   2.838  16.669  0.5907 -0.3921 -0.3823
17496TIP3    H173979   3.639   2.931  16.689  0.5144  0.0454 -2.3370
17496TIP3    H273980   3.717   2.801  16.686  0.3377 -0.2115  1.4773
17497TIP3   OH273981   1.684   3.813  13.763  0.1486  0.1870  0.5477
17497TIP3    H173982   1.591   3.822  13.785 -0.5529  0.2045 -2.3275
17497TIP3    H273983   1.719   3.757  13.832 -1.9439  0.3446  1.7838
17498TIP3   OH273984   4.846   4.643  17.087  0.3306  0.0334  0.3810
17498TIP3    H173985   4.790   4.718  17.107 -0.6185 -0.6402  0.2312
17498TIP3    H273986   4.820   4.616  16.999  0.2321 -0.8664  0.6805
17499TIP3   OH273987   3.385   4.482  14.589  0.3691 -0.1383 -0.8981
17499TIP3    H173988   3.303   4.531  14.597  0.9495  0.6611  0.2953
17499TIP3    H273989   3.439   4.512  14.662  1.2062 -1.6797 -0.8515
17500TIP3   OH273990   1.774   0.783  12.531 -0.2378  0.4928  0.4233
17500TIP3    H173991   1.858   0.739  12.513 -0.8089  0.1015 -1.3147
17500TIP3    H273992   1.793   0.838  12.607  2.1426  1.9482 -1.1466
17501TIP3   OH273993   0.254   5.267  13.950 -0.2821  0.6292  0.1181
17501TIP3    H173994   0.306   5.345  13.968 -0.6982  0.3828  2.4968
17501TIP3    H273995   0.179   5.299  13.900  0.7530  1.3670 -1.0143
17502TIP3   OH273996   5.626   2.397   0.060 -0.2434 -0.5185  0.1935
17502TIP3    H173997   5.540   2.415   0.098 -0.8964 -1.9020 -0.6221
17502TIP3    H273998   5.609   2.383  -0.033  0.9821  0.0131 -0.1248
17503TIP3   OH273999   5.296   1.307  11.754 -0.0364 -0.2623  0.6239
17503TIP3    H174000   5.364   1.270  11.697  0.2688 -0.4572  1.1124
17503TIP3    H274001   5.224   1.245  11.747 -0.4743  0.3631 -0.5298
17504TIP3   OH274002   4.405   3.834  13.832  0.1105 -0.5251  0.4474
17504TIP3    H174003   4.353   3.807  13.756 -0.1740  2.4096 -0.4739
17504TIP3    H274004   4.354   3.804  13.907 -0.9974 -1.0293 -0.4746
17505TIP3   OH274005   2.575   2.926  14.613 -0.4337 -0.0579  0.6897
17505TIP3    H174006   2.603   3.017  14.602 -0.9126 -0.0885 -0.8498
17505TIP3    H274007   2.595   2.885  14.529 -0.7888 -1.2220  1.1740
17506TIP3   OH274008   1.676   3.018   0.144 -0.3953 -0.5185  0.0188
17506TIP3    H174009   1.750   3.011   0.083  1.6359 -1.1241  2.4616
17506TIP3    H274010   1.710   3.072   0.216 -2.5931 -0.1689  0.8092
17507TIP3   OH274011   3.075   1.226   2.407  0.4873  0.4184 -0.1924
17507TIP3    H174012   3.017   1.160   2.445  1.8800 -0.3292  0.6632
17507TIP3    H274013   3.029   1.255   2.327 -0.2066 -1.4667 -0.5048
17508TIP3   OH274014   1.631   5.608  14.406  0.2988 -0.1551 -0.0204
17508TIP3    H174015   1.627   5.552  14.484  2.8959 -0.8730 -0.3541
17508TIP3    H274016   1.643   5.546  14.334 -1.1694  0.5787 -0.9296
17509TIP3   OH274017   6.064   3.877   3.588  0.4195  0.3953 -0.1379
17509TIP3    H174018   6.050   3.970   3.572 -3.0257 -0.2705 -1.7082
17509TIP3    H274019   6.044   3.865   3.680  0.5468  1.1748 -0.0077
17510TIP3   OH274020   6.526   3.334   4.388 -0.0791 -0.0013  0.0178
17510TIP3    H174021   6.577   3.255   4.407  1.4849  0.9220 -0.2437
17510TIP3    H274022   6.440   3.302   4.361  0.3249 -1.5882  0.6021
17511TIP3   OH274023   1.071   4.260   5.732  0.2426 -0.0187  0.5178
17511TIP3    H174024   1.017   4.194   5.688  0.4407 -0.0265  0.2840
17511TIP3    H274025   1.012   4.300   5.796  0.4370 -1.1857  1.4405
17512TIP3   OH274026   1.977   5.641   5.766  0.2288  0.1108 -0.6630
17512TIP3    H174027   1.962   5.620   5.674  0.4499  0.4597 -0.7786
17512TIP3    H274028   2.006   5.732   5.766 -0.1928  0.2532 -0.2140
17513TIP3   OH274029   5.172   4.947   5.092  0.3484 -0.1584  0.0071
17513TIP3    H174030   5.114   4.877   5.065 -0.4944  0.6446 -0.2837
17513TIP3    H274031   5.224   4.909   5.163 -0.1519 -1.0452 -0.0955
17514TIP3   OH274032   6.724   2.630   5.544 -0.0747  0.7634  0.0335
17514TIP3    H174033   6.782   2.565   5.585  1.9117  2.0465 -0.6447
17514TIP3    H274034   6.720   2.604   5.452 -2.3548 -0.5505  0.4577
17515TIP3   OH274035   2.273   5.293  10.596  0.0204 -0.0323 -0.4832
17515TIP3    H174036   2.205   5.359  10.610 -1.2827 -1.1908 -1.1983
17515TIP3    H274037   2.355   5.340  10.611 -0.9699  1.0341  1.7831
17516TIP3   OH274038   0.930   0.050  14.867 -0.4106  0.4027 -0.3465
17516TIP3    H174039   0.954   0.052  14.775  3.9974  2.7336  0.7279
17516TIP3    H274040   0.981  -0.023  14.903 -0.8877  0.5134  0.5584
17517TIP3   OH274041   1.463   6.506  17.199  0.2816 -0.0621  0.1958
17517TIP3    H174042   1.500   6.482  17.285  0.3229 -2.3371 -0.4117
17517TIP3    H274043   1.525   6.468  17.136  0.4276  1.8797 -0.8566
17518TIP3   OH274044   6.121   1.232  17.122  0.0278 -0.0587  0.1086
17518TIP3    H174045   6.103   1.316  17.165  0.7008  1.3664 -2.2740
17518TIP3    H274046   6.051   1.174  17.151 -0.5406  1.3941  1.6631
17519TIP3   OH274047   0.824   6.692   5.957  0.0739  0.0084  0.6370
17519TIP3    H174048   0.808   6.600   5.977 -0.1928 -0.3061 -0.9505
17519TIP3    H274049   0.747   6.720   5.907  0.8300  0.6563 -0.1901
17520TIP3   OH274050   6.374   6.664   1.163  0.3034  1.1581  0.2698
17520TIP3    H174051   6.413   6.675   1.250  0.1546  2.6353  0.1706
17520TIP3    H274052   6.355   6.753   1.134 -1.5871  0.5611 -0.4013
17521TIP3   OH274053   1.313   5.583   4.143 -0.3588 -0.2758  0.3648
17521TIP3    H174054   1.281   5.622   4.225 -1.1334  0.0345 -0.0746
17521TIP3    H274055   1.248   5.609   4.078  1.0332  0.7558 -0.6532
17522TIP3   OH274056   3.593   3.199   4.292  0.7619 -0.2683  0.0769
17522TIP3    H174057   3.569   3.223   4.381 -3.5116 -2.4147 -0.3772
17522TIP3    H274058   3.642   3.118   4.301  0.3030 -0.5021  0.4817
17523TIP3   OH274059   3.205   0.581  10.979  0.0049 -0.5471 -0.5447
17523TIP3    H174060   3.181   0.493  10.951  0.3635 -0.4912 -1.0303
17523TIP3    H274061   3.203   0.633  10.899 -2.5166  0.4088  0.0776
17524TIP3   OH274062   1.264   4.301  11.789 -0.3566  0.1458 -0.0678
17524TIP3    H174063   1.262   4.397  11.786  0.0634  0.1292 -1.1784
17524TIP3    H274064   1.172   4.275  11.778 -0.1730  0.3786 -2.2946
17525TIP3   OH274065   5.955   3.450  12.787 -0.2954 -0.0673 -0.2768
17525TIP3    H174066   5.981   3.535  12.821 -1.3344  0.4745 -0.8173
17525TIP3    H274067   6.030   3.393  12.806 -0.1479  0.6211  1.3429
17526TIP3   OH274068   0.269   2.234  16.563  0.1189 -0.3912 -0.0225
17526TIP3    H174069   0.230   2.157  16.605  1.0210 -0.6584  0.3553
17526TIP3    H274070   0.362   2.230  16.588  0.1203  0.9894  0.2664
17527TIP3   OH274071   2.875   0.683  16.187  0.3680  0.2232 -0.2860
17527TIP3    H174072   2.849   0.773  16.205 -0.8260  0.2216 -1.7933
17527TIP3    H274073   2.797   0.631  16.209  0.4667 -0.2490 -1.0384
17528TIP3   OH274074   1.547   0.423  13.911  0.1540  0.2581  0.5339
17528TIP3    H174075   1.470   0.451  13.861 -0.1764 -0.0750  0.8512
17528TIP3    H274076   1.610   0.495  13.901  0.5574 -0.3376 -1.3811
17529TIP3   OH274077   6.699   6.182  14.646  0.0527 -0.5190 -0.1743
17529TIP3    H174078   6.741   6.214  14.726  0.5160  0.7406 -0.9021
17529TIP3    H274079   6.605   6.194  14.661  0.1766  0.3262 -0.0817
17530TIP3   OH274080   1.682   5.384   0.792  0.0677 -0.2205  0.2484
17530TIP3    H174081   1.774   5.359   0.779  0.2404 -0.5217  1.9897
17530TIP3    H274082   1.658   5.345   0.876 -1.6212 -0.0227 -0.1344
17531TIP3   OH274083   5.768   6.468  11.231 -0.0755 -0.9115  1.0542
17531TIP3    H174084   5.709   6.445  11.302  1.7784 -2.7544  2.0671
17531TIP3    H274085   5.714   6.517  11.169 -2.0178 -0.3743  3.1220
17532TIP3   OH274086   3.374   4.624  12.922  0.0477 -0.1048 -0.3187
17532TIP3    H174087   3.434   4.694  12.947 -0.5770  0.2550  0.1923
17532TIP3    H274088   3.428   4.563  12.872  0.4704  1.0595 -1.3326
17533TIP3   OH274089   5.803   0.827  12.423  0.1250 -0.4916  0.3027
17533TIP3    H174090   5.748   0.751  12.443  1.2566 -0.9070  1.9403
17533TIP3    H274091   5.743   0.891  12.384 -1.3041 -1.3191  1.1053
17534TIP3   OH274092   1.229   4.001  15.143  0.2015  0.2693 -0.0237
17534TIP3    H174093   1.259   4.088  15.116  1.7703 -0.5251 -0.8752
17534TIP3    H274094   1.270   3.987  15.228 -1.1628  0.9136  0.7625
17535TIP3   OH274095   5.551   1.281  13.508  0.1650  0.2639 -0.2678
17535TIP3    H174096   5.606   1.204  13.492  0.3111  0.1383  0.7993
17535TIP3    H274097   5.564   1.336  13.431  0.7481 -0.3771 -0.6333
17536TIP3   OH274098   6.005   5.487   0.618 -0.4790 -0.3232 -0.7871
17536TIP3    H174099   5.938   5.429   0.656 -0.1812 -0.7265 -0.8809
17536TIP3    H274100   6.004   5.467   0.524 -0.3864 -0.1618 -0.8236
17537TIP3   OH274101   1.243   2.504  15.999  0.4740 -0.4904  0.0022
17537TIP3    H174102   1.239   2.468  15.910 -0.5731 -2.5374  0.8530
17537TIP3    H274103   1.322   2.466  16.036 -0.0242 -1.0368  0.5169
17538TIP3   OH274104   5.036   4.212   3.790 -0.0876  0.0374 -0.6629
17538TIP3    H174105   5.026   4.122   3.758 -1.4235 -0.2183  0.4271
17538TIP3    H274106   5.121   4.213   3.833 -0.0106 -0.6799 -0.7914
17539TIP3   OH274107   1.792   2.715   3.470  0.4077 -0.6632  0.7520
17539TIP3    H174108   1.808   2.799   3.512  0.6704 -0.0539 -0.5347
17539TIP3    H274109   1.865   2.704   3.409  0.7566 -2.1593  1.4084
17540TIP3   OH274110   4.189   1.361   0.165  0.0818 -0.7199  0.1118
17540TIP3    H174111   4.141   1.441   0.185  0.7314 -0.8010  2.1127
17540TIP3    H274112   4.218   1.372   0.075 -1.2810  0.5497 -0.1925
17541TIP3   OH274113   2.646   2.229   0.287  0.2668 -0.1771  0.0999
17541TIP3    H174114   2.564   2.221   0.239  0.5824  1.9978 -0.8616
17541TIP3    H274115   2.622   2.274   0.368  0.6388  1.2963 -0.5961
17542TIP3   OH274116   6.815   6.545   3.827 -0.1445  0.3903 -0.3040
17542TIP3    H174117   6.884   6.485   3.799 -0.7043 -0.5541  0.3453
17542TIP3    H274118   6.857   6.602   3.891 -0.3491 -1.2021  1.2925
17543TIP3   OH274119   5.346   5.375   1.613 -0.1879  0.5857  0.1323
17543TIP3    H174120   5.300   5.371   1.697 -1.8605  0.1705 -0.7756
17543TIP3    H274121   5.368   5.284   1.593  1.6067  0.8400  0.8469
17544TIP3   OH274122   5.509   6.218   5.190  0.1733 -0.1779 -0.0490
17544TIP3    H174123   5.506   6.207   5.285  0.9231  1.9316  0.2479
17544TIP3    H274124   5.418   6.213   5.162 -0.0364 -0.9697  0.7371
17545TIP3   OH274125   4.020   6.683  15.984 -0.3481  0.1256 -0.4371
17545TIP3    H174126   3.931   6.712  15.962 -0.4915 -0.0647 -0.1116
17545TIP3    H274127   4.029   6.701  16.077  0.2135  0.8063 -0.6194
17546TIP3   OH274128   0.911   1.046  14.296  0.2525 -0.3585  0.1463
17546TIP3    H174129   0.885   1.138  14.293  1.4093 -0.0242 -0.0424
17546TIP3    H274130   0.996   1.046  14.341  0.6807 -1.2220 -0.6300
17547TIP3   OH274131   6.103   0.735  11.834  0.4551 -0.2726 -0.3226
17547TIP3    H174132   6.099   0.811  11.775 -1.3209 -0.3644 -0.3634
17547TIP3    H274133   6.015   0.730  11.872  0.9414 -1.5333  0.6752
17548TIP3   OH274134   0.428   2.181   1.813  0.1527  0.6498  0.6828
17548TIP3    H174135   0.514   2.218   1.834  0.9254 -0.4236 -0.5400
17548TIP3    H274136   0.387   2.167   1.899  1.1220  1.3027  1.2692
17549TIP3   OH274137   1.910   1.413   0.459  0.0794  0.4198  0.2011
17549TIP3    H174138   1.907   1.490   0.516  2.3265 -1.4511  2.9603
17549TIP3    H274139   1.988   1.426   0.406  0.9173 -0.3178  1.2383
17550TIP3   OH274140   6.262   2.889   3.962 -0.0876  0.0569  0.0815
17550TIP3    H174141   6.169   2.908   3.947 -1.1657 -2.8096  2.4583
17550TIP3    H274142   6.296   2.863   3.876 -2.2984 -1.7921 -0.2949
17551TIP3   OH274143   1.952   0.553  10.694  0.6278  0.5773  0.3330
17551TIP3    H174144   1.869   0.584  10.731 -0.3092  0.8615 -1.9330
17551TIP3    H274145   1.983   0.488  10.757 -1.6473 -0.0007  0.9228
17552TIP3   OH274146   6.670   2.324  15.040  0.2336 -0.0969  0.2436
17552TIP3    H174147   6.693   2.401  14.989  0.8698 -0.4982 -0.0782
17552TIP3    H274148   6.754   2.287  15.067 -0.0906 -0.0531  1.3357
17553TIP3   OH274149   0.590   0.699  11.980  0.2976 -0.0720 -0.1460
17553TIP3    H174150   0.661   0.749  12.021 -0.1680  0.1764  0.3660
17553TIP3    H274151   0.626   0.612  11.967  0.8230  0.1553 -0.2276
17554TIP3   OH274152   3.140   3.415   5.435 -0.1179 -0.5954 -0.0295
17554TIP3    H174153   3.046   3.408   5.454 -0.3995  2.4182 -0.0745
17554TIP3    H274154   3.183   3.397   5.519 -0.7726 -0.8960  0.2464
17555TIP3   OH274155   2.887   2.274  11.243  0.2850  0.5168 -0.1698
17555TIP3    H174156   2.805   2.316  11.217 -0.7605 -1.0890  0.4259
17555TIP3    H274157   2.882   2.187  11.203  2.0278  0.6472 -0.7035
17556TIP3   OH274158   3.730   3.224   2.960  0.2170  0.5635 -0.7567
17556TIP3    H174159   3.641   3.257   2.954 -0.2967 -0.5297  0.5071
17556TIP3    H274160   3.776   3.290   3.012  0.1962  1.2156 -1.5601
17557TIP3   OH274161   6.591   5.208   3.284 -0.2292 -0.2964 -0.3651
17557TIP3    H174162   6.616   5.249   3.201 -0.7226  1.0915  0.1683
17557TIP3    H274163   6.671   5.165   3.315  0.7561  1.6990 -0.0745
17558TIP3   OH274164   2.098   2.319  14.656  0.2772 -0.0890 -0.1117
17558TIP3    H174165   2.134   2.230  14.652 -1.3828 -0.7599 -0.6951
17558TIP3    H274166   2.101   2.350  14.566  1.7087  0.8220  0.2320
17559TIP3   OH274167   0.090   4.579   1.655 -0.3410  0.1502  0.1561
17559TIP3    H174168   0.096   4.547   1.565 -1.6281  0.7028 -0.1384
17559TIP3    H274169   0.003   4.617   1.661 -0.1670  0.3516  1.5691
17560TIP3   OH274170   6.269   1.317  15.628 -0.5344 -0.1254  0.3495
17560TIP3    H174171   6.224   1.360  15.555 -2.5288  0.6092  1.9983
17560TIP3    H274172   6.250   1.371  15.704  0.7696 -1.4019  1.6216
17561TIP3   OH274173   0.797   4.951   0.850  0.4211 -0.9363  0.3902
17561TIP3    H174174   0.795   5.011   0.925  2.1029  0.2978 -0.4962
17561TIP3    H274175   0.727   4.888   0.867 -2.2725  2.0071  0.7828
17562TIP3   OH274176   1.045   1.682  15.829  0.4275 -0.2754  0.7565
17562TIP3    H174177   1.106   1.694  15.756 -0.7734  0.7956 -0.1104
17562TIP3    H274178   1.099   1.688  15.907  1.3244  1.5109  0.0390
17563TIP3   OH274179   3.034   0.402  15.043  0.5036  0.0886 -0.4945
17563TIP3    H174180   2.977   0.472  15.010 -0.6652 -0.8617 -0.5170
17563TIP3    H274181   3.018   0.400  15.137  0.0692 -0.5573 -0.5794
17564TIP3   OH274182   0.954   5.891   5.425 -0.4976  0.1809 -0.0437
17564TIP3    H174183   0.917   5.883   5.513  1.2884 -1.2185  0.6065
17564TIP3    H274184   1.036   5.842   5.428 -0.9308 -0.8331 -2.8084
17565TIP3   OH274185   5.296   3.472  12.380  0.4488 -0.1024  0.4820
17565TIP3    H174186   5.299   3.499  12.472 -1.6689 -0.9683  0.8489
17565TIP3    H274187   5.320   3.379  12.381  2.7466  0.4504 -0.1583
17566TIP3   OH274188   1.968   0.353   5.635 -0.1337 -0.1765 -0.2137
17566TIP3    H174189   1.931   0.318   5.716 -0.0494  1.3236  0.4883
17566TIP3    H274190   2.059   0.372   5.656 -0.4229  1.3414 -0.3081
17567TIP3   OH274191   3.601   1.423   3.258 -0.2627  0.5859 -0.5336
17567TIP3    H174192   3.593   1.447   3.165  1.4911  2.7178 -0.1799
17567TIP3    H274193   3.511   1.422   3.290 -0.9012 -0.2543 -2.2792
17568TIP3   OH274194   6.105   2.358  15.744  0.7034  0.4622 -0.4002
17568TIP3    H174195   6.099   2.263  15.755 -1.7177  0.6348  0.1154
17568TIP3    H274196   6.045   2.378  15.673  1.2019  1.6078 -0.5055
17569TIP3   OH274197   6.513   4.888  16.102 -0.4307  0.1441 -0.5338
17569TIP3    H174198   6.534   4.844  16.020 -0.3440 -1.7758  0.4719
17569TIP3    H274199   6.543   4.827  16.170 -1.1926  1.3516  0.9213
17570TIP3   OH274200   2.512   2.978   0.992  0.7288  0.0708 -0.0563
17570TIP3    H174201   2.501   2.941   1.079  0.9362  0.7542  0.2605
17570TIP3    H274202   2.457   2.923   0.935  1.2983 -0.9273  0.3507
17571TIP3   OH274203   1.055   0.112   0.587  0.0032  0.3364  0.2175
17571TIP3    H174204   1.146   0.082   0.591  0.7560  2.6647  0.8682
17571TIP3    H274205   1.043   0.165   0.666 -1.4272  1.3989 -0.6894
17572TIP3   OH274206   3.422   2.728  11.944  0.3006 -0.1163 -0.1858
17572TIP3    H174207   3.439   2.809  11.895 -0.2855  0.6300  0.8275
17572TIP3    H274208   3.480   2.663  11.905 -0.6174  0.3004 -2.3309
17573TIP3   OH274209   5.858   1.065   5.537  0.2522 -0.4895  0.4989
17573TIP3    H174210   5.903   0.981   5.536 -2.3157 -1.8938 -2.4663
17573TIP3    H274211   5.772   1.048   5.499 -0.0829  3.5951 -0.8352
17574TIP3   OH274212   0.899   6.359  16.061 -0.0053  0.0494  0.3624
17574TIP3    H174213   0.873   6.362  15.969  2.5901 -2.1904 -0.4726
17574TIP3    H274214   0.851   6.285  16.097  1.2121 -0.8992  0.0694
17575TIP3   OH274215   4.287   4.899   3.703 -0.0148 -0.7905  0.1319
17575TIP3    H174216   4.318   4.815   3.738 -0.4371 -0.6645  0.8296
17575TIP3    H274217   4.251   4.878   3.617  0.3276 -1.2419  0.0967
17576TIP3   OH274218   3.817   5.502   3.654 -0.4664 -0.1109  0.2672
17576TIP3    H174219   3.806   5.437   3.585 -2.9415  0.0861  0.4237
17576TIP3    H274220   3.868   5.572   3.614  0.4994 -1.2615 -0.5045
17577TIP3   OH274221   0.051   3.076  15.797  0.7280  0.1247 -0.1536
17577TIP3    H174222   0.086   3.164  15.812  2.7360 -0.7665  0.6551
17577TIP3    H274223   0.118   3.032  15.745  0.8889 -1.6671  1.4962
17578TIP3   OH274224   6.353   3.664  15.890 -0.6684  0.2920  0.4089
17578TIP3    H174225   6.284   3.603  15.915  1.0827 -1.4345  1.1629
17578TIP3    H274226   6.386   3.631  15.806 -0.7337  1.0818  0.0671
17579TIP3   OH274227   1.777   5.269  16.848 -0.5092 -0.3525 -0.3721
17579TIP3    H174228   1.762   5.293  16.939  0.0198 -1.2265 -0.0521
17579TIP3    H274229   1.855   5.318  16.822  0.7387 -1.9253  0.3686
17580TIP3   OH274230   0.779   2.503   3.705  0.8070 -0.0998  0.3991
17580TIP3    H174231   0.795   2.593   3.732  0.1134 -0.0782  0.7496
17580TIP3    H274232   0.866   2.468   3.686  1.0904  0.5996  0.3908
17581TIP3   OH274233   0.323   0.053   5.947 -0.0020  0.4738 -1.0443
17581TIP3    H174234   0.413   0.077   5.970  0.2861 -0.4880 -1.1404
17581TIP3    H274235   0.331   0.005   5.864 -0.3875 -1.1952 -0.1496
17582TIP3   OH274236   4.904   1.027  14.259  0.0662  0.2384  0.2400
17582TIP3    H174237   4.931   0.947  14.303  2.8248  1.6876  1.2572
17582TIP3    H274238   4.965   1.035  14.186 -1.3407  0.4961 -0.9277
17583TIP3   OH274239   4.508   4.736  15.318  0.0799  0.1319  0.0139
17583TIP3    H174240   4.589   4.738  15.267 -0.7287  0.7358 -1.2443
17583TIP3    H274241   4.496   4.644  15.339  1.8862  0.1806  1.5155
17584TIP3   OH274242   4.845   1.242  12.426 -0.2390 -0.0434  0.7422
17584TIP3    H174243   4.901   1.307  12.469  1.0590 -0.8142  0.2369
17584TIP3    H274244   4.837   1.272  12.336  0.6342 -0.7612  0.4247
17585TIP3   OH274245   2.791   2.511   4.853  0.2281  0.3895  0.3461
17585TIP3    H174246   2.791   2.506   4.949  0.9763  0.1448  0.3322
17585TIP3    H274247   2.699   2.528   4.831  0.0586  0.5001  1.1078
17586TIP3   OH274248   0.662   0.573   5.441 -0.4752 -0.0991  0.4146
17586TIP3    H174249   0.666   0.633   5.515  1.5229 -0.7783  0.8886
17586TIP3    H274250   0.655   0.630   5.364  3.0202  0.8591  0.7279
17587TIP3   OH274251   5.863   1.964   2.104  0.2285  0.1532  0.6085
17587TIP3    H174252   5.816   1.938   2.025  0.8796  0.2705  0.1754
17587TIP3    H274253   5.901   2.049   2.083 -0.4039  0.6432  1.3989
17588TIP3   OH274254   0.913   5.583   1.543  0.4948  0.4359 -0.5135
17588TIP3    H174255   0.925   5.585   1.638 -0.8915  0.7473 -0.3348
17588TIP3    H274256   0.891   5.674   1.521 -0.5408  0.0776 -0.9481
17589TIP3   OH274257   4.207   5.503   3.163 -0.5003 -0.0908  0.3036
17589TIP3    H174258   4.294   5.522   3.127 -0.2088  2.4994  2.1971
17589TIP3    H274259   4.148   5.563   3.118 -0.6539  0.8892  1.7816
17590TIP3   OH274260   0.183   4.039   3.801  0.0088 -0.1171 -0.2637
17590TIP3    H174261   0.180   3.953   3.843 -0.7518 -1.7626 -3.5625
17590TIP3    H274262   0.276   4.060   3.794  0.1679 -0.1300  1.5129
17591TIP3   OH274263   5.254   1.625  13.872  0.2290  0.2065 -0.2540
17591TIP3    H174264   5.196   1.701  13.866 -0.7669 -0.3097  2.3003
17591TIP3    H274265   5.221   1.565  13.804  0.0205  1.3821 -1.2065
17592TIP3   OH274266   0.518   4.906  11.442 -0.3415  0.0595  0.5400
17592TIP3    H174267   0.605   4.907  11.481 -0.7728 -0.3619  1.5529
17592TIP3    H274268   0.527   4.853  11.364  0.6270  1.2156 -0.1536
17593TIP3   OH274269   3.967   4.745   0.080  0.2488 -0.7068  0.0156
17593TIP3    H174270   3.960   4.829   0.034 -0.0674 -1.0719 -0.6200
17593TIP3    H274271   3.915   4.756   0.159  2.9272  0.8178  1.6510
17594TIP3   OH274272   1.442   3.036  13.383 -0.1377  0.0946  0.2379
17594TIP3    H174273   1.513   3.049  13.322 -2.7897  1.0810 -2.7805
17594TIP3    H274274   1.382   2.976  13.339 -2.1091  0.7869  1.8653
17595TIP3   OH274275   5.962   5.646   0.165 -0.0049 -0.4250 -0.4808
17595TIP3    H174276   5.891   5.623   0.105  0.1423  0.6960 -1.0875
17595TIP3    H274277   6.031   5.583   0.145 -0.8861 -1.6321  0.2347
17596TIP3   OH274278   5.074   1.099   2.471 -0.6246 -0.2236 -0.1341
17596TIP3    H174279   5.065   1.076   2.379  0.4793  0.0898 -0.3204
17596TIP3    H274280   5.167   1.115   2.483 -0.7648 -0.2434  1.0334
17597TIP3   OH274281   3.862   3.309   6.080  0.1775 -0.1466  0.4713
17597TIP3    H174282   3.785   3.270   6.038 -0.4965  0.8911  0.7354
17597TIP3    H274283   3.927   3.314   6.010  0.2867 -1.7556  0.4378
17598TIP3   OH274284   1.966   1.382   5.697 -0.1551 -0.1754 -0.1089
17598TIP3    H174285   1.941   1.357   5.786 -0.5617 -0.6807 -0.3649
17598TIP3    H274286   1.883   1.393   5.651  0.0690 -0.6031 -0.6149
17599TIP3   OH274287   1.599   6.450   2.504 -0.0121 -0.1132  0.0342
17599TIP3    H174288   1.587   6.504   2.426  0.9432 -0.0417 -0.0784
17599TIP3    H274289   1.605   6.512   2.576  1.2297 -0.0438 -0.1133
17600TIP3   OH274290   6.612   5.870   0.622 -0.3782  0.0224 -0.4536
17600TIP3    H174291   6.536   5.919   0.590 -1.8398 -1.4185  0.7805
17600TIP3    H274292   6.643   5.921   0.696 -0.6115  0.1981 -0.4748
17601TIP3   OH274293   0.589   1.615   3.715 -0.4899 -0.0719 -0.1455
17601TIP3    H174294   0.502   1.591   3.748 -0.5058 -1.6842 -1.2881
17601TIP3    H274295   0.584   1.598   3.621  0.9801  0.0976 -0.2560
17602TIP3   OH274296   1.260   2.559   3.237  0.1010  0.0482  0.0856
17602TIP3    H174297   1.178   2.605   3.252  1.3658  2.3574  0.0733
17602TIP3    H274298   1.279   2.515   3.319 -0.5456  0.4596  0.4550
17603TIP3   OH274299   2.424   0.378   0.988  0.5459  0.4661  0.4316
17603TIP3    H174300   2.347   0.434   0.997  1.1370  0.9574  2.8052
17603TIP3    H274301   2.491   0.434   0.949  0.2802  0.5885  0.1564
17604TIP3   OH274302   2.101   0.752  11.914  0.0904 -0.2753  0.0307
17604TIP3    H174303   2.081   0.704  11.994  1.7441  0.0779  0.6755
17604TIP3    H274304   2.101   0.844  11.941 -0.4936 -0.0815 -0.6265
17605TIP3   OH274305   6.370   2.187  15.476  0.1453 -0.1141 -0.3715
17605TIP3    H174306   6.293   2.217  15.427  0.5271 -0.2736 -1.0728
17605TIP3    H274307   6.423   2.266  15.488 -0.0904 -0.0168  0.0548
17606TIP3   OH274308   6.165   4.125   2.108 -0.2446  0.5097  0.0893
17606TIP3    H174309   6.156   4.194   2.042  1.4746  0.4576 -0.2159
17606TIP3    H274310   6.258   4.122   2.128 -0.3030 -1.5998  0.2310
17607TIP3   OH274311   3.062   1.159  13.307 -0.3694  0.3564  0.4954
17607TIP3    H174312   3.053   1.250  13.278 -1.0690 -0.3417 -1.5295
17607TIP3    H274313   3.103   1.166  13.393  0.4320  2.5517 -0.0280
17608TIP3   OH274314   2.541   0.482  13.337  0.1663 -0.3959 -0.3948
17608TIP3    H174315   2.515   0.560  13.288 -1.5228 -1.1880 -0.7986
17608TIP3    H274316   2.636   0.484  13.336  0.1499  0.7938 -1.7860
17609TIP3   OH274317   0.895   3.843   1.587 -0.9012 -0.2048 -0.0435
17609TIP3    H174318   0.973   3.821   1.536 -1.5501 -2.5650 -0.0594
17609TIP3    H274319   0.847   3.905   1.531 -0.6394 -1.2596 -1.4748
17610TIP3   OH274320   3.588   3.909  12.014  0.0290 -0.5807 -0.3205
17610TIP3    H174321   3.527   3.978  12.039  2.1870  0.4082  2.4452
17610TIP3    H274322   3.649   3.952  11.954  1.5533  0.0590  1.6372
17611TIP3   OH274323   6.523   6.074  13.650  0.0687 -0.2436 -0.2591
17611TIP3    H174324   6.538   6.001  13.710  1.5611  0.3617  0.1201
17611TIP3    H274325   6.429   6.071  13.632 -0.3166 -0.7127  1.7323
17612TIP3   OH274326   6.794   2.160  12.878 -0.3295 -0.1109  0.1441
17612TIP3    H174327   6.700   2.139  12.868 -0.1285 -1.5268  1.0705
17612TIP3    H274328   6.838   2.082  12.846  0.5479  0.5692 -0.3075
17613TIP3   OH274329   0.367   0.424  13.958 -0.2982 -0.9599 -0.2667
17613TIP3    H174330   0.455   0.428  13.996 -0.1989 -0.9375 -0.5012
17613TIP3    H274331   0.373   0.475  13.877 -0.8608  0.1443  0.3711
17614TIP3   OH274332   5.457   3.914  13.367 -0.3459  0.1526 -0.3629
17614TIP3    H174333   5.468   3.999  13.324 -2.0702  0.7246  0.2726
17614TIP3    H274334   5.543   3.894  13.403  0.3179  1.1845 -1.3244
17615TIP3   OH274335   6.560   2.684  11.612  0.2816  0.0713  0.7577
17615TIP3    H174336   6.590   2.594  11.601 -0.8858 -0.0143 -2.2740
17615TIP3    H274337   6.637   2.732  11.642  1.0775 -1.8170  1.8012
17616TIP3   OH274338   4.549   2.323   5.096  0.1218 -0.1360 -0.3925
17616TIP3    H174339   4.577   2.262   5.165  1.3766 -0.6524 -1.3288
17616TIP3    H274340   4.558   2.272   5.015  1.1504  1.2956 -1.1821
17617TIP3   OH274341   6.339   1.360   2.959 -0.0356  0.3075 -0.5168
17617TIP3    H174342   6.419   1.315   2.986  0.4933  1.1595 -0.6216
17617TIP3    H274343   6.306   1.310   2.885  0.1525 -0.3074 -0.1881
17618TIP3   OH274344   2.350   0.516  12.726  0.5527  0.3633 -0.8224
17618TIP3    H174345   2.397   0.489  12.804 -0.0995  0.0936 -0.5153
17618TIP3    H274346   2.381   0.605  12.708  0.0116  0.7908  0.2920
17619TIP3   OH274347   0.160   6.241   1.862  0.1488  0.1714 -0.0122
17619TIP3    H174348   0.073   6.272   1.838 -0.8235 -2.2830  0.2300
17619TIP3    H274349   0.213   6.256   1.783 -1.4836 -1.9974 -1.5735
17620TIP3   OH274350   1.986   4.409   5.171  0.7930  0.5953 -0.2223
17620TIP3    H174351   1.995   4.497   5.134 -0.4016  0.8052 -0.0328
17620TIP3    H274352   1.941   4.422   5.254  0.2837 -0.2283 -0.3646
17621TIP3   OH274353   2.689   1.089  11.171  0.5453  0.0879  0.1312
17621TIP3    H174354   2.753   1.018  11.179  0.1752 -0.6261 -2.7021
17621TIP3    H274355   2.691   1.112  11.078 -0.6879  2.5332  0.6876
17622TIP3   OH274356   1.935   4.362  11.112  0.4437 -0.3928  0.3112
17622TIP3    H174357   1.917   4.290  11.052 -0.8696  0.3968 -0.2751
17622TIP3    H274358   1.921   4.441  11.059  1.5030  0.2949  1.0440
17623TIP3   OH274359   1.532   6.190  14.443  0.3209 -0.2872 -0.4115
17623TIP3    H174360   1.483   6.228  14.516 -0.6710 -1.0259 -0.6720
17623TIP3    H274361   1.588   6.124  14.484 -2.3101 -2.7102 -0.5993
17624TIP3   OH274362   1.726   5.650   3.914  0.4458 -0.4589 -0.2107
17624TIP3    H174363   1.818   5.631   3.899  0.6017 -0.4530  0.7129
17624TIP3    H274364   1.709   5.617   4.002  0.3603  2.4133  0.8740
17625TIP3   OH274365   3.916   4.160  13.278 -0.4757  0.4052 -0.2427
17625TIP3    H174366   3.897   4.098  13.349 -0.9893 -0.0882 -0.8060
17625TIP3    H274367   3.962   4.233  13.321 -0.1117 -0.2364  0.4701
17626TIP3   OH274368   2.641   6.167   3.175 -0.0852 -0.5523  0.7121
17626TIP3    H174369   2.686   6.135   3.253 -0.7604 -2.0772  0.5067
17626TIP3    H274370   2.551   6.182   3.205 -0.0467  0.0271  0.5257
17627TIP3   OH274371   4.805   5.710   2.904 -0.1595  0.4811  0.1931
17627TIP3    H174372   4.771   5.664   2.827 -0.2607  0.8408  0.0238
17627TIP3    H274373   4.862   5.645   2.947  0.3650  0.4685 -0.5042
17628TIP3   OH274374   5.334   5.836  12.310  0.2411 -0.0595  0.0234
17628TIP3    H174375   5.266   5.780  12.272 -0.2688  0.2560  0.4525
17628TIP3    H274376   5.416   5.804  12.273 -0.1123 -0.6766 -0.2276
17629TIP3   OH274377   0.458   1.314   5.200  0.2901  0.2000  0.5984
17629TIP3    H174378   0.536   1.293   5.251  0.8823  1.4592  0.2305
17629TIP3    H274379   0.408   1.374   5.256 -0.9763 -1.4795  1.2981
17630TIP3   OH274380   4.678   5.323   0.668  0.3567 -0.5321 -0.4306
17630TIP3    H174381   4.691   5.351   0.759 -0.8460 -0.3121 -0.3268
17630TIP3    H274382   4.585   5.304   0.662  0.1943  0.6866 -1.9676
17631TIP3   OH274383   0.803   5.644   3.241 -0.1892  0.1635 -0.2135
17631TIP3    H174384   0.719   5.682   3.267  0.1554  0.1703  0.9090
17631TIP3    H274385   0.864   5.718   3.242  0.4518 -0.3729  1.8362
17632TIP3   OH274386   1.738   3.857  12.355 -0.1553 -0.1024 -0.0741
17632TIP3    H174387   1.675   3.873  12.425 -0.3225  1.9918 -0.6594
17632TIP3    H274388   1.705   3.907  12.280  1.5577  0.0824 -0.7449
17633TIP3   OH274389   3.781   0.313  12.496  0.1293  0.2643  0.4075
17633TIP3    H174390   3.699   0.283  12.535  0.3666 -1.1483 -0.1311
17633TIP3    H274391   3.792   0.256  12.419  0.6577  1.6956 -0.5912
17634TIP3   OH274392   1.906   6.468  13.497 -0.0231 -0.5333  0.1522
17634TIP3    H174393   1.982   6.521  13.520  0.8394 -1.8197  0.2322
17634TIP3    H274394   1.837   6.498  13.557 -0.5478  2.8657 -1.9820
17635TIP3   OH274395   5.770   2.764   3.550  0.2147  0.3983 -0.4320
17635TIP3    H174396   5.703   2.720   3.603  1.1947  0.7568  1.1505
17635TIP3    H274397   5.744   2.747   3.460 -1.2660 -0.5992  0.1546
17636TIP3   OH274398   5.481   5.621   5.384 -0.3325 -0.2782  0.1873
17636TIP3    H174399   5.490   5.550   5.321 -1.0786 -0.6988  0.5529
17636TIP3    H274400   5.512   5.584   5.467 -0.9266 -0.2447  0.4237
17637TIP3   OH274401   0.253   2.116  13.450 -0.0606 -0.1106  0.3430
17637TIP3    H174402   0.175   2.153  13.409 -0.9364  0.3681  2.4233
17637TIP3    H274403   0.300   2.074  13.377 -3.2828 -2.2529 -0.6116
17638TIP3   OH274404   2.515   0.090   0.206 -0.4066 -0.3575 -0.2242
17638TIP3    H174405   2.474   0.028   0.267 -2.9806  0.2745 -1.2579
17638TIP3    H274406   2.512   0.174   0.252  0.0524 -0.3631 -0.1790
17639TIP3   OH274407   5.355   5.613  12.020  0.6332 -0.0612 -0.0082
17639TIP3    H174408   5.303   5.577  11.948  1.1981  1.2877 -1.1260
17639TIP3    H274409   5.291   5.645  12.083  0.0847  0.8380 -0.9935
17640TIP3   OH274410   3.448   4.822  15.215  0.0325 -0.3169  0.1753
17640TIP3    H174411   3.409   4.738  15.238 -1.2707  0.3611  0.4775
17640TIP3    H274412   3.481   4.857  15.298  0.6919 -0.5929  0.0273
17641TIP3   OH274413   4.807   6.577  14.336 -0.4304 -0.3771 -0.2949
17641TIP3    H174414   4.756   6.503  14.303  0.3427 -1.0347 -0.0336
17641TIP3    H274415   4.743   6.648  14.345 -0.7819 -0.3336 -2.6436
17642TIP3   OH274416   4.041   1.811   3.481  0.2264  0.1889  0.2603
17642TIP3    H174417   4.068   1.741   3.423 -1.2417 -1.2831  1.3287
17642TIP3    H274418   3.945   1.811   3.478  0.2046  2.7425 -0.4239
17643TIP3   OH274419   3.461   6.315  11.117 -0.0304 -0.3661  0.2054
17643TIP3    H174420   3.403   6.287  11.188 -1.8894  0.7068 -0.8635
17643TIP3    H274421   3.419   6.392  11.080 -0.4530 -2.3414 -3.7282
17644TIP3   OH274422   4.265   3.027  16.612 -0.1560 -0.5103 -0.5053
17644TIP3    H174423   4.339   2.973  16.638 -0.4177 -0.8415 -0.4493
17644TIP3    H274424   4.201   2.965  16.576 -0.5205 -0.2576 -0.2968
17645TIP3   OH274425   4.588   4.018  16.596  0.4200 -0.1272 -0.0380
17645TIP3    H174426   4.513   4.041  16.651 -0.3127 -1.5203 -0.4293
17645TIP3    H274427   4.616   4.101  16.557 -0.7185  0.4496  0.3623
17646TIP3   OH274428   4.175   5.447   3.433  0.0105  0.1361  0.0817
17646TIP3    H174429   4.200   5.465   3.342 -0.6772 -1.0372 -0.3433
17646TIP3    H274430   4.257   5.454   3.482  0.4598  0.3304 -0.6847
17647TIP3   OH274431   3.134   4.243   3.463  0.1992  0.1204  0.1922
17647TIP3    H174432   3.156   4.239   3.556  1.3385  1.5662  0.0173
17647TIP3    H274433   3.196   4.307   3.427 -1.0415  0.5155 -1.3143
17648TIP3   OH274434   2.943   4.560   5.638  0.2965  0.3186 -0.1512
17648TIP3    H174435   2.911   4.552   5.548 -1.5247  0.0542  0.5003
17648TIP3    H274436   2.865   4.580   5.689  1.7457  3.3480  0.9925
17649TIP3   OH274437   1.590   2.048   5.287  0.4136 -0.2184  0.3238
17649TIP3    H174438   1.570   2.020   5.377  2.0012 -0.2613  0.6778
17649TIP3    H274439   1.573   1.970   5.233  0.5794 -0.5447  0.7390
17650TIP3   OH274440   5.383   3.469  13.189 -0.0194  0.2065 -0.3261
17650TIP3    H174441   5.361   3.396  13.132 -1.0960 -0.0950  0.4520
17650TIP3    H274442   5.430   3.531  13.133 -1.2380  0.0144 -1.5660
17651TIP3   OH274443   2.745   6.105  14.850  0.3700 -0.2276  0.1800
17651TIP3    H174444   2.673   6.048  14.826  0.4617 -0.2839  0.0366
17651TIP3    H274445   2.783   6.066  14.928  0.5085 -0.4281  0.0129
17652TIP3   OH274446   2.936   5.318   6.493 -0.1692 -0.0475  0.0578
17652TIP3    H174447   2.981   5.338   6.412  0.2794  0.8504  0.5206
17652TIP3    H274448   2.951   5.224   6.507  1.9327  0.3168  0.4313
17653TIP3   OH274449   5.283   0.099  11.908  0.1628 -0.0100 -0.2283
17653TIP3    H174450   5.282   0.069  11.817 -2.7902  1.2449 -0.6695
17653TIP3    H274451   5.375   0.121  11.925  0.8226 -0.6259 -2.7519
17654TIP3   OH274452   3.252   5.179  11.346 -0.4095 -0.2501 -0.2847
17654TIP3    H174453   3.225   5.267  11.374 -0.6962 -0.1660 -0.8170
17654TIP3    H274454   3.312   5.149  11.415  0.9760  1.0209 -0.8996
17655TIP3   OH274455   0.245   1.181   6.002  0.2331  0.4052 -0.6489
17655TIP3    H174456   0.263   1.141   6.087  0.7479 -0.7422 -1.2684
17655TIP3    H274457   0.321   1.155   5.948 -1.2568 -0.9867 -2.1344
17656TIP3   OH274458   5.118   4.777  14.990  0.5477 -0.3004  0.6873
17656TIP3    H174459   5.085   4.861  15.019  1.0642  0.2433 -0.2890
17656TIP3    H274460   5.213   4.787  14.990  0.5620 -0.4127 -0.8535
17657TIP3   OH274461   6.181   6.631   4.406  0.0285 -0.6735  0.0787
17657TIP3    H174462   6.178   6.593   4.494  0.5762  1.9973  1.3171
17657TIP3    H274463   6.261   6.684   4.406 -0.3541 -0.0671 -1.7822
17658TIP3   OH274464   0.915   5.919  15.269 -0.2048  0.1257  0.6232
17658TIP3    H174465   0.864   5.839  15.256 -1.4242  0.9080  0.5146
17658TIP3    H274466   0.930   5.923  15.364 -0.4064 -0.0661  0.6618
17659TIP3   OH274467   3.942   2.330  12.216 -0.3320  0.3273  0.0267
17659TIP3    H174468   3.909   2.284  12.293  0.8605 -1.8923 -0.7537
17659TIP3    H274469   4.037   2.332  12.228 -0.1462  0.1050 -1.2949
17660TIP3   OH274470   6.405   3.972   4.743 -0.5024  0.3121 -0.3812
17660TIP3    H174471   6.345   3.922   4.799  1.3354 -0.7188  0.7237
17660TIP3    H274472   6.420   4.053   4.792 -0.7091  0.4154 -0.4877
17661TIP3   OH274473   1.346   0.466  11.053 -0.0928  0.0226 -0.0181
17661TIP3    H174474   1.341   0.461  11.149 -0.5405  1.6966  0.0516
17661TIP3    H274475   1.255   0.467  11.024  0.0423 -0.3567 -0.4721
17662TIP3   OH274476   0.882   5.210  11.063  0.2266 -0.5277  0.3525
17662TIP3    H174477   0.933   5.197  10.983 -0.5290  1.9866 -0.5775
17662TIP3    H274478   0.803   5.257  11.034 -1.4046 -2.0785  2.1612
17663TIP3   OH274479   0.368   2.082  11.470  0.0045 -0.5026  0.0784
17663TIP3    H174480   0.443   2.105  11.415  0.3758 -1.2544  0.2656
17663TIP3    H274481   0.397   2.004  11.518 -1.0433 -1.0235 -0.1346
17664TIP3   OH274482   3.612   3.704   3.893 -0.1077 -0.1531  0.5546
17664TIP3    H174483   3.666   3.685   3.970  1.0236  1.3925  0.1705
17664TIP3    H274484   3.567   3.622   3.875  0.0660 -0.7216  2.5089
17665TIP3   OH274485   4.324   3.188   4.524  0.3484 -0.1674  0.1826
17665TIP3    H174486   4.343   3.165   4.615  1.4505 -0.1387 -0.0385
17665TIP3    H274487   4.230   3.169   4.514  0.7589 -2.5328  0.5977
17666TIP3   OH274488   1.101   6.235   0.037  0.5751  0.0414 -0.0068
17666TIP3    H174489   1.012   6.267   0.022 -0.3111 -2.2137  0.1616
17666TIP3    H274490   1.137   6.223  -0.050  0.4010  0.1606 -0.0956
17667TIP3   OH274491   3.230   4.296   5.919 -0.1675  0.3974  0.5634
17667TIP3    H174492   3.200   4.385   5.901 -0.7701  0.1215  0.2017
17667TIP3    H274493   3.203   4.246   5.842 -2.0933 -0.6565  1.8964
17668TIP3   OH274494   2.242   1.115  16.827 -0.2787  0.1881  0.2782
17668TIP3    H174495   2.247   1.201  16.869 -0.3289 -0.4341  1.5457
17668TIP3    H274496   2.239   1.135  16.733  0.1011  1.5560  0.5488
17669TIP3   OH274497   4.247   5.265   5.894  0.3823 -0.3030 -0.0746
17669TIP3    H174498   4.234   5.325   5.967  1.5790 -1.4959  1.1556
17669TIP3    H274499   4.178   5.199   5.904  0.5469 -0.4667 -0.0113
17670TIP3   OH274500   2.789   1.798  12.366 -0.5997 -0.1589  0.8895
17670TIP3    H174501   2.856   1.796  12.297 -0.9074  1.1411  0.5313
17670TIP3    H274502   2.826   1.746  12.437  0.5046 -0.0069  0.4420
17671TIP3   OH274503   6.458   3.989  10.909  0.1517  0.2007 -0.5385
17671TIP3    H174504   6.530   3.946  10.864 -0.2565 -2.6985  1.4590
17671TIP3    H274505   6.382   3.934  10.892 -0.6544  0.7722  1.0916
17672TIP3   OH274506   3.633   5.721  13.314  0.0582 -0.0894 -0.2373
17672TIP3    H174507   3.691   5.674  13.254  1.1721  0.5737  0.2983
17672TIP3    H274508   3.662   5.695  13.401 -1.5160 -1.0072  0.0403
17673TIP3   OH274509   0.148   0.383   3.851 -0.0178  0.1397  0.0987
17673TIP3    H174510   0.196   0.310   3.891 -1.5758 -0.7385  0.4525
17673TIP3    H274511   0.108   0.345   3.773 -2.4137  0.0758  1.3144
17674TIP3   OH274512   1.856   4.008  13.328 -0.9748  0.1630 -0.8782
17674TIP3    H174513   1.825   4.090  13.289 -1.3659  0.1829 -0.5302
17674TIP3    H274514   1.824   4.011  13.418 -1.3030 -0.5456 -0.9708
17675TIP3   OH274515   4.530   5.586  13.001  0.6838  0.2951 -0.5952
17675TIP3    H174516   4.532   5.678  13.027  2.7193  0.2769 -0.6020
17675TIP3    H274517   4.612   5.549  13.034 -0.0850 -1.5165 -0.6203
17676TIP3   OH274518   6.704   4.048   4.623  0.5170  0.3815  0.2917
17676TIP3    H174519   6.633   4.040   4.688  0.3374  1.4483  0.2286
17676TIP3    H274520   6.665   4.019   4.541  1.0601 -2.0785  0.8413
17677TIP3   OH274521   5.238   2.051   5.426 -0.1383  0.3779 -0.5603
17677TIP3    H174522   5.177   2.019   5.492  1.2474  1.5388  1.3198
17677TIP3    H274523   5.324   2.019   5.455  0.5234  1.1476 -1.6198
17678TIP3   OH274524   1.729   6.516   2.137 -0.5273  0.2213  0.5039
17678TIP3    H174525   1.699   6.543   2.224 -0.5325  0.3788  0.4531
17678TIP3    H274526   1.800   6.578   2.117  0.4453 -0.7083  1.0150
17679TIP3   OH274527   0.069   4.763  15.809 -0.5859  0.2601 -0.1975
17679TIP3    H174528   0.070   4.678  15.854  0.1821  0.8022  0.8457
17679TIP3    H274529  -0.013   4.803  15.836  0.4665  1.1234  1.7878
17680TIP3   OH274530   5.572   1.666   2.636  0.2502 -0.4245 -0.5850
17680TIP3    H174531   5.556   1.592   2.694  0.0212  0.9325  1.0973
17680TIP3    H274532   5.509   1.733   2.663  0.8640  0.6253 -1.6798
17681TIP3   OH274533   1.959   5.691   3.674 -0.1715 -0.0178  0.1575
17681TIP3    H174534   1.871   5.655   3.663 -0.0716  0.0549 -0.9033
17681TIP3    H274535   2.005   5.626   3.728 -0.6700 -0.3672  0.1675
17682TIP3   OH274536   5.737   5.947   0.592 -0.6503  0.4905  0.4095
17682TIP3    H174537   5.722   5.990   0.507 -0.5528 -0.3524 -0.0360
17682TIP3    H274538   5.757   5.856   0.570 -1.6943  0.0074  1.4065
17683TIP3   OH274539   6.613   2.828  15.289 -0.0597 -0.1673  0.0075
17683TIP3    H174540   6.681   2.782  15.338 -0.6186 -1.5748 -0.5066
17683TIP3    H274541   6.660   2.871  15.217  0.4306 -0.1920  0.3139
17684TIP3   OH274542   2.193   3.127   3.134 -0.2051  0.0102  0.1904
17684TIP3    H174543   2.195   3.214   3.176  0.2524 -0.1494  0.5031
17684TIP3    H274544   2.281   3.092   3.147 -0.6920 -0.9395  0.9908
17685TIP3   OH274545   2.782   0.888   1.519 -0.4146  0.8175  0.1936
17685TIP3    H174546   2.788   0.949   1.592 -0.7402  1.2235 -0.1188
17685TIP3    H274547   2.869   0.850   1.512  0.2226  2.3810 -0.5886
17686TIP3   OH274548   1.171   6.815   3.614  0.0484 -0.2632 -0.5014
17686TIP3    H174549   1.106   6.883   3.634 -0.3013 -0.2973 -1.4654
17686TIP3    H274550   1.223   6.807   3.693  0.0594  1.0966 -0.3656
17687TIP3   OH274551   5.542   4.110   2.196  0.0872  0.1632 -0.5895
17687TIP3    H174552   5.512   4.201   2.191 -0.8952 -0.2186 -1.9267
17687TIP3    H274553   5.486   4.063   2.135  0.1389 -1.4785  0.6060
17688TIP3   OH274554   1.696   0.744   2.214  0.3507  0.4467  0.4125
17688TIP3    H174555   1.788   0.769   2.223  0.9457 -1.4865 -0.0551
17688TIP3    H274556   1.668   0.725   2.304  0.3692  1.1659  0.5715
17689TIP3   OH274557   5.818   1.172   4.883  0.1226  0.4508 -0.1450
17689TIP3    H174558   5.810   1.266   4.871  1.6925  0.7109  0.7223
17689TIP3    H274559   5.759   1.152   4.956  1.4756  1.1188  1.1468
17690TIP3   OH274560   0.486   5.793  16.183  0.0423  0.2382 -0.2797
17690TIP3    H174561   0.576   5.759  16.189  0.1526  0.4019 -0.9769
17690TIP3    H274562   0.434   5.733  16.236  0.1669 -1.2673 -1.8266
17691TIP3   OH274563   3.737   5.279   2.704 -0.7427 -0.0179  0.2572
17691TIP3    H174564   3.658   5.293   2.757 -0.3178 -1.4072  1.2797
17691TIP3    H274565   3.754   5.185   2.711  2.1795  0.5684  1.7752
17692TIP3   OH274566   2.611   1.192  11.420  0.4098 -0.7020 -0.6558
17692TIP3    H174567   2.613   1.266  11.360 -0.0169  0.2985  0.5563
17692TIP3    H274568   2.615   1.115  11.363  0.4484  0.2366 -1.9370
17693TIP3   OH274569   2.945   3.566  15.170  0.6132  0.7436  0.2293
17693TIP3    H174570   2.955   3.565  15.075  0.4556  0.0260  0.2135
17693TIP3    H274571   3.034   3.581  15.204  0.3773  2.8245 -0.0584
17694TIP3   OH274572   2.982   4.148   0.072  0.4507  0.2211 -0.4338
17694TIP3    H174573   2.944   4.091   0.005  1.8973  0.6862 -1.6869
17694TIP3    H274574   3.061   4.102   0.100  1.4803  1.4601 -1.2580
17695TIP3   OH274575   0.363   5.823   1.375  0.2013  0.0866  0.1332
17695TIP3    H174576   0.324   5.898   1.419  0.1047  0.4538 -0.5693
17695TIP3    H274577   0.300   5.752   1.388 -0.5664  0.6039 -0.7476
17696TIP3   OH274578   4.206   2.706  10.585  0.2504  0.0339  0.2170
17696TIP3    H174579   4.135   2.691  10.648  1.6664 -1.3510  1.5328
17696TIP3    H274580   4.260   2.774  10.626  0.7077 -0.2461  0.0747
17697TIP3   OH274581   6.181   0.312  14.003  0.3144 -0.1628  0.0675
17697TIP3    H174582   6.151   0.242  13.945 -0.8935 -0.3558  0.9007
17697TIP3    H274583   6.277   0.302  14.005  0.4673  0.4715 -2.6538
17698TIP3   OH274584   6.504   1.085   4.943 -0.0845  0.6457 -0.2455
17698TIP3    H174585   6.494   1.064   4.850  2.1201 -0.5699 -0.2396
17698TIP3    H274586   6.477   1.004   4.988 -2.1400  1.5715  0.2337
17699TIP3   OH274587   1.419   1.868   1.516  0.4222  0.4049 -0.2769
17699TIP3    H174588   1.398   1.860   1.423  1.5805 -0.2553 -0.4919
17699TIP3    H274589   1.463   1.786   1.537  3.6870  2.1470 -0.0994
17700TIP3   OH274590   1.642   5.251   1.042 -0.4502  0.7393 -0.8804
17700TIP3    H174591   1.593   5.179   1.003 -1.6979  0.2437  1.5149
17700TIP3    H274592   1.720   5.209   1.079  0.3981  1.1166 -2.1734
17701TIP3   OH274593   4.310   2.626  15.221  0.1135  0.2215  0.2312
17701TIP3    H174594   4.305   2.540  15.179  2.4883 -1.0425  2.3814
17701TIP3    H274595   4.323   2.687  15.149  2.8018 -1.7523 -1.0485
17702TIP3   OH274596   4.240   4.500  14.279 -0.1858  0.1859 -0.6736
17702TIP3    H174597   4.329   4.499  14.242 -0.0943  0.3342 -0.4590
17702TIP3    H274598   4.219   4.408  14.293  0.9512  0.2575  1.7052
17703TIP3   OH274599   0.843   3.276   4.182  0.1655  0.1401  0.3293
17703TIP3    H174600   0.898   3.340   4.229  0.8798  0.3466 -0.7680
17703TIP3    H274601   0.788   3.330   4.126  0.4211 -0.1758 -0.2292
17704TIP3   OH274602   1.171   3.007   3.702 -0.9694  0.2574 -0.5830
17704TIP3    H174603   1.236   3.063   3.744 -0.3812  0.0260 -1.1772
17704TIP3    H274604   1.182   3.022   3.608 -0.2985 -1.3870 -0.7840
17705TIP3   OH274605   0.760   1.072   1.247 -0.6136  0.5868  0.0127
17705TIP3    H174606   0.748   1.038   1.158  2.8867  0.5365 -0.5153
17705TIP3    H274607   0.746   1.166   1.238  2.5202  0.9845 -1.2424
17706TIP3   OH274608   4.366   1.190   3.570  0.5810 -0.2286 -0.0329
17706TIP3    H174609   4.276   1.175   3.598 -0.6409  4.3352 -1.1238
17706TIP3    H274610   4.365   1.171   3.476  0.2783  1.5622 -0.4029
17707TIP3   OH274611   2.549   5.905  15.724 -0.2940  0.3122  0.1579
17707TIP3    H174612   2.504   5.971  15.776  0.8868  1.4569 -0.2579
17707TIP3    H274613   2.484   5.878  15.658 -1.7210 -0.9905  2.0369
17708TIP3   OH274614   5.789   4.722  15.024 -0.0408 -0.0109  0.1692
17708TIP3    H174615   5.801   4.806  14.980  0.4589 -0.2614 -0.1733
17708TIP3    H274616   5.874   4.702  15.062  0.5100 -1.4909 -1.7317
17709TIP3   OH274617   6.702   2.462  11.335 -0.5161 -0.0935 -0.6297
17709TIP3    H174618   6.740   2.494  11.417 -1.4181  0.2224 -0.3201
17709TIP3    H274619   6.692   2.540  11.281 -0.0115 -0.2885 -1.0087
17710TIP3   OH274620   1.548   4.362  17.192 -0.0645 -0.0065  0.6487
17710TIP3    H174621   1.582   4.273  17.180 -0.1175 -0.2587  2.3399
17710TIP3    H274622   1.540   4.372  17.287 -1.4925  1.2643  0.4037
17711TIP3   OH274623   4.363   2.735   2.287 -0.4465 -0.3167  0.0769
17711TIP3    H174624   4.348   2.790   2.364  0.3696  0.6162 -0.4076
17711TIP3    H274625   4.277   2.701   2.264 -0.7080 -0.5388  1.3570
17712TIP3   OH274626   4.148   0.913   0.930 -0.7922  0.3743 -0.3476
17712TIP3    H174627   4.098   0.899   0.849  1.0523  1.5956 -1.7450
17712TIP3    H274628   4.240   0.904   0.904 -0.2079 -0.7869  1.9532
17713TIP3   OH274629   1.718   6.001  14.585  0.5798  0.1591 -0.8134
17713TIP3    H174630   1.642   5.965  14.630  1.5400 -1.1689 -0.2076
17713TIP3    H274631   1.713   5.967  14.496  1.5868 -1.6836 -0.1887
17714TIP3   OH274632   3.093   5.748   4.741  0.1261  0.9236  0.3727
17714TIP3    H174633   3.166   5.749   4.803 -0.8487 -0.1347  1.5419
17714TIP3    H274634   3.072   5.841   4.728  0.6823  1.1711  1.2040
17715TIP3   OH274635   4.686   5.948   4.911  0.5579 -0.0798  0.5427
17715TIP3    H174636   4.623   5.877   4.923 -0.0345  0.7541  2.6563
17715TIP3    H274637   4.770   5.908   4.932  0.2305 -0.1993  1.6987
17716TIP3   OH274638   5.108   3.452  16.945  0.9947 -0.4376  0.1067
17716TIP3    H174639   5.096   3.387  17.015  0.6016 -0.6780 -0.1822
17716TIP3    H274640   5.187   3.499  16.970  0.2021  0.2763  1.3619
17717TIP3   OH274641   4.734   1.613   1.397  0.4595 -0.5681  0.1065
17717TIP3    H174642   4.736   1.518   1.389 -0.3469 -0.8212  2.4297
17717TIP3    H274643   4.644   1.638   1.377  0.7256 -0.2685 -0.7287
17718TIP3   OH274644   4.104   4.274   5.883  0.8208 -0.2972 -0.1121
17718TIP3    H174645   4.078   4.222   5.807 -0.9379  0.6863 -0.1883
17718TIP3    H274646   4.054   4.237   5.956 -0.1672  1.0525 -0.0973
17719TIP3   OH274647   0.720   1.146   1.872  0.1153 -0.0384 -0.9118
17719TIP3    H174648   0.758   1.098   1.798  1.2707 -0.0814 -0.3119
17719TIP3    H274649   0.689   1.228   1.834  0.1846 -0.3054 -1.5514
17720TIP3   OH274650   1.945   2.845   1.424  0.5167 -0.4119 -0.3922
17720TIP3    H174651   1.955   2.807   1.511 -1.3843 -3.2456 -1.3030
17720TIP3    H274652   1.850   2.854   1.413  0.6923 -0.7741 -2.3915
17721TIP3   OH274653   1.323   2.756   2.093  0.0524  0.1044  0.0302
17721TIP3    H174654   1.307   2.850   2.083  2.6207  0.3731 -2.3846
17721TIP3    H274655   1.290   2.717   2.012 -1.4243 -1.1768  1.2149
17722TIP3   OH274656   3.367   0.080   4.021 -0.7941 -0.7885  0.0458
17722TIP3    H174657   3.318   0.024   3.961 -0.4793 -1.0097 -0.0059
17722TIP3    H274658   3.364   0.033   4.105 -0.6227 -0.8305  0.0289
17723TIP3   OH274659   2.293   2.746   5.426 -0.2328 -0.4242  0.3881
17723TIP3    H174660   2.346   2.814   5.385 -0.7091 -0.7918 -0.8295
17723TIP3    H274661   2.305   2.670   5.371  1.1902 -1.6892  2.3559
17724TIP3   OH274662   4.349   1.728  13.435  0.5746 -0.4000 -0.2470
17724TIP3    H174663   4.353   1.632  13.429 -0.1708 -0.5775  1.8085
17724TIP3    H274664   4.363   1.747  13.528  0.6532  1.4930 -0.6238
17725TIP3   OH274665   5.962   4.781  15.334  0.2443 -0.2059 -0.0153
17725TIP3    H174666   5.887   4.828  15.369 -0.1482 -0.2019 -0.8527
17725TIP3    H274667   6.035   4.841  15.344 -0.2219  0.5255 -0.9262
17726TIP3   OH274668   1.204   5.370   3.718 -0.0551  0.1523  0.6829
17726TIP3    H174669   1.285   5.404   3.755 -0.5217  3.1117 -0.8687
17726TIP3    H274670   1.147   5.357   3.794  1.0002  0.4084  1.5355
17727TIP3   OH274671   3.898   4.489  15.265 -0.4026  0.5782 -0.2860
17727TIP3    H174672   3.841   4.411  15.260  0.9733 -0.4629 -0.0979
17727TIP3    H274673   3.913   4.514  15.174 -0.3413  0.2468 -0.3673
17728TIP3   OH274674   1.423   2.447   4.622 -0.1706 -0.5282 -0.2102
17728TIP3    H174675   1.458   2.390   4.553  4.2627  1.0106  0.6003
17728TIP3    H274676   1.416   2.389   4.699  0.5486 -0.9225 -0.4293
17729TIP3   OH274677   5.412   0.281   5.193 -0.6248  0.0058  0.1942
17729TIP3    H174678   5.483   0.218   5.185 -1.2127 -0.5574 -0.6760
17729TIP3    H274679   5.333   0.231   5.171 -1.1289  0.9709 -0.2168
17730TIP3   OH274680   2.913   0.303  14.638  0.1030  0.0730 -0.7942
17730TIP3    H174681   2.976   0.247  14.592  1.9984  0.2905  1.4544
17730TIP3    H274682   2.904   0.264  14.724  0.4223  2.4241  0.3479
17731TIP3   OH274683   5.231   3.253   0.613 -0.4847  0.3502 -0.2139
17731TIP3    H174684   5.268   3.275   0.699  0.2392 -0.2381 -0.3728
17731TIP3    H274685   5.270   3.316   0.553 -1.6636  1.3326  0.0132
17732TIP3   OH274686   2.856   4.174  13.152 -0.4323  0.2183 -0.4481
17732TIP3    H174687   2.951   4.171  13.155 -0.2637  1.9950 -2.7437
17732TIP3    H274688   2.828   4.083  13.163  1.3605  0.0382  3.5060
17733TIP3   OH274689   5.588   5.425  16.185 -0.2205  0.3650  0.3928
17733TIP3    H174690   5.618   5.483  16.115 -1.7477 -0.6752 -1.1781
17733TIP3    H274691   5.662   5.367  16.202  0.4205  1.1104  0.1351
17734TIP3   OH274692   0.275   5.276  16.526  0.1651 -0.4424  0.3265
17734TIP3    H174693   0.197   5.258  16.474 -0.3522 -0.5050  1.1230
17734TIP3    H274694   0.264   5.224  16.605  0.5258  0.3354  0.9027
17735TIP3   OH274695   0.104   1.451  11.653  0.1146 -0.2923 -0.0959
17735TIP3    H174696   0.019   1.492  11.666  0.1268 -0.2843 -0.0409
17735TIP3    H274697   0.161   1.522  11.623  0.0529 -0.3384 -0.3255
17736TIP3   OH274698   3.845   5.831  12.889 -0.4249 -0.3513  0.0473
17736TIP3    H174699   3.788   5.755  12.901  1.9035 -2.0641  0.4410
17736TIP3    H274700   3.932   5.794  12.875  0.4667  2.2040 -1.4452
17737TIP3   OH274701   5.097   4.499   4.906  0.3924 -0.4657 -0.3440
17737TIP3    H174702   5.006   4.471   4.921  1.1568 -1.6772  2.3478
17737TIP3    H274703   5.149   4.444   4.965  2.8998  0.2201 -1.8403
17738TIP3   OH274704   6.567   0.707   5.318 -0.0105 -0.4813 -0.6963
17738TIP3    H174705   6.475   0.729   5.330  0.4823  1.5555 -0.5457
17738TIP3    H274706   6.577   0.621   5.360 -1.9587 -1.0014 -1.2609
17739TIP3   OH274707   4.171   5.948  14.929  0.1091 -0.1134  0.2670
17739TIP3    H174708   4.231   5.962  15.002  0.7227  0.1673 -0.2855
17739TIP3    H274709   4.108   5.885  14.963  0.0778  0.4115  1.2087
17740TIP3   OH274710   5.772   2.793  16.202  0.1479 -0.0146  0.4230
17740TIP3    H174711   5.741   2.710  16.238  0.3183 -0.2061  0.1259
17740TIP3    H274712   5.697   2.852  16.211 -0.4161 -0.5603 -0.5750
17741TIP3   OH274713   1.367   0.138   1.588  0.7114  0.2829 -0.4834
17741TIP3    H174714   1.383   0.218   1.638  2.0219  0.4751 -1.1851
17741TIP3    H274715   1.275   0.117   1.604  0.5296  1.5859  0.1972
17742TIP3   OH274716   2.379   0.115   2.712 -0.0881  0.0120  0.4681
17742TIP3    H174717   2.330   0.109   2.794 -0.6309  1.8206  0.3099
17742TIP3    H274718   2.335   0.053   2.653 -0.5458 -0.3051  1.1352
17743TIP3   OH274719   3.913   5.464   4.133 -0.5396  0.1843  0.3466
17743TIP3    H174720   4.003   5.470   4.165 -0.2938  1.2396 -0.5383
17743TIP3    H274721   3.875   5.392   4.184  0.1844  1.0580  2.1749
17744TIP3   OH274722   0.803   3.547  16.064  0.2642  0.1929  0.5911
17744TIP3    H174723   0.811   3.642  16.056  0.8159  0.1816  0.9572
17744TIP3    H274724   0.835   3.512  15.981 -0.9833  0.3712  0.0296
17745TIP3   OH274725   6.442   2.292   0.763 -0.1593 -0.0374 -0.1468
17745TIP3    H174726   6.381   2.342   0.817  0.2016  0.4437 -0.1788
17745TIP3    H274727   6.455   2.210   0.810 -1.9939 -0.7821 -0.8809
17746TIP3   OH274728   3.083   2.144  11.422  0.4543  0.4472  0.0530
17746TIP3    H174729   3.009   2.204  11.407 -1.5360 -2.1191 -0.6990
17746TIP3    H274730   3.084   2.088  11.345  1.2545 -1.5175  1.4634
17747TIP3   OH274731   0.154   3.369  11.683 -1.3970 -0.0446 -0.5529
17747TIP3    H174732   0.141   3.303  11.616 -3.4566 -0.0058 -0.2459
17747TIP3    H274733   0.114   3.332  11.762  2.2499 -0.7001  1.0713
17748TIP3   OH274734   2.162   4.887   3.021 -0.3244  0.3993  0.0957
17748TIP3    H174735   2.114   4.891   3.104  1.4913  0.1393  1.1715
17748TIP3    H274736   2.217   4.965   3.022  0.3379 -0.0621 -0.4680
17749TIP3   OH274737   4.457   0.283  14.118  0.0994 -0.0477  0.2434
17749TIP3    H174738   4.535   0.261  14.168  0.0472 -1.8736 -0.4606
17749TIP3    H274739   4.392   0.307  14.185  1.5991  2.7612  0.7761
17750TIP3   OH274740   1.912   6.498  13.231 -0.4381 -0.3298 -0.0880
17750TIP3    H174741   1.837   6.444  13.204  1.2608 -2.7185 -0.0738
17750TIP3    H274742   1.917   6.487  13.326 -2.1510  2.6034  0.4055
17751TIP3   OH274743   0.111   0.018  16.952 -0.2630 -0.4556  0.3663
17751TIP3    H174744   0.109   0.065  17.036  0.4762  1.2565 -0.5456
17751TIP3    H274745   0.030   0.042  16.909  0.7905  1.2404 -0.7391
17752TIP3   OH274746   6.380   5.810   1.255  0.1969 -0.4528 -0.1394
17752TIP3    H174747   6.436   5.820   1.177  2.1705 -0.6321  1.2173
17752TIP3    H274748   6.433   5.759   1.316  0.1598  2.7624  2.7218
17753TIP3   OH274749   0.749   3.297  14.945 -0.2342  0.0301  0.2867
17753TIP3    H174750   0.738   3.214  14.991 -0.8157  1.1680  2.2434
17753TIP3    H274751   0.691   3.290  14.869 -1.8589 -0.5788  1.5495
17754TIP3   OH274752   1.717   4.702   1.008 -0.5993  0.4121  0.7846
17754TIP3    H174753   1.755   4.742   0.929 -0.8431  1.8097  1.3630
17754TIP3    H274754   1.623   4.718   1.000 -0.4745  1.9344  2.1005
17755TIP3   OH274755   3.622   1.049   0.765 -0.1486  0.1680 -0.3886
17755TIP3    H174756   3.554   1.080   0.705 -1.6575  1.1613  1.8024
17755TIP3    H274757   3.584   0.972   0.808  0.4600  0.1990  0.2132
17756TIP3   OH274758   2.767   2.533   0.265 -0.3870 -0.0305  0.2222
17756TIP3    H174759   2.765   2.606   0.327 -0.6533 -0.5895  0.8918
17756TIP3    H274760   2.703   2.471   0.300  2.1130 -2.0243  1.4838
17757TIP3   OH274761   3.423   1.702   0.429  0.1867  0.2418 -0.2084
17757TIP3    H174762   3.425   1.701   0.524  1.2620  0.1869 -0.2282
17757TIP3    H274763   3.370   1.627   0.405  0.5685 -0.2018  0.3353
17758TIP3   OH274764   0.926   2.729  12.505  0.7105  0.0831  0.1071
17758TIP3    H174765   0.937   2.797  12.439  1.2519  1.5676  1.6931
17758TIP3    H274766   1.004   2.674  12.496  0.5219 -0.0319 -0.8300
17759TIP3   OH274767   5.597   5.488   0.341 -0.1099 -0.3330 -0.1439
17759TIP3    H174768   5.586   5.472   0.435  0.9511 -0.8511 -0.0973
17759TIP3    H274769   5.634   5.406   0.307  0.1050  0.0751 -0.9007
17760TIP3   OH274770   2.524   2.619   4.780  0.2365 -0.6924 -1.0676
17760TIP3    H174771   2.459   2.622   4.851  1.2277 -2.4964 -0.0516
17760TIP3    H274772   2.571   2.702   4.788 -0.8280 -0.1148 -0.7284
17761TIP3   OH274773   5.356   2.285  13.332 -0.2081 -0.2027  0.3038
17761TIP3    H174774   5.413   2.223  13.287  0.5608  0.3065  0.5737
17761TIP3    H274775   5.281   2.295  13.273  0.7273  0.3461 -0.8226
17762TIP3   OH274776   3.959   5.927  14.522  0.1927  0.0744 -0.3581
17762TIP3    H174777   4.047   5.944  14.557 -0.8952 -0.0729  2.6349
17762TIP3    H274778   3.937   5.840  14.557 -1.6179  0.6506 -0.0378
17763TIP3   OH274779   3.291   0.518  14.929  0.3190 -0.1243 -0.1137
17763TIP3    H174780   3.225   0.512  14.998 -0.4802  0.0411 -0.8684
17763TIP3    H274781   3.340   0.436  14.936 -1.8467 -1.5833 -1.4593
17764TIP3   OH274782   0.099   3.548  15.511 -1.0911  0.4123 -0.3852
17764TIP3    H174783   0.060   3.564  15.425 -2.0065  1.7769  0.2701
17764TIP3    H274784   0.193   3.543  15.495 -1.2088  1.3326 -1.3689
17765TIP3   OH274785   4.935   0.618  13.087 -0.0607  0.4344  0.4343
17765TIP3    H174786   4.892   0.612  13.173  0.2250  0.2990  0.5680
17765TIP3    H274787   4.970   0.707  13.083  1.7196 -0.2028  1.3115
17766TIP3   OH274788   3.055   3.090   4.653 -0.2761  1.0193 -0.0784
17766TIP3    H174789   3.037   3.102   4.746  0.3149  1.3670 -0.0059
17766TIP3    H274790   3.073   2.996   4.643  1.4328  1.2783  0.4710
17767TIP3   OH274791   0.800   1.384   0.669 -0.2757 -0.3980 -0.0952
17767TIP3    H174792   0.717   1.340   0.653  0.5442 -1.4613 -1.5265
17767TIP3    H274793   0.829   1.414   0.583  1.5949 -1.4602  0.1378
17768TIP3   OH274794   3.497   0.298   5.514  0.0378  0.0121 -0.0504
17768TIP3    H174795   3.487   0.255   5.598 -1.4597  0.1096 -0.1618
17768TIP3    H274796   3.451   0.241   5.452  1.3977 -0.2287 -0.8695
17769TIP3   OH274797   3.138   0.981   5.464 -0.4772  0.1367 -0.6918
17769TIP3    H174798   3.208   0.934   5.510 -0.4270 -0.0003 -0.9096
17769TIP3    H274799   3.059   0.930   5.482 -0.7698  1.0506  0.7054
17770TIP3   OH274800   4.121   3.531   1.383  0.1068 -0.3624  0.3849
17770TIP3    H174801   4.093   3.606   1.436 -1.9898 -2.6297  2.6084
17770TIP3    H274802   4.063   3.533   1.307  0.1676  0.3434  0.3511
17771TIP3   OH274803   0.673   5.735  13.732 -0.1367 -0.4177 -0.2537
17771TIP3    H174804   0.654   5.763  13.642 -0.1089 -2.7910 -1.0279
17771TIP3    H274805   0.760   5.771  13.751 -0.3059  0.4211 -1.0120
17772TIP3   OH274806   0.970   3.294  13.997 -0.1162  0.2643 -0.4422
17772TIP3    H174807   0.935   3.236  13.929 -1.5559  0.9561 -0.2999
17772TIP3    H274808   0.971   3.381  13.956  1.0153  0.3363 -0.2859
17773TIP3   OH274809   1.477   1.496  14.846 -0.0688  1.0025  0.2319
17773TIP3    H174810   1.431   1.547  14.913  0.4979 -0.5700  1.8781
17773TIP3    H274811   1.551   1.552  14.821 -1.0900  2.2117 -0.1280
17774TIP3   OH274812   0.894   3.221   0.225 -0.4821  0.3964 -0.0551
17774TIP3    H174813   0.798   3.223   0.217 -0.4236  1.5429 -0.5610
17774TIP3    H274814   0.917   3.129   0.211 -1.2287  0.6702 -3.5638
17775TIP3   OH274815   6.058   6.780  17.240  0.7353  0.2589  0.3112
17775TIP3    H174816   6.122   6.738  17.297 -0.3052 -0.5187  0.9354
17775TIP3    H274817   5.973   6.745  17.269  0.1983 -0.2290 -1.7739
17776TIP3   OH274818   1.828   6.313  16.429 -0.1856 -0.1987  1.0365
17776TIP3    H174819   1.788   6.270  16.354 -1.0915 -0.2556  1.5441
17776TIP3    H274820   1.804   6.405  16.420  2.4292  0.3866 -0.4940
17777TIP3   OH274821   2.873   4.890   0.806 -0.1018  0.1315  0.1494
17777TIP3    H174822   2.898   4.952   0.874  0.3813 -1.7897  1.7558
17777TIP3    H274823   2.804   4.837   0.846  1.1035 -1.8824 -0.3855
17778TIP3   OH274824   1.415   6.644  15.858 -0.3979  0.1958 -0.0893
17778TIP3    H174825   1.382   6.725  15.898 -0.1676  0.4077 -0.3252
17778TIP3    H274826   1.510   6.647  15.874  0.0288  1.3707 -2.5818
17779TIP3   OH274827   4.440   3.314   6.259  0.1036  0.0244 -0.1698
17779TIP3    H174828   4.429   3.224   6.290 -2.5201  0.3305 -0.1072
17779TIP3    H274829   4.454   3.365   6.339 -2.7294  0.2564  0.2132
17780TIP3   OH274830   0.188   6.667   1.856  0.0166 -0.4228 -0.7233
17780TIP3    H174831   0.222   6.756   1.847 -0.2103 -0.1939  0.5325
17780TIP3    H274832   0.093   6.677   1.846 -0.0560 -0.4488 -0.0555
17781TIP3   OH274833   5.058   2.087  13.200  0.2614 -0.0877  0.7153
17781TIP3    H174834   5.068   2.019  13.133  0.5714  0.9448 -0.2992
17781TIP3    H274835   5.118   2.157  13.173 -1.4561  1.4117  0.6699
17782TIP3   OH274836   5.030   0.032   2.880  0.4960  0.5122  0.1651
17782TIP3    H174837   5.105   0.022   2.821 -1.0366 -1.1486 -1.5816
17782TIP3    H274838   4.962   0.071   2.826 -0.7192 -0.4033  1.0089
17783TIP3   OH274839   0.643   6.221   3.178  0.0536  0.4455  0.1111
17783TIP3    H174840   0.584   6.182   3.242 -0.4500  0.5294 -0.2982
17783TIP3    H274841   0.585   6.249   3.107  0.6722 -0.1306 -0.6212
17784TIP3   OH274842   4.725   6.089  14.916  0.1799  0.0004  0.0162
17784TIP3    H174843   4.671   6.022  14.957 -1.1117  0.3211 -1.1311
17784TIP3    H274844   4.815   6.055  14.923 -0.4866 -2.0123 -0.9071
17785TIP3   OH274845   5.007   5.975  12.624 -0.0649 -0.2400  0.2345
17785TIP3    H174846   5.056   6.053  12.652 -0.8665 -0.0159  1.0205
17785TIP3    H274847   4.924   5.980  12.671 -0.6747 -0.8557 -0.7467
17786TIP3   OH274848   4.541   2.043   4.163 -0.9169 -0.0965 -0.0394
17786TIP3    H174849   4.478   2.097   4.210 -0.3754 -0.9411  1.7129
17786TIP3    H274850   4.518   2.053   4.071 -1.2190  2.6062  0.2868
17787TIP3   OH274851   3.085   4.803  16.690 -0.4275 -0.4972 -0.0226
17787TIP3    H174852   3.043   4.777  16.608  0.8057 -1.1766 -0.4470
17787TIP3    H274853   3.172   4.764  16.686  0.7624  2.0445  0.2279
17788TIP3   OH274854   1.107   4.150   2.922 -0.2642 -0.5782 -0.0795
17788TIP3    H174855   1.116   4.178   2.831 -0.4687 -0.0324  0.0671
17788TIP3    H274856   1.176   4.085   2.934  0.2953 -0.0415 -0.3793
17789TIP3   OH274857   6.633   2.182   4.778 -0.1056  0.0698 -0.2573
17789TIP3    H174858   6.575   2.258   4.774  1.1461  0.9988 -1.1755
17789TIP3    H274859   6.606   2.128   4.705 -0.3626  0.1059 -0.1896
17790TIP3   OH274860   6.024   2.332   2.970 -0.8406  0.6279 -0.2434
17790TIP3    H174861   6.089   2.393   2.936 -1.8847  0.9130 -1.8180
17790TIP3    H274862   6.036   2.333   3.064 -0.4930  2.8758 -0.2979
17791TIP3   OH274863   5.307   3.754  14.116 -0.7239 -0.9829  0.1040
17791TIP3    H174864   5.388   3.724  14.158 -1.1507 -1.2669  0.7231
17791TIP3    H274865   5.304   3.848  14.133 -0.4474 -0.9455 -0.0531
17792TIP3   OH274866   1.015   3.019  15.505 -0.0912  0.5121 -0.0487
17792TIP3    H174867   0.931   2.974  15.500 -0.0159  0.1426  1.7697
17792TIP3    H274868   0.993   3.112  15.494 -0.6816  0.3587 -0.1525
17793TIP3   OH274869   5.938   6.339  14.143  0.3244  0.0607  0.1397
17793TIP3    H174870   5.956   6.265  14.085 -2.2232 -1.0551  0.7440
17793TIP3    H274871   5.857   6.377  14.108  1.3846  2.3580  0.0717
17794TIP3   OH274872   2.321   3.862   4.491 -0.1622  0.2870  0.0342
17794TIP3    H174873   2.413   3.855   4.515  0.1380  0.1298 -1.1112
17794TIP3    H274874   2.273   3.827   4.566  0.7233  0.1268  0.5247
17795TIP3   OH274875   6.587   4.394  12.493  0.2861  0.0294  0.0176
17795TIP3    H174876   6.604   4.378  12.400  0.3485 -0.1907  0.0665
17795TIP3    H274877   6.665   4.360  12.538 -0.8168 -2.1790  0.3471
17796TIP3   OH274878   4.991   6.377  11.566 -0.0491 -0.2930  0.0350
17796TIP3    H174879   4.917   6.413  11.616 -0.8511 -2.3248  0.3628
17796TIP3    H274880   4.996   6.286  11.594 -0.0604 -1.2932 -3.0744
17797TIP3   OH274881   4.537   4.448  16.546  0.0127  0.2548  0.5991
17797TIP3    H174882   4.545   4.413  16.634 -0.4630 -0.0556  0.5228
17797TIP3    H274883   4.619   4.495  16.530  0.8515 -1.2287  0.5301
17798TIP3   OH274884   1.295   2.866   4.252  0.2815 -0.0124 -0.1916
17798TIP3    H174885   1.288   2.819   4.336  0.7323 -0.7520 -0.5623
17798TIP3    H274886   1.208   2.857   4.213  0.3463 -0.4942 -0.2325
17799TIP3   OH274887   1.825   2.473   5.910  0.1901 -0.1969 -0.1168
17799TIP3    H174888   1.733   2.457   5.930  0.3918 -0.9108  0.2447
17799TIP3    H274889   1.867   2.388   5.921  1.4211  0.7185  2.7110
17800TIP3   OH274890   4.267   0.177   3.034 -0.2855 -0.4923  0.5375
17800TIP3    H174891   4.345   0.185   3.088  2.5791 -0.4863 -3.4573
17800TIP3    H274892   4.257   0.262   2.993 -1.6154 -0.9041 -0.0311
17801TIP3   OH274893   1.958   0.655   4.203 -0.0451  0.0642 -0.0501
17801TIP3    H174894   1.890   0.721   4.197  0.0590  0.4546  2.3832
17801TIP3    H274895   2.039   0.702   4.182 -0.3899 -0.2001 -2.0758
17802TIP3   OH274896   4.040   0.374   5.486  0.0864  0.7189  0.2004
17802TIP3    H174897   3.945   0.370   5.484  0.0964  0.8375 -0.8026
17802TIP3    H274898   4.068   0.284   5.501 -0.1766  0.6585  0.3295
17803TIP3   OH274899   3.754   6.138  13.465 -0.1479  0.2013  0.8117
17803TIP3    H174900   3.788   6.049  13.479 -0.9306  0.0926  2.2566
17803TIP3    H274901   3.691   6.128  13.394  0.0147 -0.3503  0.7373
17804TIP3   OH274902   3.204   3.766  12.350  0.2465 -0.1424 -0.0145
17804TIP3    H174903   3.204   3.677  12.387  0.7741  0.3293  1.1223
17804TIP3    H274904   3.294   3.778  12.319  0.0919 -0.1177 -0.4573
17805TIP3   OH274905   4.900   2.889   0.051 -0.1766 -0.3383  0.1549
17805TIP3    H174906   4.806   2.908   0.043 -0.4821 -1.0851  1.6549
17805TIP3    H274907   4.922   2.918   0.139  1.0274 -0.0864 -0.2310
17806TIP3   OH274908   6.542   3.123  13.717 -0.4976  0.2598  0.0005
17806TIP3    H174909   6.463   3.130  13.663 -0.0537  0.1463 -0.6743
17806TIP3    H274910   6.574   3.213  13.725 -0.2947  0.2185 -0.3362
17807TIP3   OH274911   5.375   0.557  16.359  0.8343  0.1658  0.3796
17807TIP3    H174912   5.448   0.506  16.395 -0.2257  0.1001  2.4963
17807TIP3    H274913   5.417   0.636  16.324  2.2627 -1.2336 -1.2026
17808TIP3   OH274914   0.705   1.786   3.018  0.2513  0.4119 -0.0985
17808TIP3    H174915   0.673   1.798   3.108 -0.0969  1.4405 -0.3608
17808TIP3    H274916   0.662   1.705   2.989 -0.5232  0.6810  0.2686
17809TIP3   OH274917   2.662   4.743  15.397  0.2365 -0.1315 -0.2005
17809TIP3    H174918   2.674   4.795  15.477  2.5848  0.9699 -1.2167
17809TIP3    H274919   2.671   4.805  15.325  1.4193 -1.6235 -1.3894
17810TIP3   OH274920   2.003   2.884  16.139 -0.1268 -0.0108 -0.1021
17810TIP3    H174921   2.054   2.815  16.181  0.5028 -0.3140 -1.3447
17810TIP3    H274922   1.970   2.937  16.211 -0.1680 -1.2965  0.8354
17811TIP3   OH274923   4.637   2.277   5.524 -0.1866 -0.6727 -0.0451
17811TIP3    H174924   4.670   2.318   5.604  0.8181 -1.0190 -0.2767
17811TIP3    H274925   4.626   2.350   5.463 -1.5428 -0.3287  0.6022
17812TIP3   OH274926   4.424   5.701   5.224 -0.4037  0.1609 -0.2298
17812TIP3    H174927   4.403   5.781   5.272  1.8978  1.6515 -1.5865
17812TIP3    H274928   4.430   5.729   5.133  0.0617 -1.6411 -0.7747
17813TIP3   OH274929   1.724   3.214   3.463 -0.1105 -0.2125  0.1588
17813TIP3    H174930   1.672   3.150   3.414 -1.6453  0.6302  0.6516
17813TIP3    H274931   1.794   3.239   3.403 -1.2984 -0.0609 -1.1944
17814TIP3   OH274932   3.428   3.691   1.429 -0.7820 -0.2133 -0.7351
17814TIP3    H174933   3.443   3.766   1.372  0.5420  1.1491  1.3184
17814TIP3    H274934   3.381   3.727   1.505  1.4738 -1.0263  1.1332
17815TIP3   OH274935   3.933   3.567   0.056  0.4915  0.5969  0.5757
17815TIP3    H174936   3.973   3.641   0.102  0.8290  1.7776 -1.5668
17815TIP3    H274937   4.008   3.520   0.018  0.2384 -0.5602  1.4808
17816TIP3   OH274938   0.389   3.576  15.567  0.3740 -0.0696 -0.3761
17816TIP3    H174939   0.352   3.653  15.612  1.5627 -0.3147  1.0627
17816TIP3    H274940   0.432   3.612  15.490  0.9697  0.7433  0.3160
17817TIP3   OH274941   5.097   1.254   6.521  0.3175  0.7301  0.5141
17817TIP3    H174942   5.075   1.179   6.465  0.5986  1.6763 -0.9054
17817TIP3    H274943   5.189   1.242   6.542  0.6598  1.2388 -0.6349
17818TIP3   OH274944   3.768   0.555  14.204  0.4974  0.1954 -0.3337
17818TIP3    H174945   3.800   0.636  14.164  0.5370  0.0316 -0.6334
17818TIP3    H274946   3.796   0.562  14.296 -0.3184  0.9490 -0.1296
17819TIP3   OH274947   4.989   4.892  16.749  0.0422  0.0881 -0.1714
17819TIP3    H174948   4.929   4.952  16.795  1.6348  2.2168 -0.7805
17819TIP3    H274949   5.073   4.904  16.794  0.7186 -0.6334 -1.2297
17820TIP3   OH274950   5.404   3.428   2.439  0.4605  0.2153 -0.2128
17820TIP3    H174951   5.402   3.454   2.531 -0.2421  0.1053 -0.1999
17820TIP3    H274952   5.369   3.339   2.438 -1.9300  1.1497 -0.9085
17821TIP3   OH274953   1.819   3.542   3.158  0.7110  0.1591 -0.1021
17821TIP3    H174954   1.758   3.576   3.224 -0.4134  0.5752 -1.3058
17821TIP3    H274955   1.899   3.592   3.171 -0.1893  1.7451 -0.3729
17822TIP3   OH274956   4.221   3.025   1.124 -0.3426  0.1262  0.3029
17822TIP3    H174957   4.199   2.937   1.091  1.8253 -0.1239 -0.5906
17822TIP3    H274958   4.259   3.009   1.210 -0.2966  0.2087  0.2974
17823TIP3   OH274959   4.756   3.296   0.020 -0.7320  0.1682  0.0374
17823TIP3    H174960   4.771   3.313   0.113  0.5412 -0.8569  0.0381
17823TIP3    H274961   4.705   3.214   0.019 -1.1464  0.4249 -0.1615
17824TIP3   OH274962   0.627   0.115   1.682  0.1507  0.2778  0.1397
17824TIP3    H174963   0.541   0.154   1.668 -0.3349 -0.6080  0.6124
17824TIP3    H274964   0.625   0.083   1.772  1.6196  1.8562  0.7664
17825TIP3   OH274965   0.032   5.550  13.460 -0.0901 -0.3596  0.4131
17825TIP3    H174966   0.007   5.523  13.548 -0.6456 -0.3079  0.2685
17825TIP3    H274967  -0.020   5.628  13.442 -1.7557 -1.7409 -0.8772
17826TIP3   OH274968   5.667   0.763   1.385  0.4923 -0.1573 -0.2088
17826TIP3    H174969   5.618   0.743   1.465 -1.1509 -0.3393 -1.2553
17826TIP3    H274970   5.623   0.713   1.317  1.3342  0.7138 -1.4049
17827TIP3   OH274971   0.153   2.431   4.654  0.5676 -0.5657 -0.0740
17827TIP3    H174972   0.180   2.486   4.727 -1.3139 -0.1098  0.3221
17827TIP3    H274973   0.175   2.482   4.576 -2.0322  1.2650  0.3069
17828TIP3   OH274974   2.575   4.638  11.946  0.2252  0.2618 -0.3622
17828TIP3    H174975   2.526   4.718  11.927  0.2801  0.1048 -1.1566
17828TIP3    H274976   2.647   4.667  12.002 -0.7651  0.4976  0.8047
17829TIP3   OH274977   2.090   2.159  15.476 -0.5943  0.0445 -0.2458
17829TIP3    H174978   2.017   2.211  15.511 -0.3835  1.1718 -1.4566
17829TIP3    H274979   2.160   2.223  15.462  0.2381 -0.8530 -0.1817
17830TIP3   OH274980   5.498   2.856  14.688  0.0683 -0.3091  0.0845
17830TIP3    H174981   5.438   2.913  14.735 -1.8380 -1.6823 -0.6191
17830TIP3    H274982   5.526   2.791  14.753  0.8122  0.3478  0.4192
17831TIP3   OH274983   6.153   0.606   5.907 -0.9308  0.2120  0.6832
17831TIP3    H174984   6.078   0.549   5.893 -0.9196  0.4072 -0.1711
17831TIP3    H274985   6.220   0.549   5.944 -0.6253 -0.5190 -0.9624
17832TIP3   OH274986   1.937   6.081   3.529 -0.5869 -0.2475 -0.2065
17832TIP3    H174987   1.903   6.034   3.605 -1.2469 -1.6582 -1.3477
17832TIP3    H274988   2.030   6.057   3.526 -0.2951  0.7264  0.8097
17833TIP3   OH274989   2.001   5.669   5.243  0.2704 -0.4465  0.1516
17833TIP3    H174990   2.056   5.590   5.243  1.2722  0.2338  1.5430
17833TIP3    H274991   2.042   5.727   5.179  0.6889 -0.2632  0.5882
17834TIP3   OH274992   2.893   0.746  16.912  0.0190  0.3035 -0.0893
17834TIP3    H174993   2.888   0.719  17.004  2.5499 -2.1138 -0.6088
17834TIP3    H274994   2.926   0.836  16.915 -1.7247  0.9385  1.3902
17835TIP3   OH274995   5.116   1.049   5.723 -0.1203 -0.2303  0.3219
17835TIP3    H174996   5.044   1.099   5.762  0.1325  1.2415 -1.0251
17835TIP3    H274997   5.184   1.115   5.707 -0.3391 -0.7321 -2.8512
17836TIP3   OH274998   2.028   0.787  15.421 -0.4149 -0.7097  0.9574
17836TIP3    H174999   1.959   0.805  15.357 -0.1764 -0.1554  0.8443
17836TIP3    H275000   2.071   0.872  15.434  0.5525 -1.1417  0.6586
17837TIP3   OH275001   5.550   5.823  11.490 -0.2477 -0.9290  0.4468
17837TIP3    H175002   5.631   5.772  11.494  0.6433  0.4799  0.6527
17837TIP3    H275003   5.561   5.880  11.414 -0.2584  0.5591  1.5422
17838TIP3   OH275004   5.793   6.816  12.002  0.0870  0.0924 -0.8378
17838TIP3    H175005   5.840   6.804  12.085  2.5216  0.7031 -2.1025
17838TIP3    H275006   5.858   6.800  11.934 -1.5060  1.0512 -2.6475
17839TIP3   OH275007   1.550   6.759  16.960 -0.0566  0.3813  0.2567
17839TIP3    H175008   1.625   6.704  16.935  0.3382  1.1477 -0.2600
17839TIP3    H275009   1.485   6.697  16.992 -0.9318 -0.8100 -3.5066
17840TIP3   OH275010   6.761   6.678  16.651  0.4683  0.1538  0.0076
17840TIP3    H175011   6.742   6.640  16.565  0.2619  2.0897 -0.8380
17840TIP3    H275012   6.782   6.603  16.707 -0.7410 -1.2532 -1.3755
17841TIP3   OH275013   6.154   1.982   6.729 -0.2480 -0.2717 -0.1885
17841TIP3    H175014   6.080   2.009   6.675 -0.5142 -0.7070 -0.0334
17841TIP3    H275015   6.120   1.915   6.787  0.3847 -0.8265 -0.4494
17842TIP3   OH275016   6.191   3.362  13.610  0.3094  0.4733 -0.7589
17842TIP3    H175017   6.209   3.269  13.597 -0.8259 -0.1606  2.0741
17842TIP3    H275018   6.098   3.372  13.588  0.0598  0.6527  0.3785
17843TIP3   OH275019   6.144   2.689  11.448 -0.5167 -0.3012  0.1584
17843TIP3    H175020   6.149   2.755  11.517 -0.5772 -0.1738  0.0418
17843TIP3    H275021   6.059   2.705  11.406  0.3659  0.9304 -1.2557
17844TIP3   OH275022   3.846   3.798   2.782 -0.3689 -0.1754  0.6507
17844TIP3    H175023   3.800   3.765   2.859 -1.4324 -1.3627 -0.4658
17844TIP3    H275024   3.802   3.880   2.760 -0.9150 -0.5045  0.5259
17845TIP3   OH275025   3.093   4.271  13.449  0.6833 -0.7949 -0.0266
17845TIP3    H175026   3.037   4.194  13.447 -0.1115 -0.2042 -0.9748
17845TIP3    H275027   3.050   4.331  13.509  0.7634 -0.6895 -0.0736
17846TIP3   OH275028   0.459   4.722  13.207  0.2363  0.0539  0.1136
17846TIP3    H175029   0.416   4.684  13.131  2.2317 -0.8173 -0.6025
17846TIP3    H275030   0.387   4.751  13.263 -1.2434  0.7286 -2.0986
17847TIP3   OH275031   5.577   6.491  13.507 -0.6942  0.1513 -0.5653
17847TIP3    H175032   5.580   6.508  13.601  0.9004 -0.7918 -0.4230
17847TIP3    H275033   5.485   6.471  13.489 -0.8037 -0.8177  1.0164
17848TIP3   OH275034   5.395   6.620   2.107 -0.0433 -0.2288  0.1119
17848TIP3    H175035   5.321   6.642   2.050  2.0559  0.2042 -2.5672
17848TIP3    H275036   5.444   6.701   2.116 -1.0082  0.0264  3.6816
17849TIP3   OH275037   2.760   1.874   5.739 -0.4247  0.2394  0.8388
17849TIP3    H175038   2.767   1.888   5.645 -0.0137 -0.5920  0.7398
17849TIP3    H275039   2.673   1.905   5.761  0.7545  3.7674  0.8087
17850TIP3   OH275040   0.680   2.533  13.763 -0.2404  0.0579  0.1923
17850TIP3    H175041   0.589   2.540  13.792 -0.5615  1.5521 -1.0861
17850TIP3    H275042   0.674   2.491  13.677  0.5921 -3.1782  1.6426
17851TIP3   OH275043   6.592   4.939   4.576 -0.2229  0.0226  0.6860
17851TIP3    H175044   6.671   4.909   4.531 -0.6098  0.0204 -0.0063
17851TIP3    H275045   6.614   5.027   4.607  0.0148  0.0694  0.3859
17852TIP3   OH275046   6.390   5.893  17.278  0.1558  0.5969  0.4552
17852TIP3    H175047   6.477   5.876  17.243 -0.2578 -1.2479  0.2784
17852TIP3    H275048   6.385   5.840  17.358 -0.6655  0.9886  0.6736
17853TIP3   OH275049   0.973   4.338  16.057  0.1368  0.0066 -0.9786
17853TIP3    H175050   1.046   4.387  16.017 -0.6760  1.5613 -0.5899
17853TIP3    H275051   0.978   4.360  16.150 -1.0414  0.4204 -1.0079
17854TIP3   OH275052   5.450   3.995   5.432 -0.1602 -0.2549  0.3098
17854TIP3    H175053   5.445   4.071   5.491  1.8114  0.0941  0.0592
17854TIP3    H275054   5.466   3.921   5.490  0.7963 -0.0575  0.2947
17855TIP3   OH275055   5.195   2.573  13.161 -0.3269  0.1917  0.3587
17855TIP3    H175056   5.163   2.587  13.071  1.3263 -1.4092 -0.5174
17855TIP3    H275057   5.190   2.660  13.202 -1.4376  0.8771 -1.1570
17856TIP3   OH275058   3.412   6.233   3.097  0.4206  0.2407  0.3086
17856TIP3    H175059   3.459   6.273   3.170  1.4954  0.0271 -0.2569
17856TIP3    H275060   3.336   6.289   3.083  0.2669  0.3332  1.5266
17857TIP3   OH275061   6.256   5.599   0.875  0.1267 -0.3161 -0.0041
17857TIP3    H175062   6.184   5.548   0.838  0.5204 -0.4195 -0.6513
17857TIP3    H275063   6.226   5.689   0.873  0.0856 -0.3379 -0.4529
17858TIP3   OH275064   1.174   5.063   5.942  0.4707  0.1707  0.3910
17858TIP3    H175065   1.116   5.014   5.884 -0.4868 -0.3983  1.7871
17858TIP3    H275066   1.116   5.093   6.012  1.6447  0.6481  1.1591
17859TIP3   OH275067   4.147   2.050   3.330 -0.0000 -0.1980  0.3813
17859TIP3    H175068   4.068   2.056   3.384 -0.3453 -1.7640  0.0726
17859TIP3    H275069   4.123   1.992   3.258  1.0797  0.2533 -0.3553
17860TIP3   OH275070   2.030   2.279   1.016 -0.6885 -0.0850 -0.5353
17860TIP3    H175071   2.010   2.276   0.922  0.3026  2.8021 -0.9082
17860TIP3    H275072   1.982   2.206   1.054 -0.8776 -1.4852 -3.3367
17861TIP3   OH275073   3.338   3.956   0.108 -0.0007  0.0965 -0.1362
17861TIP3    H175074   3.257   3.953   0.160 -0.5620  0.6690 -0.9627
17861TIP3    H275075   3.378   3.871   0.122 -0.3395  0.0997  0.9322
17862TIP3   OH275076   0.557   1.196   6.252  0.3408  0.7345 -0.3845
17862TIP3    H175077   0.523   1.286   6.247  0.7785  1.0642  1.8553
17862TIP3    H275078   0.479   1.141   6.239  0.2012  1.4159 -2.5398
17863TIP3   OH275079   2.678   3.099  13.907 -0.7836  0.1471  0.3824
17863TIP3    H175080   2.709   3.017  13.945  1.7127  0.1043 -1.6176
17863TIP3    H275081   2.609   3.073  13.846 -0.5364 -0.3950  0.3330
17864TIP3   OH275082   5.265   3.165   4.907  0.0585 -0.3229 -0.2526
17864TIP3    H175083   5.310   3.140   4.988  1.7480  1.4188 -0.6212
17864TIP3    H275084   5.257   3.083   4.858  0.9333 -1.0264  0.7579
17865TIP3   OH275085   0.462   5.665   2.364 -0.0392  0.0863 -0.4079
17865TIP3    H175086   0.494   5.655   2.274 -0.0038  0.3251 -0.4225
17865TIP3    H275087   0.370   5.691   2.354 -0.7476 -2.2688 -0.3540
17866TIP3   OH275088   5.438   6.769  15.951  1.0762  0.2414 -0.5214
17866TIP3    H175089   5.370   6.711  15.917  0.3258 -0.3971  1.9189
17866TIP3    H275090   5.501   6.778  15.880  0.8162 -2.9725 -1.2100
17867TIP3   OH275091   4.777   2.089  12.074  0.5498  0.1986 -0.5956
17867TIP3    H175092   4.735   2.175  12.081  1.4193  0.5288  0.7936
17867TIP3    H275093   4.766   2.064  11.982  1.1515  2.2447 -1.2509
17868TIP3   OH275094   1.274   5.295  11.058 -0.1763  0.4925 -0.0685
17868TIP3    H175095   1.224   5.213  11.056  2.5491 -1.1995 -0.6169
17868TIP3    H275096   1.303   5.308  10.968  1.3013  0.8424  0.4463
17869TIP3   OH275097   0.290   1.929   4.031 -0.4038 -0.3621  0.8204
17869TIP3    H175098   0.259   2.012   4.069  1.1296  0.1255  1.0543
17869TIP3    H275099   0.385   1.938   4.029 -0.2173 -2.1277  0.8429
17870TIP3   OH275100   6.484   0.119   0.869  0.0785  0.0675 -0.4446
17870TIP3    H175101   6.572   0.131   0.904  0.4430 -2.5948 -0.3576
17870TIP3    H275102   6.428   0.114   0.946  0.0937 -0.0061 -0.4381
17871TIP3   OH275103   6.111   6.185  12.025 -0.1605 -0.2170 -0.4597
17871TIP3    H175104   6.186   6.150  11.977  0.7886  0.6269  0.3746
17871TIP3    H275105   6.135   6.276  12.043 -0.5774 -0.4504  1.4039
17872TIP3   OH275106   4.285   5.689  14.950  0.4509  0.1517 -0.0862
17872TIP3    H175107   4.287   5.783  14.937  0.9681  0.2409  0.6121
17872TIP3    H275108   4.227   5.656  14.881  0.0338  1.0054 -0.1480
17873TIP3   OH275109   5.659   4.637   1.566  0.2083  0.0425 -0.0928
17873TIP3    H175110   5.664   4.555   1.517 -1.3725 -1.2261  1.7912
17873TIP3    H275111   5.687   4.614   1.654 -0.0791  1.5770  0.4082
17874TIP3   OH275112   0.052   4.694   0.533  0.3995 -0.2175 -0.1571
17874TIP3    H175113   0.109   4.627   0.570  0.3647  0.0024  0.2895
17874TIP3    H275114   0.112   4.754   0.487  0.3134 -1.3004 -1.7324
17875TIP3   OH275115   1.904   3.225   3.950  0.6041  0.7945  0.7656
17875TIP3    H175116   1.973   3.286   3.978 -0.1776  2.2757 -0.4855
17875TIP3    H275117   1.951   3.144   3.931  1.7460  1.1866  1.8235
17876TIP3   OH275118   5.770   1.659  14.736  0.2697 -0.7357 -0.2818
17876TIP3    H175119   5.776   1.732  14.798 -0.4276 -0.0058 -1.0455
17876TIP3    H275120   5.676   1.639  14.732  0.3173 -0.8152 -1.0553
17877TIP3   OH275121   3.844   1.179   2.291  0.1682  0.2990  0.2040
17877TIP3    H175122   3.915   1.127   2.253  0.6832  0.3518  1.0837
17877TIP3    H275123   3.885   1.261   2.317  0.1719 -0.3399  2.3009
17878TIP3   OH275124   4.311   0.108   5.741  1.1596  0.7864  0.0012
17878TIP3    H175125   4.329   0.191   5.786  2.6351 -0.0532  0.9971
17878TIP3    H275126   4.250   0.062   5.800  0.6107  1.0085 -0.3880
17879TIP3   OH275127   1.600   0.964   1.104  0.1142  0.1873  0.0038
17879TIP3    H175128   1.589   0.882   1.056 -0.5712  0.2533  0.0321
17879TIP3    H275129   1.672   0.948   1.165  0.6012 -0.0863 -0.6381
17880TIP3   OH275130   2.359   0.044  14.173  0.4263 -0.0547 -0.2095
17880TIP3    H175131   2.410   0.038  14.254  0.1630 -0.8381 -0.0992
17880TIP3    H275132   2.309   0.125  14.182 -0.1960 -0.5392  0.7681
17881TIP3   OH275133   4.114   1.606  11.467  0.2367  0.1385  0.7412
17881TIP3    H175134   4.027   1.602  11.428  0.9232 -1.0087 -0.7248
17881TIP3    H275135   4.171   1.635  11.396  1.0315  1.0972  1.7495
17882TIP3   OH275136   0.879   1.527   1.900 -0.0177 -0.7650 -0.4677
17882TIP3    H175137   0.961   1.495   1.862 -1.0069 -1.5443 -2.0044
17882TIP3    H275138   0.888   1.508   1.993  2.5453  1.4004 -0.2290
17883TIP3   OH275139   5.400   3.984  17.020  0.1654 -0.6945  0.5810
17883TIP3    H175140   5.401   3.924  17.094  2.8035  0.0530  1.1883
17883TIP3    H275141   5.438   3.933  16.948  0.1855 -0.5347  0.4792
17884TIP3   OH275142   0.856   6.000   1.225  0.1785  0.2700 -0.6777
17884TIP3    H175143   0.824   6.085   1.193  2.7711  0.4118 -3.0150
17884TIP3    H275144   0.850   5.942   1.150 -2.1638 -1.8631  1.0814
17885TIP3   OH275145   3.142   0.655   5.832  0.1657 -0.8458 -0.4003
17885TIP3    H175146   3.086   0.670   5.756 -0.6650 -2.0039 -0.0383
17885TIP3    H275147   3.083   0.664   5.908  0.8371 -0.3780  0.0734
17886TIP3   OH275148   3.280   0.446  11.264  0.6411  0.3275 -0.3488
17886TIP3    H175149   3.268   0.512  11.332  0.2261  0.2741 -0.3656
17886TIP3    H275150   3.234   0.481  11.188 -1.6127 -1.0287  0.3437
17887TIP3   OH275151   6.023   4.043   2.885  0.4523  0.0400  0.2841
17887TIP3    H175152   6.022   4.001   2.971 -1.6820 -1.1869 -0.3004
17887TIP3    H275153   5.933   4.075   2.873  1.1040  1.5141 -0.8670
17888TIP3   OH275154   5.574   5.631  15.605  0.0872  0.3863  0.1590
17888TIP3    H175155   5.492   5.645  15.653  0.0009  2.0273 -0.4105
17888TIP3    H275156   5.617   5.558  15.650 -1.5741 -0.3278  0.6060
17889TIP3   OH275157   1.025   0.508  13.517  0.5645 -0.3734 -0.4715
17889TIP3    H175158   1.059   0.597  13.512  1.4988 -0.6397  0.7496
17889TIP3    H275159   0.989   0.501  13.605  1.3374 -1.4799 -0.2290
17890TIP3   OH275160   0.599   5.232  11.328  0.2405 -0.4749  0.1386
17890TIP3    H175161   0.692   5.217  11.349  0.3695 -0.5925 -0.5189
17890TIP3    H275162   0.593   5.327  11.314 -0.1015 -0.2051  1.9395
17891TIP3   OH275163   3.237   1.488  14.583  0.9586 -0.3427 -0.2768
17891TIP3    H175164   3.330   1.475  14.564  1.4869  1.9223  0.6342
17891TIP3    H275165   3.235   1.515  14.675 -0.3435  2.3520 -1.0512
17892TIP3   OH275166   4.173   0.385   1.060  0.2437 -0.4653  0.0000
17892TIP3    H175167   4.172   0.298   1.019  0.1914 -0.3488 -0.2479
17892TIP3    H275168   4.210   0.443   0.993  0.6266 -0.3628  0.2999
17893TIP3   OH275169   2.760   3.477  12.882 -0.3125 -0.2685 -0.2813
17893TIP3    H175170   2.847   3.514  12.898  0.9020 -1.5762 -3.4263
17893TIP3    H275171   2.703   3.553  12.874  0.9438  0.6880 -0.3039
17894TIP3   OH275172   4.559   4.948   2.283 -0.3365  0.2262  0.0454
17894TIP3    H175173   4.620   4.957   2.210 -1.5193 -0.1521 -1.0057
17894TIP3    H275174   4.507   4.871   2.262 -0.9177  0.3127  1.1197
17895TIP3   OH275175   2.107   2.702   4.826  0.4775 -0.3763 -0.0209
17895TIP3    H175176   2.021   2.720   4.864  0.9368  0.4382  0.6534
17895TIP3    H275177   2.169   2.733   4.892  1.2887 -1.0151 -0.4762
17896TIP3   OH275178   4.596   2.550  11.924 -0.1066 -0.5473  0.1488
17896TIP3    H175179   4.545   2.562  12.004 -0.2354 -1.2328  0.1660
17896TIP3    H275180   4.685   2.578  11.948 -1.2127  4.2698 -0.9060
17897TIP3   OH275181   5.665   3.807   5.307 -0.2946  0.4879 -0.6309
17897TIP3    H175182   5.760   3.819   5.312 -0.3717  1.1479 -0.7031
17897TIP3    H275183   5.630   3.896   5.305 -1.0937  0.2880  2.3554
17898TIP3   OH275184   3.832   5.872  12.134 -0.0082 -0.2946 -0.8231
17898TIP3    H175185   3.819   5.787  12.091  0.6734 -1.4087  1.1179
17898TIP3    H275186   3.922   5.869  12.167 -0.0209  1.1410 -0.6322
17899TIP3   OH275187   3.856   6.348   5.301 -0.1679 -0.4584  0.3099
17899TIP3    H175188   3.928   6.355   5.364 -0.1463 -0.2996  0.2672
17899TIP3    H275189   3.777   6.352   5.355 -0.1516 -0.1861  0.3170
17900TIP3   OH275190   6.277   2.556   3.993  0.1748 -0.3198  0.3688
17900TIP3    H175191   6.368   2.577   4.017  0.1340  0.4105 -0.1101
17900TIP3    H275192   6.233   2.541   4.077  0.1175  1.8721  0.7576
17901TIP3   OH275193   3.331   0.065  12.282  0.2879 -0.6236  0.0212
17901TIP3    H175194   3.267   0.059  12.354 -0.5320 -1.2764 -0.7548
17901TIP3    H275195   3.409   0.023  12.317  0.0604 -0.4945  0.7136
17902TIP3   OH275196   0.174   0.114  14.916  0.2036 -0.6944  0.2576
17902TIP3    H175197   0.243   0.178  14.929  0.6859 -1.2907  0.6649
17902TIP3    H275198   0.115   0.126  14.991 -0.8079  0.6423 -0.7219
17903TIP3   OH275199   5.013   3.593   3.213 -0.3014 -0.3252  0.5424
17903TIP3    H175200   5.048   3.526   3.271 -0.5492  0.8232  2.0608
17903TIP3    H275201   4.971   3.656   3.272 -0.9238  0.6513 -0.9167
17904TIP3   OH275202   3.833   1.279   3.320 -0.0040 -0.0580  0.2056
17904TIP3    H175203   3.867   1.319   3.400 -0.0390  0.5803 -0.0947
17904TIP3    H275204   3.759   1.335   3.296 -0.6547 -0.8564  0.3054
17905TIP3   OH275205   1.706   2.935  12.964 -0.1213 -0.2519  0.5921
17905TIP3    H175206   1.688   2.842  12.977 -0.8419  0.0272  1.5946
17905TIP3    H275207   1.690   2.949  12.870 -2.4336 -0.6198  0.9016
17906TIP3   OH275208   5.261   4.445  12.846  0.0329  0.3683 -0.3466
17906TIP3    H175209   5.272   4.524  12.792 -1.5603 -0.2369 -1.5953
17906TIP3    H275210   5.270   4.372  12.784  3.2890 -0.5386  1.0760
17907TIP3   OH275211   0.806   5.833  13.441  0.3704 -0.2621 -0.4376
17907TIP3    H175212   0.711   5.848  13.437  0.5420  1.1570  0.4392
17907TIP3    H275213   0.832   5.825  13.349 -0.3697  0.9332 -0.7688
17908TIP3   OH275214   1.895   0.816   6.039  0.5063  1.1048  0.0782
17908TIP3    H175215   1.928   0.884   5.980  1.4477 -0.5871 -1.4076
17908TIP3    H275216   1.870   0.745   5.980 -1.8984  0.7408  1.4960
17909TIP3   OH275217   4.313   1.962   5.272  0.8062 -0.2439  0.0222
17909TIP3    H175218   4.368   1.900   5.223  0.2543 -1.0134  0.3751
17909TIP3    H275219   4.228   1.919   5.280  1.3955 -1.0105  3.2997
17910TIP3   OH275220   5.782   1.613   1.620  0.5279 -0.1328 -0.1651
17910TIP3    H175221   5.799   1.539   1.561 -0.1900 -0.2943 -0.1813
17910TIP3    H275222   5.854   1.612   1.682  0.7670 -0.5671 -0.4460
17911TIP3   OH275223   5.222   0.509  15.453 -0.1150  0.4715  0.4532
17911TIP3    H175224   5.136   0.537  15.485 -1.8440 -2.7605 -1.1552
17911TIP3    H275225   5.233   0.556  15.370 -0.1712  1.1520  0.8281
17912TIP3   OH275226   0.496   2.361  16.341 -0.5523  0.4765 -0.4927
17912TIP3    H175227   0.495   2.327  16.431  1.5007 -2.3940 -1.4932
17912TIP3    H275228   0.413   2.332  16.304 -0.4884 -0.1333 -0.1639
17913TIP3   OH275229   3.125   3.386   3.538 -0.2381  0.0139 -0.6340
17913TIP3    H175230   3.214   3.396   3.571 -0.1911  0.6075 -0.9351
17913TIP3    H275231   3.077   3.345   3.611 -0.0564  1.0178  0.0650
17914TIP3   OH275232   1.163   6.114  13.683 -0.1606  0.3591 -0.0375
17914TIP3    H175233   1.137   6.090  13.772 -0.5545  0.8426 -0.0231
17914TIP3    H275234   1.178   6.030  13.639 -0.8659  0.0953  0.2145
17915TIP3   OH275235   1.681   4.117  16.469  0.1734 -0.1312 -0.0889
17915TIP3    H175236   1.623   4.147  16.539 -0.0576 -2.6618  0.8659
17915TIP3    H275237   1.627   4.060  16.415  1.1169 -0.5058 -0.6552
17916TIP3   OH275238   2.245   1.643   1.822  0.0533  0.2596  0.4558
17916TIP3    H175239   2.199   1.726   1.812  0.5295  0.3333 -1.2609
17916TIP3    H275240   2.338   1.666   1.821  0.1823 -0.2129  0.8104
17917TIP3   OH275241   1.920   0.563   0.821 -0.1398  0.1285  0.0490
17917TIP3    H175242   1.990   0.577   0.757 -0.1224  1.1095  0.2678
17917TIP3    H275243   1.842   0.550   0.768 -0.2508  1.6305 -0.1794
17918TIP3   OH275244   5.913   2.517   2.625 -0.0265 -0.1804  0.3796
17918TIP3    H175245   5.920   2.436   2.575 -0.0044  0.1715 -0.1939
17918TIP3    H275246   5.997   2.561   2.611 -0.1396  0.0678  0.4756
17919TIP3   OH275247   4.421   6.335   1.526 -0.5190  0.0104  0.3490
17919TIP3    H175248   4.497   6.289   1.491  0.5885  0.9768  1.4720
17919TIP3    H275249   4.408   6.408   1.465  0.2410  0.5884  0.8769
17920TIP3   OH275250   1.952   2.738  11.122  0.0272 -0.3821  0.4740
17920TIP3    H175251   1.983   2.788  11.046  1.1116 -2.5961 -0.5845
17920TIP3    H275252   1.941   2.803  11.191  1.7098  1.2699 -0.7823
17921TIP3   OH275253   2.417   6.653   1.830 -0.5509 -0.5275  0.3725
17921TIP3    H175254   2.384   6.742   1.839 -1.2214 -0.4682 -2.3676
17921TIP3    H275255   2.432   6.624   1.920 -1.1213  2.0356  1.3306
17922TIP3   OH275256   2.840   5.125  12.986  0.1723 -0.4438  0.1965
17922TIP3    H175257   2.815   5.197  12.927 -1.8872 -1.4109 -0.1391
17922TIP3    H275258   2.879   5.059  12.928 -0.1254 -0.6050  0.1806
17923TIP3   OH275259   2.629   3.907   3.187 -0.3820  0.4373 -0.3846
17923TIP3    H175260   2.538   3.916   3.217 -1.3158 -1.5965 -2.4667
17923TIP3    H275261   2.661   3.998   3.182 -2.3432  1.1953  0.1965
17924TIP3   OH275262   1.499   1.236   5.875  0.0679 -0.1894  0.7715
17924TIP3    H175263   1.428   1.234   5.940 -0.1216 -0.7792  0.5509
17924TIP3    H275264   1.549   1.157   5.892 -0.4388 -0.7502 -0.3075
17925TIP3   OH275265   1.683   3.015   3.269  0.4013  0.1759 -0.3240
17925TIP3    H175266   1.632   2.934   3.278 -1.1924  1.1807 -0.0915
17925TIP3    H275267   1.774   2.987   3.282 -0.1577 -1.5108  0.1788
17926TIP3   OH275268   2.514   2.324   0.875  0.1858 -0.1670  0.1065
17926TIP3    H175269   2.526   2.229   0.879 -0.9022 -0.2738  1.1775
17926TIP3    H275270   2.570   2.358   0.945 -0.9338 -0.1844  1.0252
17927TIP3   OH275271   2.510   1.276   6.110 -0.6801 -0.7296  0.3576
17927TIP3    H175272   2.508   1.243   6.020  0.5078 -4.0671  1.4921
17927TIP3    H275273   2.602   1.278   6.133 -1.0267 -0.6893  1.7782
17928TIP3   OH275274   1.183   2.008  16.967  0.4560 -0.1515  0.3098
17928TIP3    H175275   1.117   2.011  17.036  1.3579 -0.1066  1.1802
17928TIP3    H275276   1.246   2.076  16.991  1.2938 -0.8042 -0.0290
17929TIP3   OH275277   1.985   5.241   1.017 -0.3296 -0.0680  0.0146
17929TIP3    H175278   2.067   5.199   0.993  0.5049  1.3984  0.2120
17929TIP3    H275279   1.994   5.262   1.110 -1.0244 -0.1222  0.1001
17930TIP3   OH275280   3.500   2.742   2.662  0.5908  0.1496 -0.8011
17930TIP3    H175281   3.593   2.746   2.684  0.1139  0.0638  1.3336
17930TIP3    H275282   3.456   2.736   2.747 -1.2609 -1.6064 -1.8461
17931TIP3   OH275283   1.539   6.429   3.053  0.3899 -0.2753  0.0791
17931TIP3    H175284   1.459   6.391   3.090  0.8437 -0.9380  0.3876
17931TIP3    H275285   1.587   6.354   3.017  0.8327  0.1323 -0.1890
17932TIP3   OH275286   2.868   0.686  17.189 -0.1280 -0.4258 -0.2758
17932TIP3    H175287   2.846   0.771  17.227 -1.4941 -1.1510  0.5476
17932TIP3    H275288   2.825   0.622  17.244  0.3506 -1.6452 -1.2832
17933TIP3   OH275289   0.007   6.067   1.693 -0.0584  0.3719 -0.1242
17933TIP3    H175290  -0.033   6.154   1.693  1.0263  0.8753 -1.7224
17933TIP3    H275291  -0.003   6.036   1.784  1.4221  3.0301  0.9953
17934TIP3   OH275292   1.803   1.506  10.876 -0.8575  0.0704 -0.0647
17934TIP3    H175293   1.889   1.544  10.892 -1.2040 -0.0641  2.3254
17934TIP3    H275294   1.744   1.582  10.872 -0.9510  0.0289  0.5371
17935TIP3   OH275295   2.896   4.417  11.079  0.1812 -0.4951 -0.0750
17935TIP3    H175296   2.843   4.340  11.100 -0.1191 -0.6713 -1.4604
17935TIP3    H275297   2.837   4.491  11.089 -0.1597 -0.6392 -0.9919
17936TIP3   OH275298   2.604   5.449   4.118 -0.3697 -0.2775  0.3483
17936TIP3    H175299   2.579   5.530   4.075  1.7810  0.0329 -0.3464
17936TIP3    H275300   2.649   5.398   4.051  1.8019 -0.3604  1.8239
17937TIP3   OH275301   1.965   1.746   3.555 -0.0660 -0.5601 -0.4433
17937TIP3    H175302   2.000   1.766   3.468 -1.4391 -0.6879 -1.0384
17937TIP3    H275303   1.948   1.652   3.553 -1.8355 -0.2550 -0.6960
17938TIP3   OH275304   2.159   4.651   6.658 -0.0011 -0.1446  0.5435
17938TIP3    H175305   2.218   4.700   6.716  2.9202 -1.8881 -0.8512
17938TIP3    H275306   2.089   4.713   6.638  1.8204  2.3390  1.5246
17939TIP3   OH275307   1.676   0.333  16.842  0.0558  0.0275  0.5425
17939TIP3    H175308   1.606   0.346  16.779 -0.3522  1.8931  1.3444
17939TIP3    H275309   1.638   0.276  16.909  0.5647 -2.1535 -0.9593
17940TIP3   OH275310   0.373   4.489   1.260  0.0770  0.6459 -0.1284
17940TIP3    H175311   0.294   4.527   1.299 -0.7431 -0.9368 -0.2201
17940TIP3    H275312   0.398   4.551   1.192 -0.9291  1.2939  0.0776
17941TIP3   OH275313   0.709   4.005   5.953 -0.2449  0.3228 -0.0282
17941TIP3    H175314   0.701   4.038   6.042 -0.3793  1.6592 -0.5167
17941TIP3    H275315   0.681   3.914   5.958  0.4582  0.1833  1.4290
17942TIP3   OH275316   0.133   5.456  12.839 -0.2809  0.6916  0.1260
17942TIP3    H175317   0.140   5.372  12.884 -0.2089  0.2531 -0.6783
17942TIP3    H275318   0.214   5.502  12.861 -1.1709  1.3251  2.0946
17943TIP3   OH275319   4.173   4.070   2.512 -0.6104  0.0706 -0.3854
17943TIP3    H175320   4.255   4.034   2.545 -0.1761  0.8703 -0.5769
17943TIP3    H275321   4.197   4.117   2.433 -1.6282 -1.6805 -1.7753
17944TIP3   OH275322   6.344   5.203  12.110 -0.5966 -0.0929 -0.2236
17944TIP3    H175323   6.380   5.263  12.176  2.2244 -3.4994  1.5426
17944TIP3    H275324   6.387   5.229  12.029 -1.8010  2.2238 -0.1681
17945TIP3   OH275325   1.663   5.211  13.990  0.2735 -0.0577 -0.0001
17945TIP3    H175326   1.624   5.128  14.014  0.0864 -0.0618 -0.3212
17945TIP3    H275327   1.608   5.245  13.919  0.7809 -0.0128 -0.3797
17946TIP3   OH275328   1.230   3.056  14.958 -0.6289 -0.1513 -0.4115
17946TIP3    H175329   1.147   3.097  14.931  0.2357  1.0129 -1.3461
17946TIP3    H275330   1.295   3.125  14.947  0.4180 -0.9710  0.6451
17947TIP3   OH275331   4.897   6.053  10.942 -0.2711  0.2886  0.6027
17947TIP3    H175332   4.874   5.968  10.906  1.7857 -0.2314  0.4441
17947TIP3    H275333   4.909   6.109  10.864  2.0001 -0.2610  0.5223
17948TIP3   OH275334   0.048   1.250   0.348  0.4444  0.6514 -0.2922
17948TIP3    H175335   0.064   1.211   0.434 -0.6314 -1.0066 -0.8374
17948TIP3    H275336  -0.021   1.314   0.364  1.1032  1.2346  0.2932
17949TIP3   OH275337   2.261   0.324   1.459 -0.1340 -0.2229  0.3959
17949TIP3    H175338   2.276   0.327   1.553  2.6096  0.7062 -0.0313
17949TIP3    H275339   2.210   0.403   1.440 -0.7008 -0.4216  1.0868
17950TIP3   OH275340   5.476   5.904   1.208 -0.0350 -0.3627 -0.0277
17950TIP3    H175341   5.529   5.982   1.192 -0.5454 -0.3275 -1.6048
17950TIP3    H275342   5.461   5.905   1.302  1.5385  0.4176  0.2418
17951TIP3   OH275343   3.317   1.233   1.681  1.0640 -0.3535 -0.4832
17951TIP3    H175344   3.331   1.324   1.654  0.7009  0.0360  0.6004
17951TIP3    H275345   3.361   1.226   1.765  1.3539 -1.2732 -0.7057
17952TIP3   OH275346   5.077   1.000  15.489 -0.1057  0.1255  0.0398
17952TIP3    H175347   5.123   0.922  15.518 -0.5552  0.8081  2.7387
17952TIP3    H275348   5.040   0.976  15.404  1.8738 -1.7239 -0.3463
17953TIP3   OH275349   6.031   2.295  16.613  0.1952 -0.5976 -0.1573
17953TIP3    H175350   6.065   2.365  16.669 -1.2122 -1.1973  1.4610
17953TIP3    H275351   6.106   2.270  16.558  2.2583 -1.4894  2.9348
17954TIP3   OH275352   2.118   1.018   0.866  0.2392 -0.4554  0.4000
17954TIP3    H175353   2.037   0.989   0.910  0.0451 -1.2791 -0.4801
17954TIP3    H275354   2.092   1.029   0.775  0.4682  1.9406  0.5904
17955TIP3   OH275355   3.523   4.549   3.282  1.4218 -0.0135  0.3712
17955TIP3    H175356   3.536   4.617   3.348 -0.6223  1.3065 -0.5314
17955TIP3    H275357   3.561   4.586   3.202 -0.7526  0.6487 -0.4125
17956TIP3   OH275358   2.458   2.064  11.358  0.6257 -0.5770 -0.0130
17956TIP3    H175359   2.417   2.053  11.272 -1.1199  1.6068  0.4870
17956TIP3    H275360   2.501   2.150  11.353  1.7551 -1.0786  0.8311
17957TIP3   OH275361   3.731   4.678   3.062 -0.5070  0.1016 -0.1220
17957TIP3    H175362   3.808   4.696   3.008  1.0200  0.0350  1.9829
17957TIP3    H275363   3.712   4.760   3.107 -0.5777 -0.3772  0.7322
17958TIP3   OH275364   0.831   4.277  12.318 -0.4480 -0.0065 -0.0695
17958TIP3    H175365   0.859   4.365  12.294 -0.2334  0.1509  0.7492
17958TIP3    H275366   0.749   4.263  12.270  0.0459  0.2468 -0.9981
17959TIP3   OH275367   2.778   5.277  12.743 -0.4889  0.3548  0.3601
17959TIP3    H175368   2.805   5.369  12.742  1.9572 -0.3178  0.2336
17959TIP3    H275369   2.845   5.232  12.692 -3.0058 -1.1757 -1.7155
17960TIP3   OH275370   1.180   3.072   4.714 -0.5509  0.2627 -0.5671
17960TIP3    H175371   1.160   3.086   4.622 -2.1833  0.7478 -0.1448
17960TIP3    H275372   1.095   3.070   4.758  0.1931 -0.1848  0.9007
17961TIP3   OH275373   4.460   6.493   4.484 -0.0209 -0.3306  0.2182
17961TIP3    H175374   4.471   6.400   4.504 -2.3079 -1.0177 -1.4802
17961TIP3    H275375   4.429   6.532   4.566 -1.2571 -1.5240  0.3382
17962TIP3   OH275376   3.591   3.811  16.170 -0.3171  0.0521 -0.1756
17962TIP3    H175377   3.546   3.745  16.222 -3.3913  1.1239 -1.3694
17962TIP3    H275378   3.606   3.883  16.231 -1.1609  0.0928 -0.0138
17963TIP3   OH275379   0.863   6.121  13.423  0.4428  0.6033  0.2657
17963TIP3    H175380   0.901   6.034  13.408 -0.9842 -0.0700  0.4877
17963TIP3    H275381   0.770   6.104  13.438  0.3162  2.0886  1.2193
17964TIP3   OH275382   0.541   6.476   3.295  0.0067  0.0983 -0.4121
17964TIP3    H175383   0.479   6.429   3.350 -0.8114  1.0626 -0.4840
17964TIP3    H275384   0.594   6.408   3.253 -0.8468 -0.7205 -0.1590
17965TIP3   OH275385   6.446   3.396  17.031  0.5107  0.1524 -0.4525
17965TIP3    H175386   6.372   3.353  17.073  1.3198 -0.8473 -0.0007
17965TIP3    H275387   6.430   3.387  16.937  0.8274 -1.4669 -0.3690
17966TIP3   OH275388   6.128   2.565  15.347 -1.0417 -0.5815  0.0067
17966TIP3    H175389   6.092   2.589  15.433  1.5146 -1.5074  1.3896
17966TIP3    H275390   6.193   2.633  15.328  0.6439 -2.0712  0.3064
17967TIP3   OH275391   5.018   0.291  16.336 -0.1259 -0.2246 -0.2630
17967TIP3    H175392   5.011   0.220  16.272  1.1293 -0.1857 -0.4437
17967TIP3    H275393   5.066   0.253  16.409 -0.8669 -0.0344  0.3288
17968TIP3   OH275394   4.074   4.882  12.652  0.1894  0.0761  0.4234
17968TIP3    H175395   4.007   4.905  12.587  1.0362  3.1299  0.5781
17968TIP3    H275396   4.026   4.873  12.734 -0.3408  0.0063  0.1082
17969TIP3   OH275397   2.937   5.657   3.238  0.6512 -0.3707  0.2276
17969TIP3    H175398   2.962   5.598   3.167  0.7744  0.5761 -0.5348
17969TIP3    H275399   3.020   5.681   3.280  0.6039 -0.7242  0.5195
17970TIP3   OH275400   4.800   5.499  12.449  0.0073  0.0239 -0.0819
17970TIP3    H175401   4.836   5.439  12.515 -1.5512 -0.7523  0.0932
17970TIP3    H275402   4.713   5.521  12.482  0.6797  2.6447 -0.0156
17971TIP3   OH275403   6.013   1.077  14.567  0.6672 -0.0832  0.2660
17971TIP3    H175404   6.090   1.035  14.605  1.0274 -0.0421 -0.4066
17971TIP3    H275405   5.992   1.023  14.490  0.4283  0.2952  0.0622
17972TIP3   OH275406   2.233   2.072   3.398 -0.5569 -0.1177 -0.3335
17972TIP3    H175407   2.286   1.998   3.427 -0.2100  0.3959  0.3525
17972TIP3    H275408   2.188   2.102   3.477 -1.5249 -0.2504 -0.8125
17973TIP3   OH275409   4.311   6.630   1.339 -0.0142 -0.0728  0.1099
17973TIP3    H175410   4.317   6.726   1.336 -0.2427 -0.0489  0.4274
17973TIP3    H275411   4.399   6.600   1.318 -0.5843  0.1650 -2.8743
17974TIP3   OH275412   3.997   3.631  15.591  0.5214  0.6624 -0.7238
17974TIP3    H175413   4.060   3.567  15.557 -2.3985 -2.5411 -0.4315
17974TIP3    H275414   4.012   3.631  15.685  0.2505  0.0513 -0.6760
17975TIP3   OH275415   3.293   3.492  11.275 -0.3665 -0.1674  0.3026
17975TIP3    H175416   3.290   3.515  11.182  0.4720  0.1958  0.3620
17975TIP3    H275417   3.257   3.403  11.278  0.0636 -0.3746 -0.4334
17976TIP3   OH275418   2.265   3.256   2.908  0.0319 -0.7145 -0.2606
17976TIP3    H175419   2.215   3.184   2.948 -1.2544  0.2912  0.0100
17976TIP3    H275420   2.277   3.230   2.817 -1.3592 -0.8140 -0.4329
17977TIP3   OH275421   6.133   5.297  16.591  0.9086 -0.2335 -0.1535
17977TIP3    H175422   6.177   5.381  16.603  0.8378 -0.2421  0.1535
17977TIP3    H275423   6.092   5.278  16.675 -0.5038  0.2351 -0.7363
17978TIP3   OH275424   1.209   5.118  12.781 -0.5772  0.0781  0.0831
17978TIP3    H175425   1.237   5.118  12.689  1.9120  0.2028  0.7869
17978TIP3    H275426   1.203   5.211  12.803 -1.5728  0.0506 -0.0536
17979TIP3   OH275427   0.627   0.554  16.776  0.1526 -1.0750 -0.3911
17979TIP3    H175428   0.557   0.607  16.815  1.7233  0.2942  0.5822
17979TIP3    H275429   0.640   0.482  16.838  0.8812 -0.3135  0.3411
17980TIP3   OH275430   4.025   2.608  10.134  0.3897 -0.2223  0.1276
17980TIP3    H175431   3.963   2.539  10.158  1.1676 -0.8765  0.2810
17980TIP3    H275432   4.076   2.624  10.213 -0.7323  1.5357  0.4965
17981TIP3   OH275433   2.271   6.436  13.399  0.4633 -0.2476 -0.1698
17981TIP3    H175434   2.219   6.356  13.403  2.2066 -1.3975  0.1266
17981TIP3    H275435   2.280   6.454  13.306  0.4084 -0.6397 -0.2527
17982TIP3   OH275436   2.022   2.650   3.278  0.0920  0.8740 -0.5457
17982TIP3    H175437   2.043   2.557   3.291  0.7948  1.0798 -0.1702
17982TIP3    H275438   2.107   2.692   3.268 -0.2402  1.4320 -1.0585
17983TIP3   OH275439   2.713   6.703   2.217 -0.4200  0.0890  0.3395
17983TIP3    H175440   2.771   6.642   2.263 -0.7460  0.3186  1.0532
17983TIP3    H275441   2.773   6.766   2.177 -0.0493 -0.9368 -0.7814
17984TIP3   OH275442   4.511   1.269  12.136 -0.5922  0.1790  0.1349
17984TIP3    H175443   4.546   1.354  12.161 -1.9630  0.7453  0.2131
17984TIP3    H275444   4.416   1.279  12.144 -0.8833 -0.7370 -1.7566
17985TIP3   OH275445   3.064   6.039   5.000  0.4005 -0.8469  0.2265
17985TIP3    H175446   3.038   5.967   5.058 -1.2339  0.4023  1.0749
17985TIP3    H275447   3.102   6.104   5.058  0.4064 -0.3418 -0.3380
17986TIP3   OH275448   0.218   1.584  15.918  0.1106 -0.3642  0.2079
17986TIP3    H175449   0.311   1.609  15.911  0.3513 -0.5898  2.1895
17986TIP3    H275450   0.188   1.626  15.998 -1.2214 -1.1557  0.1449
17987TIP3   OH275451   6.701   4.242  11.005  0.4304  0.8734  0.5384
17987TIP3    H175452   6.699   4.293  11.086 -1.8101 -0.0163  1.0781
17987TIP3    H275453   6.609   4.232  10.980  0.9414 -1.1243 -0.6836
17988TIP3   OH275454   3.131   6.119   6.123  0.6897  0.4957 -0.0752
17988TIP3    H175455   3.131   6.202   6.171 -1.7847  0.5282 -0.0499
17988TIP3    H275456   3.222   6.106   6.098  0.9706  3.7796 -1.0118
17989TIP3   OH275457   2.679   2.619  12.560 -0.4886  0.0710  0.3064
17989TIP3    H175458   2.725   2.630  12.477  1.2201 -1.2005  1.0518
17989TIP3    H275459   2.619   2.694  12.565  1.0576  1.4181 -0.9676
17990TIP3   OH275460   0.343   6.753   5.684 -0.5520  0.0726  0.6809
17990TIP3    H175461   0.379   6.668   5.658  0.9344  1.2058 -1.0679
17990TIP3    H275462   0.256   6.756   5.646  0.1041  0.0733 -0.8497
17991TIP3   OH275463   4.913   1.583  11.658  0.3893 -0.4285 -0.3098
17991TIP3    H175464   4.987   1.639  11.636 -1.2380  1.1018 -2.0799
17991TIP3    H275465   4.870   1.628  11.731  0.6379 -0.8289  0.0917
17992TIP3   OH275466   6.332   0.744  14.472  0.4953  0.1341  0.1306
17992TIP3    H175467   6.417   0.762  14.432  0.0904  0.0362 -0.7628
17992TIP3    H275468   6.337   0.651  14.495 -0.0702 -0.3262 -1.6016
17993TIP3   OH275469   2.690   3.842   6.459  0.1020 -0.4504  0.1462
17993TIP3    H175470   2.640   3.773   6.503  0.0164  0.1753  1.0262
17993TIP3    H275471   2.624   3.895   6.415  0.0590 -0.0982  0.6390
17994TIP3   OH275472   2.877   5.459  12.497 -0.4090  0.6292 -0.1605
17994TIP3    H175473   2.890   5.365  12.488 -0.4780  0.7474 -1.5012
17994TIP3    H275474   2.785   5.472  12.477 -0.6119  0.8863  0.8877
17995TIP3   OH275475   1.800   3.661  13.233  0.3069  0.1029  0.2138
17995TIP3    H175476   1.770   3.573  13.258 -0.9605  0.4034 -0.1913
17995TIP3    H275477   1.788   3.713  13.312 -0.1285  0.1934  0.0893
17996TIP3   OH275478   1.219   5.243  17.046 -0.5048  0.0291  0.4943
17996TIP3    H175479   1.227   5.240  17.142  1.0060  0.1923  0.3862
17996TIP3    H275480   1.201   5.335  17.027  1.6840  0.4921  0.4745
17997TIP3   OH275481   4.049   4.320  16.082 -0.5066 -0.7511 -0.8637
17997TIP3    H175482   4.001   4.359  16.154  0.8658  1.6946 -1.2222
17997TIP3    H275483   3.997   4.244  16.056 -2.4441 -0.0354  0.8611
17998TIP3   OH275484   4.874   3.958  12.582  0.8142  0.4724  0.2450
17998TIP3    H175485   4.801   4.012  12.552  0.9515  0.0749 -0.8135
17998TIP3    H275486   4.834   3.894  12.641  0.1896 -0.1968 -0.8870
17999TIP3   OH275487   0.117   6.466   2.018 -0.4348  0.0348 -1.0338
17999TIP3    H175488   0.152   6.513   1.942  0.6493 -1.7201 -1.6808
17999TIP3    H275489   0.138   6.374   1.999 -3.0888 -0.7812 -0.1644
18000TIP3   OH275490   3.415   3.397   3.941 -0.2713  0.1851 -0.7295
18000TIP3    H175491   3.490   3.343   3.964  1.0047  2.1951 -0.0405
18000TIP3    H275492   3.339   3.342   3.959  0.8577 -0.3321  2.8784
18001TIP3   OH275493   0.357   1.733  12.361 -1.3566  0.6251  0.1185
18001TIP3    H175494   0.390   1.803  12.304  0.6570 -1.7524 -1.7268
18001TIP3    H275495   0.287   1.691  12.311 -1.0087 -0.1468  0.2772
18002TIP3   OH275496   5.266   4.709  17.104  0.2650 -0.4185  0.6561
18002TIP3    H175497   5.331   4.724  17.173 -0.3836  2.8006  0.6350
18002TIP3    H275498   5.318   4.697  17.024  0.9268  2.8064  0.5155
18003TIP3   OH275499   5.220   3.826  13.456 -0.0412  0.6991  0.1567
18003TIP3    H175500   5.295   3.847  13.400 -2.1583  3.1166 -1.9029
18003TIP3    H275501   5.211   3.902  13.514  0.9959 -0.9837  2.6084
18004TIP3   OH275502   2.314   5.771  17.058 -0.4119  0.1420  0.0705
18004TIP3    H175503   2.302   5.676  17.051 -0.9887  0.2592 -0.5946
18004TIP3    H275504   2.302   5.804  16.969  2.2210  0.5970 -0.1451
18005TIP3   OH275505   0.764   0.379   5.666  0.2687 -0.0239  0.1126
18005TIP3    H175506   0.850   0.382   5.708  0.5661 -0.6444 -0.4422
18005TIP3    H275507   0.755   0.464   5.624  0.8293 -0.1410 -0.2514
18006TIP3   OH275508   5.135   1.029  14.477 -0.3274  0.1653  0.1947
18006TIP3    H175509   5.119   1.119  14.448  0.4740  0.0849 -0.5046
18006TIP3    H275510   5.171   0.985  14.401 -0.9014 -0.8137  0.4758
18007TIP3   OH275511   6.602   1.066  14.439 -0.0785 -0.4416 -0.2437
18007TIP3    H175512   6.640   0.977  14.439 -2.5342 -1.5346  1.0253
18007TIP3    H275513   6.603   1.091  14.531 -0.6523  0.3000 -0.4412
18008TIP3   OH275514   4.200   2.441   0.761 -0.0246  0.3759  0.4649
18008TIP3    H175515   4.260   2.366   0.764  0.0447  0.3409 -1.3307
18008TIP3    H275516   4.257   2.516   0.744 -0.0372  0.9334  2.7002
18009TIP3   OH275517   2.806   3.493  13.767 -0.0004  0.3309 -0.2625
18009TIP3    H175518   2.714   3.521  13.760 -0.4544 -1.3458 -1.3850
18009TIP3    H275519   2.805   3.424  13.834  0.4799  0.4294 -0.1541
18010TIP3   OH275520   5.443   4.575   4.547 -0.5551  0.2276 -0.6932
18010TIP3    H175521   5.504   4.627   4.600  0.7748  0.0336 -2.0251
18010TIP3    H275522   5.496   4.506   4.508 -1.4446  0.5416 -2.5346
18011TIP3   OH275523   3.062   1.978  11.172  0.1393  0.3214 -0.0255
18011TIP3    H175524   2.970   2.002  11.161  0.3556  1.0365 -0.2451
18011TIP3    H275525   3.077   1.910  11.105 -0.2128  0.2278 -0.0124
18012TIP3   OH275526   2.695   2.979  13.002 -0.3430  0.3495  0.1105
18012TIP3    H175527   2.702   2.917  13.074 -1.0901 -0.7632 -0.7523
18012TIP3    H275528   2.602   2.984  12.983 -0.3017  1.8414  0.2415
18013TIP3   OH275529   0.708   2.226  14.350  0.0856  0.3209  0.8183
18013TIP3    H175530   0.720   2.256  14.259 -1.1451 -3.3973 -0.6584
18013TIP3    H275531   0.796   2.221  14.385  0.6058  1.5606 -0.2388
18014TIP3   OH275532   1.819   2.358  14.707  0.2501 -0.4032 -0.5571
18014TIP3    H175533   1.914   2.347  14.703  0.3328 -0.0049  0.1068
18014TIP3    H275534   1.791   2.296  14.774 -0.0072 -0.7948 -1.0266
18015TIP3   OH275535   6.461   5.043   1.244 -0.0471  0.3319 -0.4602
18015TIP3    H175536   6.493   5.074   1.329  2.9059 -0.2635 -1.3151
18015TIP3    H275537   6.494   4.954   1.236  1.8291  1.1945 -3.2512
18016TIP3   OH275538   5.096   6.331  11.154 -0.2989 -0.2915 -0.1194
18016TIP3    H175539   5.140   6.267  11.098 -0.1880  1.1763 -1.7734
18016TIP3    H275540   5.003   6.306  11.151 -0.6584  1.1311 -2.9400
18017TIP3   OH275541   3.491   0.547  12.430 -0.5404  0.1869  0.7637
18017TIP3    H175542   3.568   0.546  12.487 -0.0749 -0.2411  0.1341
18017TIP3    H275543   3.430   0.484  12.470  0.1118 -0.7192  0.3530
18018TIP3   OH275544   6.079   2.706   4.945  0.1508  0.1409 -0.0554
18018TIP3    H175545   6.051   2.714   5.036  0.6772  0.9191  0.0446
18018TIP3    H275546   6.072   2.612   4.926  1.0665 -0.1835  1.1313
18019TIP3   OH275547   2.450   5.889   1.779 -0.0540 -0.2945 -0.1777
18019TIP3    H175548   2.383   5.899   1.711 -0.4305 -0.3939  0.1748
18019TIP3    H275549   2.454   5.795   1.795 -0.1614 -0.2471  0.1317
18020TIP3   OH275550   3.473   4.157   2.206  0.3184  0.3199 -0.4952
18020TIP3    H175551   3.497   4.141   2.115 -0.0400  2.2309 -0.9445
18020TIP3    H275552   3.392   4.208   2.201  2.0638  3.3133  0.8201
18021TIP3   OH275553   6.163   0.733  12.767 -0.4598 -0.2550 -0.1307
18021TIP3    H175554   6.157   0.744  12.862 -1.5215  0.7786 -0.3032
18021TIP3    H275555   6.072   0.727  12.738 -0.1582  0.1032 -1.1590
18022TIP3   OH275556   3.886   4.382   1.652  0.6873 -0.2393 -0.1218
18022TIP3    H175557   3.824   4.386   1.725  0.0734  3.3912 -0.7523
18022TIP3    H275558   3.971   4.369   1.693  0.1482  0.1576  1.1394
18023TIP3   OH275559   4.875   1.549  12.547  0.0341 -0.1565  0.1494
18023TIP3    H175560   4.938   1.480  12.569 -0.3755 -0.0322  1.7718
18023TIP3    H275561   4.807   1.541  12.613 -0.3065  1.4412  0.0188
18024TIP3   OH275562   1.197   0.524   0.428  0.6152 -0.3806 -0.2454
18024TIP3    H175563   1.176   0.529   0.335  0.3621 -0.5046 -0.1967
18024TIP3    H275564   1.214   0.614   0.454 -1.1855 -0.0854  0.0133
18025TIP3   OH275565   4.883   3.994  11.654 -0.5923  0.5729  0.2843
18025TIP3    H175566   4.963   3.998  11.707  0.1595 -0.4168 -0.7636
18025TIP3    H275567   4.869   3.901  11.639 -1.3710  0.7988 -0.4262
18026TIP3   OH275568   0.999   4.100  16.592 -0.0436  0.1788  0.0874
18026TIP3    H175569   0.958   4.078  16.508  1.1765 -1.1806 -0.1881
18026TIP3    H275570   0.943   4.060  16.658  0.4598 -1.1264 -0.2515
18027TIP3   OH275571   4.882   3.254   1.323  0.4587 -0.2728  0.3303
18027TIP3    H175572   4.888   3.349   1.324  2.2278 -0.3632  0.8361
18027TIP3    H275573   4.879   3.228   1.415  3.3639 -0.8323  0.3287
18028TIP3   OH275574   2.512   4.971  12.677 -0.2409  0.0404 -0.2874
18028TIP3    H175575   2.492   4.955  12.769  2.8244  0.9469  0.5939
18028TIP3    H275576   2.506   5.066  12.667  0.3153  0.0231 -0.8171
18029TIP3   OH275577   6.363   2.051   1.493  0.2994  0.2347  0.7155
18029TIP3    H175578   6.318   2.066   1.576  0.6986 -0.1686  1.0081
18029TIP3    H275579   6.383   1.957   1.493  0.6150  0.2985  0.3231
18030TIP3   OH275580   3.185   2.649  11.187  0.1015 -0.5885  0.1928
18030TIP3    H175581   3.268   2.680  11.151 -0.2183 -2.3744 -2.2191
18030TIP3    H275582   3.118   2.688  11.130 -0.6752  0.1685  1.6073
18031TIP3   OH275583   2.888   5.269  16.654 -0.1320  0.3529  0.6836
18031TIP3    H175584   2.795   5.263  16.630 -0.0393 -0.1445  0.4335
18031TIP3    H275585   2.922   5.340  16.599 -0.5283  1.0311  1.3144
18032TIP3   OH275586   0.623   0.148   5.616 -0.1126 -0.0545 -0.1604
18032TIP3    H175587   0.675   0.227   5.603 -2.1340  1.2643 -0.3919
18032TIP3    H275588   0.676   0.078   5.578  2.3141  0.9386  1.2615
18033TIP3   OH275589   6.246   0.994  15.661  0.3787 -0.0881 -0.7720
18033TIP3    H175590   6.289   1.068  15.619 -0.1853 -0.8054 -2.6579
18033TIP3    H275591   6.152   1.015  15.658  0.3746  0.1552  0.7362
18034TIP3   OH275592   2.674   3.901   6.128 -0.2097 -0.0715 -0.0733
18034TIP3    H175593   2.583   3.884   6.150 -0.7338  0.4144 -1.7418
18034TIP3    H275594   2.678   3.996   6.112  1.3540  0.5106  3.3153
18035TIP3   OH275595   3.128   0.981   5.780 -0.1284 -0.1659  0.7829
18035TIP3    H175596   3.131   0.950   5.870 -1.4952  0.9527  1.2196
18035TIP3    H275597   3.035   0.981   5.757  0.2214 -0.6123 -0.6841
18036TIP3   OH275598   5.057   5.547   5.829  1.1281  0.3556 -0.3344
18036TIP3    H175599   5.059   5.451   5.831  1.5233  0.3636 -0.4276
18036TIP3    H275600   5.114   5.574   5.901 -1.0772  0.5132  1.4080
18037TIP3   OH275601   1.101   6.329   3.719 -0.1769  0.2835 -0.4215
18037TIP3    H175602   1.109   6.297   3.629 -0.0543  0.0009 -0.3105
18037TIP3    H275603   1.047   6.408   3.712 -0.7774 -0.1398 -0.6586
18038TIP3   OH275604   5.400   5.031   0.748 -0.0824 -0.1179 -0.3106
18038TIP3    H175605   5.408   4.951   0.799  0.3427  1.3324  1.9903
18038TIP3    H275606   5.452   5.095   0.796  0.0974  1.3992 -2.4406
18039TIP3   OH275607   1.405   2.697  16.678  0.0140  0.4093  0.3086
18039TIP3    H175608   1.396   2.661  16.590  0.4256 -0.4854  0.6204
18039TIP3    H275609   1.487   2.660  16.711 -0.4971  0.1495  1.3253
18040TIP3   OH275610   0.473   4.774   1.365  0.1245 -0.6427 -0.1076
18040TIP3    H175611   0.554   4.726   1.381  0.2765 -0.1034  0.8201
18040TIP3    H275612   0.417   4.753   1.440 -1.2109 -2.2422 -1.5023
18041TIP3   OH275613   0.166   4.116   2.875  0.0712  0.1522 -0.6607
18041TIP3    H175614   0.104   4.116   2.803 -1.2394 -0.7886  0.4358
18041TIP3    H275615   0.172   4.208   2.902  1.1075  0.6135 -2.3861
18042TIP3   OH275616   6.097   0.489   5.210  0.2112  0.2774  0.1613
18042TIP3    H175617   6.094   0.583   5.225  0.7272  0.2436  0.4673
18042TIP3    H275618   6.094   0.450   5.297 -0.1696  0.0022  0.0297
18043TIP3   OH275619   4.784   4.835   1.605  0.0902 -0.2994 -0.4438
18043TIP3    H175620   4.784   4.889   1.684  1.0426 -0.4175 -0.3547
18043TIP3    H275621   4.728   4.761   1.626 -0.7422  0.3446 -0.3558
18044TIP3   OH275622   1.122   2.604   2.855  0.3049 -0.4050  0.6771
18044TIP3    H175623   1.111   2.682   2.910 -0.0505 -0.6432  0.9445
18044TIP3    H275624   1.215   2.586   2.858  0.3578 -0.1200  0.7966
18045TIP3   OH275625   3.829   5.322  13.973  0.3357  0.6052  0.3348
18045TIP3    H175626   3.758   5.259  13.961  2.5732 -2.1247  1.0132
18045TIP3    H275627   3.880   5.288  14.047  1.7733  3.0556  0.5310
18046TIP3   OH275628   6.346   3.518  16.323 -0.0877  0.0431 -0.1992
18046TIP3    H175629   6.323   3.610  16.311  1.3111  0.2247 -1.6634
18046TIP3    H275630   6.269   3.479  16.365 -0.8274  1.7963  0.1154
18047TIP3   OH275631   2.282   3.809  11.690  0.6962 -0.1025 -0.1382
18047TIP3    H175632   2.321   3.884  11.735  1.4417  0.2504 -1.3457
18047TIP3    H275633   2.195   3.839  11.663  0.1169 -0.4233  1.3208
18048TIP3   OH275634   3.929   1.787   5.470 -0.7027 -0.0840  0.1468
18048TIP3    H175635   3.882   1.705   5.461 -1.4945  0.2128  1.4174
18048TIP3    H275636   3.988   1.773   5.544  1.0670 -0.3745 -1.2860
18049TIP3   OH275637   6.779   6.397  11.203 -0.0621  0.6974 -0.1483
18049TIP3    H175638   6.748   6.319  11.158 -0.9393  0.8051  0.2622
18049TIP3    H275639   6.823   6.448  11.135  1.3878 -0.6057 -0.2168
18050TIP3   OH275640   2.152   6.705   4.776 -0.4522 -0.0113  0.2487
18050TIP3    H175641   2.180   6.781   4.726  1.4501 -0.8820 -0.0392
18050TIP3    H275642   2.137   6.637   4.709  0.8342 -0.7915  0.7452
18051TIP3   OH275643   6.332   2.101  17.159  0.3380 -0.3545  0.1552
18051TIP3    H175644   6.343   2.156  17.082 -0.3137 -0.0565  0.2736
18051TIP3    H275645   6.259   2.140  17.207 -0.7193 -1.8063 -0.2064
18052TIP3   OH275646   0.714   4.292  12.564  0.1633  0.1549 -0.0515
18052TIP3    H175647   0.772   4.333  12.500  0.7030  0.7633  0.8270
18052TIP3    H275648   0.667   4.226  12.513  0.5863  0.6264 -1.0827
18053TIP3   OH275649   0.660   1.224  12.101 -0.1720 -0.0600  0.5844
18053TIP3    H175650   0.699   1.300  12.059  1.9099 -0.1986  2.1890
18053TIP3    H275651   0.575   1.214  12.058  0.1366  2.2719 -0.6536
18054TIP3   OH275652   2.348   6.467   1.627 -0.0713 -0.2287 -0.2890
18054TIP3    H175653   2.283   6.420   1.679 -0.8630  0.1421 -0.9333
18054TIP3    H275654   2.368   6.546   1.679 -1.7410  0.7386 -1.0894
18055TIP3   OH275655   1.033   0.427  12.286  0.0585  0.1690 -0.3745
18055TIP3    H175656   0.978   0.431  12.209  0.5952 -3.5733 -1.0581
18055TIP3    H275657   0.994   0.359  12.341  0.9978  1.1420  1.5806
18056TIP3   OH275658   0.541   3.045  12.601  0.1726  0.3655  0.0679
18056TIP3    H175659   0.535   3.126  12.652  0.5171  0.6975 -0.4226
18056TIP3    H275660   0.620   3.054  12.549 -0.3331  0.1480 -0.7490
18057TIP3   OH275661   5.226   0.368   1.369 -0.2212  0.6312 -0.3452
18057TIP3    H175662   5.287   0.369   1.443 -0.3146  0.3151 -0.2611
18057TIP3    H275663   5.177   0.287   1.381  1.2899 -0.5646 -1.9793
18058TIP3   OH275664   4.330   5.976  13.878 -0.3142 -0.0461 -0.2708
18058TIP3    H175665   4.368   5.953  13.793 -0.8476 -0.4524 -0.3988
18058TIP3    H275666   4.381   6.052  13.907  0.7911 -0.7690 -0.3057
18059TIP3   OH275667   3.157   6.720  13.378  0.2562  0.1788 -0.3962
18059TIP3    H175668   3.093   6.780  13.340  0.2425 -0.2365 -1.0414
18059TIP3    H275669   3.183   6.663  13.305 -0.5641 -1.3002  0.4380
18060TIP3   OH275670   1.070   6.449   3.982 -0.1446  0.1031 -0.5831
18060TIP3    H175671   1.076   6.371   3.925  0.2935  1.4718 -2.4583
18060TIP3    H275672   1.158   6.457   4.019 -0.4894 -0.9196  0.5015
18061TIP3   OH275673   0.075   5.389   4.965 -0.2517 -0.4566 -0.1996
18061TIP3    H175674  -0.010   5.433   4.971 -1.1299 -2.3499  2.8410
18061TIP3    H275675   0.140   5.460   4.970 -1.6360  0.6650  3.3271
18062TIP3   OH275676   0.419   5.543  14.990  0.2949 -0.3876 -0.2757
18062TIP3    H175677   0.325   5.530  14.984  0.3805 -1.0316 -0.2885
18062TIP3    H275678   0.455   5.490  14.919  0.6040  0.6287 -0.8862
18063TIP3   OH275679   0.631   0.177   5.909 -0.1091 -0.1604 -0.8652
18063TIP3    H175680   0.627   0.160   5.814  1.8650  0.1178 -1.0088
18063TIP3    H275681   0.645   0.091   5.948 -0.0166 -0.1523 -0.8813
18064TIP3   OH275682   4.648   4.495   3.438 -0.0127  0.2413  0.0865
18064TIP3    H175683   4.733   4.451   3.446  1.0258  2.0520 -0.6520
18064TIP3    H275684   4.633   4.533   3.525 -0.7214 -1.2347  0.6090
18065TIP3   OH275685   6.527   6.028   5.548 -0.3147  0.3879 -0.2946
18065TIP3    H175686   6.571   5.955   5.591  1.1781  2.5922  2.0739
18065TIP3    H275687   6.434   6.009   5.558  0.0436 -0.7282  1.1682
18066TIP3   OH275688   3.692   2.872   5.440 -0.2868  0.4433 -0.3993
18066TIP3    H175689   3.635   2.924   5.384  1.8942  0.6757 -2.5200
18066TIP3    H275690   3.733   2.809   5.380  1.3670  0.0357  1.1142
18067TIP3   OH275691   0.944   4.147   3.229 -0.0947 -0.4307  0.0844
18067TIP3    H175692   0.879   4.202   3.272  0.8115  1.2232 -0.5900
18067TIP3    H275693   0.893   4.085   3.177 -1.1991  2.0229 -1.9095
18068TIP3   OH275694   1.523   0.321   5.800 -0.0355  0.1284  0.1252
18068TIP3    H175695   1.597   0.381   5.810 -0.4237  0.5626  0.4227
18068TIP3    H275696   1.527   0.293   5.709  1.4284 -1.0889  0.5544
18069TIP3   OH275697   4.557   4.276   5.789  0.2938  0.1929  0.0707
18069TIP3    H175698   4.535   4.353   5.737  1.0788  0.3500 -0.0360
18069TIP3    H275699   4.498   4.280   5.865  0.7307  1.2038  0.3574
18070TIP3   OH275700   1.023   6.750   6.510 -0.8600  0.0534 -0.9007
18070TIP3    H175701   1.068   6.734   6.593 -1.5498  0.2795 -0.4805
18070TIP3    H275702   0.996   6.842   6.515 -0.0825  0.3379 -1.7749
18071TIP3   OH275703   5.612   5.128  11.561  0.3590  0.2346  0.2944
18071TIP3    H175704   5.545   5.101  11.624  0.6421  0.2594  0.6114
18071TIP3    H275705   5.682   5.064  11.572  0.4425  0.2845  0.0564
18072TIP3   OH275706   4.333   3.262  15.225  0.0880 -0.2676  0.0830
18072TIP3    H175707   4.316   3.216  15.307 -1.5078 -0.6937 -0.4612
18072TIP3    H275708   4.357   3.351  15.252  0.3002 -0.6027  1.0318
18073TIP3   OH275709   2.182   4.096  13.482  0.0806  0.1635  0.1602
18073TIP3    H175710   2.157   4.038  13.553 -0.3657 -0.6158 -0.6164
18073TIP3    H275711   2.274   4.119  13.500 -0.1991  0.4140  1.2628
18074TIP3   OH275712   2.951   6.110  11.572  0.0942 -0.2616  0.4112
18074TIP3    H175713   2.910   6.157  11.499  0.3458  3.1560  2.3355
18074TIP3    H275714   3.032   6.075  11.536  0.7413  2.2922 -0.7300
18075TIP3   OH275715   3.259   2.456  16.695 -0.0340  0.1712 -0.4244
18075TIP3    H175716   3.224   2.539  16.661  1.7507  0.5686 -1.3686
18075TIP3    H275717   3.271   2.472  16.788 -1.3118  0.3954 -0.2912
18076TIP3   OH275718   4.065   4.049  15.665  0.2865 -0.1062  0.3675
18076TIP3    H175719   4.091   3.968  15.708 -0.9698 -0.7867 -0.1262
18076TIP3    H275720   4.130   4.113  15.693  1.1006 -1.2024  1.0251
18077TIP3   OH275721   5.153   4.844   0.965 -0.0385  1.0254  0.0989
18077TIP3    H175722   5.123   4.795   1.041  0.6031  0.4251 -0.0392
18077TIP3    H275723   5.215   4.908   1.000  1.4055 -0.2531 -0.1209
18078TIP3   OH275724   3.446   1.709  15.888 -0.2082  0.0957  0.2585
18078TIP3    H175725   3.438   1.616  15.864 -0.6633  0.1506  0.1897
18078TIP3    H275726   3.380   1.753  15.835  1.8937  0.8612 -1.8324
18079TIP3   OH275727   0.930   5.196  11.319 -0.2773  0.0154 -0.1709
18079TIP3    H175728   0.928   5.192  11.224  0.8964 -2.2089 -0.1559
18079TIP3    H275729   1.014   5.156  11.343 -0.5013  0.6501  1.7767
18080TIP3   OH275730   0.203   2.721  13.814  0.2870  0.2940 -0.1654
18080TIP3    H175731   0.181   2.808  13.848  0.4737  0.1035  0.4609
18080TIP3    H275732   0.188   2.662  13.888  1.2595 -0.0507 -0.2332
18081TIP3   OH275733   6.130   3.436  12.427  1.0480  0.3642 -0.4389
18081TIP3    H175734   6.057   3.497  12.431 -0.1595 -1.1581  1.6630
18081TIP3    H275735   6.090   3.353  12.402  2.2471 -0.2263 -0.4245
18082TIP3   OH275736   6.718   5.028   1.099  0.4556  0.0691 -0.2003
18082TIP3    H175737   6.630   5.061   1.120  0.8240  1.7446 -1.2139
18082TIP3    H275738   6.709   4.993   1.010  0.7367 -0.0886 -0.1657
18083TIP3   OH275739   5.380   2.589  16.983 -0.4599  0.1656  0.1941
18083TIP3    H175740   5.308   2.558  16.929  0.2922  1.4169 -1.5856
18083TIP3    H275741   5.406   2.672  16.943  0.9181  0.5214  1.7696
18084TIP3   OH275742   2.294   2.909  13.752  0.6157  0.3458 -0.3562
18084TIP3    H175743   2.218   2.966  13.765  1.9293  1.7275  1.5602
18084TIP3    H275744   2.321   2.924  13.662 -1.7736 -0.6706 -1.2717
18085TIP3   OH275745   6.524   1.410  11.554 -0.4423 -0.7538 -0.1926
18085TIP3    H175746   6.501   1.416  11.647 -0.8652 -0.3974 -0.3191
18085TIP3    H275747   6.577   1.487  11.537 -1.5279 -0.0723 -0.5738
18086TIP3   OH275748   2.380   3.118  17.272  0.2349 -0.0855  0.2530
18086TIP3    H175749   2.387   3.183  17.202 -0.1409  0.1518  0.4309
18086TIP3    H275750   2.452   3.138  17.331 -0.1320  0.4357  0.5249
18087TIP3   OH275751   1.231   3.448  15.402 -0.0815 -0.2227  0.2906
18087TIP3    H175752   1.259   3.486  15.486 -0.7745  0.7580  0.0900
18087TIP3    H275753   1.136   3.438  15.412 -0.3675  1.1366 -0.8446
18088TIP3   OH275754   6.061   5.880  16.581  0.2918 -0.1755 -0.7049
18088TIP3    H175755   6.039   5.956  16.526  0.4091  0.0728 -0.4149
18088TIP3    H275756   6.006   5.891  16.659  0.1761 -0.4869 -0.7460
18089TIP3   OH275757   0.246   3.818  12.701 -0.2469 -0.3177 -0.0849
18089TIP3    H175758   0.263   3.885  12.768 -0.9002 -0.5612  0.3243
18089TIP3    H275759   0.225   3.868  12.622  0.3115 -0.0332 -0.0595
18090TIP3   OH275760   2.507   6.670  11.344  0.2896 -0.5268 -0.7770
18090TIP3    H175761   2.508   6.575  11.332  1.2989 -0.4476 -1.3930
18090TIP3    H275762   2.564   6.704  11.275  3.0021  0.2596  1.7211
18091TIP3   OH275763   5.584   3.689   6.087 -0.7125 -0.0810  0.3571
18091TIP3    H175764   5.680   3.687   6.093 -0.5434 -0.9904 -1.9461
18091TIP3    H275765   5.554   3.676   6.176  1.3187  1.7316  1.3418
18092TIP3   OH275766   4.909   0.827  14.529  0.1107  0.3819  0.1888
18092TIP3    H175767   4.879   0.902  14.580 -1.0485 -1.0255  1.6157
18092TIP3    H275768   5.004   0.829  14.539 -0.0403  0.6136  1.7206
18093TIP3   OH275769   2.136   6.739  10.485 -0.1691  1.2484  0.4697
18093TIP3    H175770   2.068   6.799  10.514 -0.1216  1.1262  0.8437
18093TIP3    H275771   2.089   6.659  10.462 -0.0840  0.9158  1.4275
18094TIP3   OH275772   1.707   6.023  13.936  0.0641  0.3096 -0.2682
18094TIP3    H175773   1.802   6.015  13.950 -0.4684 -1.0926  2.9902
18094TIP3    H275774   1.681   6.100  13.987 -0.5285  0.8337 -1.3522
18095TIP3   OH275775   3.727   0.420   1.202 -0.5319 -0.8235  0.4057
18095TIP3    H175776   3.733   0.341   1.256  2.6611 -1.0782 -0.2096
18095TIP3    H275777   3.759   0.490   1.258  1.0608 -0.7835 -0.5175
18096TIP3   OH275778   4.113   5.764   0.578 -0.1257 -0.1597  0.3593
18096TIP3    H175779   4.023   5.788   0.555 -0.2384 -0.5552  0.3964
18096TIP3    H275780   4.133   5.688   0.523  1.4182  2.0565 -2.2663
18097TIP3   OH275781   1.759   1.216   2.152  0.0984  0.5297 -0.4554
18097TIP3    H175782   1.837   1.186   2.198  0.2615 -0.8104 -1.5494
18097TIP3    H275783   1.769   1.311   2.147  1.6459  0.3743 -0.5471
18098TIP3   OH275784   5.929   5.677  16.188  0.0802  0.3939  0.0050
18098TIP3    H175785   5.870   5.672  16.112  0.4384 -1.4689 -0.1638
18098TIP3    H275786   5.874   5.654  16.263  0.5317 -1.1864 -0.1326
18099TIP3   OH275787   0.700   5.508  11.533 -0.2490  0.2838  0.4673
18099TIP3    H175788   0.707   5.598  11.502 -2.3576  0.8763  1.6083
18099TIP3    H275789   0.751   5.506  11.614 -1.5410  0.9049  1.3149
18100TIP3   OH275790   2.723   3.670   1.176 -0.3761  0.5624 -0.5366
18100TIP3    H175791   2.690   3.725   1.105 -0.4564  0.5470 -0.5115
18100TIP3    H275792   2.729   3.582   1.138  2.6157  1.1185 -1.4965
18101TIP3   OH275793   5.210   4.887   3.692  0.2096 -0.4741  0.0121
18101TIP3    H175794   5.144   4.942   3.734 -0.6742 -0.6501 -1.1040
18101TIP3    H275795   5.191   4.798   3.722 -1.0887 -0.7521 -1.5250
18102TIP3   OH275796   6.164   5.114   4.270  0.0233 -0.1682 -0.2951
18102TIP3    H175797   6.123   5.048   4.326  2.0422 -0.7622  0.5128
18102TIP3    H275798   6.161   5.076   4.182 -1.5319 -0.0057 -0.3270
18103TIP3   OH275799   0.936   5.424   3.311  0.4104  0.6028 -0.4031
18103TIP3    H175800   0.868   5.487   3.288 -0.2607 -0.0420 -0.2187
18103TIP3    H275801   0.919   5.348   3.256  0.5273  0.1536  0.1695
18104TIP3   OH275802   2.149   5.221   0.360 -0.3040  0.3366 -0.2916
18104TIP3    H175803   2.079   5.272   0.319 -1.4577 -0.8678  0.1056
18104TIP3    H275804   2.170   5.269   0.440 -2.3999 -0.5257  0.8289
18105TIP3   OH275805   5.118   1.879  14.932  0.6262  0.2109  0.0602
18105TIP3    H175806   5.160   1.835  15.007 -1.7302 -1.9561  0.1724
18105TIP3    H275807   5.025   1.875  14.951  0.0399  0.2751 -2.6692
18106TIP3   OH275808   4.003   2.633  11.826 -0.0505 -0.3569 -0.5268
18106TIP3    H175809   3.955   2.583  11.891 -1.4928  1.6334 -0.0186
18106TIP3    H275810   4.090   2.645  11.865  0.2296 -2.1443 -0.5309
18107TIP3   OH275811   0.249   1.386   4.508 -0.7243 -0.2048 -0.7724
18107TIP3    H175812   0.299   1.408   4.587  0.3692 -2.0960 -0.8988
18107TIP3    H275813   0.252   1.466   4.455  1.1159  0.1379 -0.2083
18108TIP3   OH275814   4.176   1.225   6.255  0.0063 -0.4793  0.7566
18108TIP3    H175815   4.258   1.274   6.264  0.6465 -1.6753  1.7207
18108TIP3    H275816   4.196   1.139   6.292 -1.0385 -1.5271 -1.0843
18109TIP3   OH275817   2.570   6.038  15.992  0.3289 -0.3814  0.1949
18109TIP3    H175818   2.501   6.052  16.057 -0.0776 -2.9120  0.3696
18109TIP3    H275819   2.607   5.952  16.015  2.3727  0.1674 -0.9454
18110TIP3   OH275820   1.437   3.562  11.022 -0.2060  0.1824  0.3473
18110TIP3    H175821   1.424   3.656  11.012 -0.0459 -0.0203 -2.0705
18110TIP3    H275822   1.354   3.523  10.992 -0.2262 -0.4459  1.2170
18111TIP3   OH275823   2.244   4.658  13.819 -0.3716  0.9111 -0.0731
18111TIP3    H175824   2.281   4.661  13.907  0.0955  4.0925 -0.3013
18111TIP3    H275825   2.151   4.679  13.832 -0.6120 -0.0317 -0.2191
18112TIP3   OH275826   0.828   4.875   0.566  0.0789 -0.5043  0.2102
18112TIP3    H175827   0.817   4.896   0.658 -1.7990  0.6352 -0.2370
18112TIP3    H275828   0.763   4.807   0.549 -1.4983  1.2129 -0.8575
18113TIP3   OH275829   0.618   5.303  10.981 -0.3813 -0.6014  0.2807
18113TIP3    H175830   0.581   5.366  11.042  3.7970  0.4661  1.8991
18113TIP3    H275831   0.598   5.339  10.894 -1.1433  1.0813  1.1287
18114TIP3   OH275832   0.340   3.297   4.738  0.4286 -0.5593 -0.3760
18114TIP3    H175833   0.413   3.344   4.697 -0.7720  0.6381 -1.1950
18114TIP3    H275834   0.303   3.360   4.800 -0.0545 -1.0872 -0.1213
18115TIP3   OH275835   5.007   5.704   0.902  0.1968  0.5189 -0.1919
18115TIP3    H175836   5.099   5.680   0.890  0.4457  1.9040 -1.2963
18115TIP3    H275837   4.976   5.648   0.973  1.4271 -1.1745 -0.9517
18116TIP3   OH275838   4.077   1.833  13.974  0.2453 -0.5723  0.3017
18116TIP3    H175839   4.036   1.910  13.935 -0.1089 -0.5397  0.7266
18116TIP3    H275840   4.082   1.769  13.903 -2.0940 -1.1884  0.6322
18117TIP3   OH275841   1.155   2.319  15.416 -0.1241  0.1897 -0.2760
18117TIP3    H175842   1.208   2.381  15.466 -1.4679  1.0195  0.1512
18117TIP3    H275843   1.174   2.339  15.325  1.2477 -0.3632 -0.1236
18118TIP3   OH275844   0.213   5.682  10.926  0.3100 -0.0486 -0.0265
18118TIP3    H175845   0.260   5.650  10.849 -0.4853  1.6319 -1.2394
18118TIP3    H275846   0.247   5.771  10.939 -2.2731  1.1037 -0.7556
18119TIP3   OH275847   6.259   0.475   1.604  0.0967 -0.3762 -0.3150
18119TIP3    H175848   6.254   0.435   1.517  0.9939 -1.2867  0.0331
18119TIP3    H275849   6.170   0.505   1.622 -0.0105  0.2208 -1.7300
18120TIP3   OH275850   5.028   0.650   3.674 -0.1116  0.0628  0.1098
18120TIP3    H175851   4.956   0.630   3.735 -1.7284  0.6987 -1.5592
18120TIP3    H275852   5.077   0.720   3.718 -0.5620 -0.3068  1.2269
18121TIP3   OH275853   3.080   2.478   3.383 -0.4677  0.4928 -0.6096
18121TIP3    H175854   3.162   2.519   3.409 -0.5666  1.4895 -1.7913
18121TIP3    H275855   3.012   2.541   3.409 -0.7308  0.4181 -1.0981
18122TIP3   OH275856   3.562   5.305   4.632 -0.4082 -0.3886  0.0548
18122TIP3    H175857   3.636   5.328   4.575 -0.7258 -1.2359 -0.7190
18122TIP3    H275858   3.601   5.297   4.719 -0.1897  2.3995  0.2612
18123TIP3   OH275859   2.327   0.393   1.984  0.5283 -0.0193 -0.5095
18123TIP3    H175860   2.233   0.392   2.002  0.4001  1.0286 -1.1120
18123TIP3    H275861   2.363   0.327   2.043 -0.5723 -0.3462 -0.1964
18124TIP3   OH275862   2.165   3.535   4.931 -0.1279 -0.0422  0.2821
18124TIP3    H175863   2.130   3.614   4.889 -1.2053 -0.4151  0.4764
18124TIP3    H275864   2.126   3.463   4.883  2.1144 -0.4875 -0.9549
18125TIP3   OH275865   4.447   1.701   5.254  0.0577 -0.6624 -0.5323
18125TIP3    H175866   4.377   1.665   5.309 -0.1412  1.8759  0.9456
18125TIP3    H275867   4.487   1.624   5.214 -1.9892 -2.3382  0.5098
18126TIP3   OH275868   3.598   4.733  12.696 -0.4180  0.2256  0.2741
18126TIP3    H175869   3.592   4.645  12.731 -0.2854 -0.0296 -0.3302
18126TIP3    H275870   3.507   4.759  12.679 -0.4285  0.0196  0.0075
18127TIP3   OH275871   1.278   6.668   5.709 -0.0135 -0.3574  0.4020
18127TIP3    H175872   1.258   6.580   5.742 -1.2417  0.1227  0.9494
18127TIP3    H275873   1.346   6.701   5.768  0.0294 -0.7149  0.5537
18128TIP3   OH275874   2.790   0.866   4.045 -0.7509 -0.6943  0.1841
18128TIP3    H175875   2.743   0.943   4.013  0.8547  0.3217  0.2240
18128TIP3    H275876   2.822   0.892   4.132  0.6250 -1.0483 -0.2003
18129TIP3   OH275877   6.790   1.334   6.375 -0.8171  0.2879  0.9268
18129TIP3    H175878   6.830   1.259   6.332 -1.1205  2.3946 -3.3161
18129TIP3    H275879   6.864   1.387   6.405 -0.5731 -0.2749  1.3262
18130TIP3   OH275880   3.350   2.157  10.943  0.4103  0.1466 -0.3974
18130TIP3    H175881   3.345   2.125  10.853  0.8855 -0.3190 -0.2596
18130TIP3    H275882   3.347   2.079  10.997  2.0136  0.2814 -0.0771
18131TIP3   OH275883   0.087   4.640   5.888 -0.1914  0.5553 -0.0236
18131TIP3    H175884   0.008   4.635   5.941 -0.4899  1.0532 -0.4141
18131TIP3    H275885   0.092   4.555   5.844 -0.4777  0.5051  0.0392
18132TIP3   OH275886   6.387   4.126  16.615 -0.5570  0.7004  0.0235
18132TIP3    H175887   6.471   4.137  16.659  0.5156  0.1422 -1.8218
18132TIP3    H275888   6.392   4.182  16.538 -1.6886  0.3026 -0.3671
18133TIP3   OH275889   4.556   3.325   1.618 -0.3748  0.0046  0.4267
18133TIP3    H175890   4.481   3.384   1.624  0.7188  1.5057 -0.3411
18133TIP3    H275891   4.616   3.368   1.557  0.7771 -1.5492  0.4197
18134TIP3   OH275892   5.479   5.247  14.404  0.2068 -0.4076 -0.6065
18134TIP3    H175893   5.493   5.163  14.361  0.6843  0.0366 -1.3145
18134TIP3    H275894   5.453   5.224  14.494 -0.4631 -1.3180 -1.0277
18135TIP3   OH275895   3.727   2.424   4.008  0.3670 -0.5137  0.7378
18135TIP3    H175896   3.763   2.336   4.020  0.0653 -0.6606  0.5561
18135TIP3    H275897   3.668   2.417   3.933 -0.6919 -0.4763  1.5421
18136TIP3   OH275898   5.812   2.840   4.965  0.3365 -0.5406 -0.5151
18136TIP3    H175899   5.785   2.794   5.044  0.1093 -0.1822 -0.3851
18136TIP3    H275900   5.866   2.912   4.996  1.0891 -0.9974 -0.7457
18137TIP3   OH275901   4.215   1.681  11.729 -0.3631  0.3539 -0.3108
18137TIP3    H175902   4.165   1.658  11.651 -0.2805  0.9960 -0.5595
18137TIP3    H275903   4.206   1.776  11.736 -0.8116  0.2367  0.7627
18138TIP3   OH275904   4.594   3.235  13.553  0.2938  0.7069  0.3966
18138TIP3    H175905   4.668   3.222  13.492 -1.3566  2.1012 -1.9876
18138TIP3    H275906   4.585   3.330  13.560 -2.2709  0.5712 -0.6220
18139TIP3   OH275907   2.806   5.341   1.432 -0.3855 -0.1687  0.1946
18139TIP3    H175908   2.838   5.429   1.412 -0.8074  0.2705  1.4209
18139TIP3    H275909   2.884   5.292   1.459 -0.1875 -0.1131 -0.2746
18140TIP3   OH275910   4.565   2.268  11.835  0.2466  0.2945  0.1260
18140TIP3    H175911   4.513   2.240  11.759  1.3293 -0.8514 -0.2120
18140TIP3    H275912   4.579   2.361  11.821 -2.4871  0.8480  0.6927
18141TIP3   OH275913   5.569   0.587  12.828  0.0587  0.5914  0.2834
18141TIP3    H175914   5.523   0.610  12.908 -0.6477 -0.6820  0.2461
18141TIP3    H275915   5.515   0.520  12.786  2.0930 -1.1888  0.4227
18142TIP3   OH275916   5.163   0.356  14.829 -0.0598 -0.0698  0.3700
18142TIP3    H175917   5.192   0.284  14.884  0.8548  0.5413  0.6981
18142TIP3    H275918   5.244   0.392  14.791 -0.3462  1.7578  1.4346
18143TIP3   OH275919   3.586   1.062   3.117 -0.0190  0.2148  0.2818
18143TIP3    H175920   3.559   1.028   3.202  0.2117  0.4204  0.4388
18143TIP3    H275921   3.572   0.989   3.056 -1.1318  0.4029  0.3152
18144TIP3   OH275922   0.943   4.072   5.213  0.8396 -0.5928  0.8729
18144TIP3    H175923   0.931   4.066   5.118 -0.2134  0.0111  0.9582
18144TIP3    H275924   0.965   3.983   5.240  0.6895 -0.8606  0.1240
18145TIP3   OH275925   4.080   4.202  13.895  0.0027  0.2332  0.3523
18145TIP3    H175926   4.012   4.238  13.952  0.4986 -0.1156  1.1687
18145TIP3    H275927   4.148   4.171  13.955  1.2639  1.3353 -0.4730
18146TIP3   OH275928   3.879   1.875  16.510  0.1317 -0.2797  0.2781
18146TIP3    H175929   3.826   1.908  16.438  0.1270  0.3464  0.5620
18146TIP3    H275930   3.821   1.817  16.558  0.2192 -0.9193 -0.3777
18147TIP3   OH275931   5.719   1.064   1.657 -0.0958  0.0828 -0.0786
18147TIP3    H175932   5.626   1.064   1.680 -0.1286  1.2430 -0.1606
18147TIP3    H275933   5.721   1.094   1.566  0.3843  0.4513  0.0487
18148TIP3   OH275934   3.698   1.851   3.990  0.3287  0.1016 -0.5452
18148TIP3    H175935   3.761   1.787   3.956  1.1110  1.1843 -1.1648
18148TIP3    H275936   3.714   1.852   4.084  2.7988  1.9849 -0.9391
18149TIP3   OH275937   4.733   2.685   1.463  0.9025  0.1470  0.3191
18149TIP3    H175938   4.639   2.678   1.480  1.0359 -1.1176  0.5429
18149TIP3    H275939   4.742   2.767   1.414 -0.4201 -0.1647 -0.4783
18150TIP3   OH275940   2.232   3.666   4.651 -0.3440  0.3240  0.6369
18150TIP3    H175941   2.172   3.604   4.609 -0.3150  1.6249 -1.4129
18150TIP3    H275942   2.183   3.701   4.726 -0.6644 -1.5334  1.3056
18151TIP3   OH275943   0.613   4.620   6.454 -0.5342  0.1217 -0.0836
18151TIP3    H175944   0.549   4.678   6.496 -1.6862 -0.1871 -1.3629
18151TIP3    H275945   0.559   4.552   6.413  0.6636 -0.4358 -0.7465
18152TIP3   OH275946   6.254   0.489  15.270  0.3384  0.5134 -0.0572
18152TIP3    H175947   6.177   0.494  15.327 -1.0749  2.8787 -2.0535
18152TIP3    H275948   6.283   0.579  15.260  0.9643  0.0886 -2.4639
18153TIP3   OH275949   4.551   5.297   5.251 -0.0582  0.0096 -0.0574
18153TIP3    H175950   4.517   5.374   5.296  1.0073  0.5044 -0.0968
18153TIP3    H275951   4.633   5.277   5.296 -0.3767 -1.1542  0.0055
18154TIP3   OH275952   1.464   0.932   1.921 -0.0080  0.0108 -0.4246
18154TIP3    H175953   1.482   0.876   1.845  0.8698 -0.2442 -0.0322
18154TIP3    H275954   1.549   0.969   1.944 -0.1312 -0.4954  0.8854
18155TIP3   OH275955   3.145   4.653   1.837 -0.2054  0.4182  0.0280
18155TIP3    H175956   3.216   4.663   1.900 -0.4909 -0.5973  0.5187
18155TIP3    H275957   3.182   4.602   1.766  0.1972  1.7982 -0.7713
18156TIP3   OH275958   2.514   2.741  15.540 -0.1325  0.6127  0.9861
18156TIP3    H175959   2.487   2.790  15.618 -1.5493  1.3835  0.0515
18156TIP3    H275960   2.569   2.803  15.491  1.3247 -0.1066  1.6917
18157TIP3   OH275961   1.124   6.167   5.892 -0.6987 -0.3290  0.1179
18157TIP3    H175962   1.047   6.119   5.862 -2.2261  1.9237  0.3688
18157TIP3    H275963   1.145   6.127   5.977 -2.3375 -0.1371  0.6156
18158TIP3   OH275964   5.574   0.286   3.975 -0.1372  0.0365  0.5552
18158TIP3    H175965   5.607   0.290   3.886  0.0056  1.7082  0.6577
18158TIP3    H275966   5.635   0.229   4.022  0.3670 -0.0217 -0.1724
18159TIP3   OH275967   6.142   3.532  14.001 -0.2094  0.3103 -0.6050
18159TIP3    H175968   6.078   3.547  13.932  2.4838  3.4730 -2.5185
18159TIP3    H275969   6.099   3.564  14.081 -1.4579  1.2721 -1.6558
18160TIP3   OH275970   0.422   2.691  11.077  0.3328 -0.8479  0.0264
18160TIP3    H175971   0.409   2.600  11.101  1.2545 -1.3688 -1.4084
18160TIP3    H275972   0.506   2.692  11.031  0.1616  0.6650 -0.2713
18161TIP3   OH275973   1.557   5.257  15.549  0.5024 -0.0517 -0.2787
18161TIP3    H175974   1.518   5.169  15.544 -1.4048  0.7547 -0.0475
18161TIP3    H275975   1.543   5.294  15.462 -0.0004  0.5545  0.0585
18162TIP3   OH275976   2.790   1.658   4.348 -0.2530 -0.6446  0.2752
18162TIP3    H175977   2.835   1.586   4.304  0.5779 -0.2649  0.4951
18162TIP3    H275978   2.860   1.714   4.381 -0.8908  0.9438 -0.9834
18163TIP3   OH275979   5.555   3.388  11.575  0.9651  0.2469 -0.2710
18163TIP3    H175980   5.595   3.415  11.658  1.7406  0.5729 -0.7452
18163TIP3    H275981   5.477   3.340  11.601  1.3933  0.0361  0.6647
18164TIP3   OH275982   5.887   5.719  11.905  0.9191  0.4619  0.2257
18164TIP3    H175983   5.852   5.808  11.901  0.7317  0.3428 -0.8583
18164TIP3    H275984   5.955   5.717  11.838 -1.7764 -1.3876 -2.5777
18165TIP3   OH275985   4.519   0.414   3.559  0.2339 -0.4010 -0.6081
18165TIP3    H175986   4.426   0.428   3.577  0.4713  2.5161 -1.3257
18165TIP3    H275987   4.521   0.342   3.496 -1.7186  1.0262 -2.3683
18166TIP3   OH275988   2.508   5.700  12.482  0.0419  0.2037 -0.2561
18166TIP3    H175989   2.556   5.706  12.565  0.9089 -0.3039 -0.7138
18166TIP3    H275990   2.572   5.726  12.416 -0.0687 -1.2576 -0.9573
18167TIP3   OH275991   3.018   6.038  15.712 -0.0573 -0.4152 -0.3382
18167TIP3    H175992   3.007   6.123  15.670  2.0893 -0.3258 -0.7508
18167TIP3    H275993   2.947   5.984  15.676 -1.0652  1.0037 -0.5210
18168TIP3   OH275994   4.931   5.798  15.912 -0.0548 -0.4762  0.5045
18168TIP3    H175995   5.000   5.865  15.911  0.2737 -0.8011  1.6340
18168TIP3    H275996   4.960   5.733  15.975 -0.2506 -1.8443 -0.7860
18169TIP3   OH275997   5.043   4.766  10.918  0.7511 -0.2895 -0.1826
18169TIP3    H175998   5.021   4.859  10.919 -1.2196 -0.7328 -1.0486
18169TIP3    H275999   5.095   4.754  10.838 -1.1761 -0.3990 -1.4411
18170TIP3   OH276000   4.695   5.069   2.925  0.4115  0.7163  0.2974
18170TIP3    H176001   4.637   5.028   2.989  1.0397 -1.7842 -0.6729
18170TIP3    H276002   4.637   5.125   2.873 -0.4141  1.3192  1.8604
18171TIP3   OH276003   1.631   1.570   3.318 -0.4771  0.6064 -0.3237
18171TIP3    H176004   1.549   1.522   3.328  0.8090 -1.9776 -1.7858
18171TIP3    H276005   1.681   1.547   3.396 -0.6160  1.1528 -0.0699
18172TIP3   OH276006   3.787   3.016   3.606  0.8203  0.2731  0.4120
18172TIP3    H176007   3.709   2.985   3.653  1.6124 -1.8406  0.3690
18172TIP3    H276008   3.833   2.937   3.580  1.2883  1.4350 -2.5052
18173TIP3   OH276009   2.422   4.610  16.485 -0.0643  0.4859 -0.6192
18173TIP3    H176010   2.482   4.639  16.416 -1.6333  2.4913 -1.2190
18173TIP3    H276011   2.335   4.620  16.446 -0.9938  1.8186  1.6839
18174TIP3   OH276012   0.310   3.377   2.966 -0.0225 -0.4109 -0.6078
18174TIP3    H176013   0.303   3.469   2.992  0.0208 -0.1430 -1.5344
18174TIP3    H276014   0.230   3.337   3.001 -1.3309  0.5324 -2.4481
18175TIP3   OH276015   2.431   6.032   4.875  0.1825 -0.2818  0.0789
18175TIP3    H176016   2.507   6.089   4.888  0.4271 -0.7932  0.9740
18175TIP3    H276017   2.455   5.950   4.919 -0.8798 -0.4437  0.3733
18176TIP3   OH276018   5.979   5.992  15.035  0.6763  0.1106  0.0942
18176TIP3    H176019   5.965   5.913  15.087  2.2576  0.2310  0.7302
18176TIP3    H276020   5.906   5.993  14.973 -0.6400 -0.6113  1.5995
18177TIP3   OH276021   2.857   6.402   4.173  0.0900 -0.3588 -0.2614
18177TIP3    H176022   2.803   6.473   4.140  3.1174  2.3917  0.4739
18177TIP3    H276023   2.813   6.373   4.253 -1.6590  0.0332 -1.0578
18178TIP3   OH276024   6.803   0.871   1.976 -0.5279  0.2649  0.5598
18178TIP3    H176025   6.754   0.867   1.894 -0.3104  0.0660  0.4390
18178TIP3    H276026   6.837   0.961   1.979  1.9934 -0.5593 -1.0513
18179TIP3   OH276027   4.476   3.511  15.187 -0.3959 -0.1223  0.2481
18179TIP3    H176028   4.417   3.577  15.224  0.6115  1.0525 -0.2125
18179TIP3    H276029   4.564   3.546  15.202  0.1753 -1.5171  0.2842
18180TIP3   OH276030   3.447   1.152   0.524  0.3002 -0.0449 -0.2157
18180TIP3    H176031   3.430   1.222   0.587 -3.2301 -2.3797  1.6365
18180TIP3    H276032   3.366   1.146   0.473  1.2861 -1.4790 -1.6492
18181TIP3   OH276033   5.922   6.191   3.323  0.4708 -0.5971  0.5586
18181TIP3    H176034   5.873   6.257   3.372 -1.0919 -1.2046 -0.1571
18181TIP3    H276035   5.948   6.127   3.389 -0.7649 -0.8926  0.7855
18182TIP3   OH276036   6.225   3.552   3.130 -0.0847 -0.2243 -0.0324
18182TIP3    H176037   6.207   3.524   3.220  0.6530 -0.5156  0.0275
18182TIP3    H276038   6.200   3.644   3.128  2.7488  0.6245  1.3199
18183TIP3   OH276039   0.146   0.184  12.922 -0.2707  0.3725  0.1887
18183TIP3    H176040   0.155   0.091  12.904  0.3315  0.6971 -1.2790
18183TIP3    H276041   0.090   0.217  12.851  0.3017  1.2827  0.1496
18184TIP3   OH276042   3.737   3.742   5.343  0.3844 -0.4917  0.2652
18184TIP3    H176043   3.689   3.661   5.355  0.9324 -1.0612 -1.2690
18184TIP3    H276044   3.744   3.752   5.248  0.6176  1.1703  0.4427
18185TIP3   OH276045   5.689   5.985   3.143  0.1545 -0.1203 -0.0767
18185TIP3    H176046   5.736   5.942   3.072  0.3120 -1.8024  1.0361
18185TIP3    H276047   5.757   6.011   3.205 -0.2421 -1.3162  0.8726
18186TIP3   OH276048   5.724   5.784   1.285  0.3647  0.4793 -1.1678
18186TIP3    H176049   5.691   5.729   1.356 -2.2779 -0.4581 -3.0521
18186TIP3    H276050   5.764   5.859   1.330 -0.1321 -0.6983  1.3237
18187TIP3   OH276051   0.271   5.183   5.107  0.5137 -0.0493 -0.0071
18187TIP3    H176052   0.319   5.150   5.183  1.2879  0.5780 -0.2204
18187TIP3    H276053   0.318   5.147   5.031 -0.9443 -1.6449 -0.1936
18188TIP3   OH276054   1.969   2.274  16.843  0.2639 -0.0772  0.3686
18188TIP3    H176055   1.957   2.227  16.760  0.3803  0.3628  0.0995
18188TIP3    H276056   1.881   2.291  16.875  0.1909  1.0623 -0.4107
18189TIP3   OH276057   6.213   6.609   6.061 -0.3563  0.3181  0.0246
18189TIP3    H176058   6.278   6.611   6.132 -1.8758  1.2952  1.3977
18189TIP3    H276059   6.141   6.557   6.097 -0.3480 -0.7653 -1.5034
18190TIP3   OH276060   2.105   1.676  12.571 -0.4063 -0.2683  0.4184
18190TIP3    H176061   2.110   1.674  12.475 -0.6174  3.2375  0.2873
18190TIP3    H276062   2.048   1.750  12.591 -1.9267 -2.1129  3.2573
18191TIP3   OH276063   4.027   5.670   1.592  0.2325 -0.4492 -0.7867
18191TIP3    H176064   4.005   5.641   1.503  0.3342 -0.4677 -0.8060
18191TIP3    H276065   3.943   5.688   1.633  0.2685  2.1314 -1.7550
18192TIP3   OH276066   1.933   0.819  14.885  0.1162  0.0628 -0.2600
18192TIP3    H176067   2.021   0.782  14.883 -0.6632 -1.8107 -0.9423
18192TIP3    H276068   1.877   0.747  14.916 -0.8376  1.9998  2.7671
18193TIP3   OH276069   5.606   6.806  11.667  0.3136  0.1577  0.0225
18193TIP3    H176070   5.575   6.859  11.593 -0.5868 -1.5673 -0.8746
18193TIP3    H276071   5.699   6.792  11.648  0.3348  0.6197 -0.2314
18194TIP3   OH276072   1.184   2.168  11.756  0.0648  0.7804  0.5607
18194TIP3    H176073   1.152   2.258  11.757 -1.2875  0.3359 -0.5272
18194TIP3    H276074   1.260   2.168  11.813 -0.3329  2.4687  1.0968
18195TIP3   OH276075   5.871   3.000   1.890 -0.0827 -0.2559 -0.4912
18195TIP3    H176076   5.777   2.994   1.905 -0.3993 -0.7472 -2.5129
18195TIP3    H276077   5.880   3.062   1.817  1.2642  0.9213  0.6419
18196TIP3   OH276078   1.739   4.797  10.968 -0.6723  0.6322 -0.8773
18196TIP3    H176079   1.689   4.716  10.957  0.2932 -0.4250  2.1406
18196TIP3    H276080   1.824   4.777  10.928 -0.6493  0.3794 -0.7043
18197TIP3   OH276081   1.551   4.594  10.958  0.1219  0.1881 -0.3954
18197TIP3    H176082   1.536   4.524  10.893 -0.4832 -0.3122  0.2749
18197TIP3    H276083   1.484   4.659  10.939  0.5995  0.5337 -0.9326
18198TIP3   OH276084   3.689   2.489  13.771 -0.5597  0.4738 -0.3449
18198TIP3    H176085   3.756   2.531  13.716  2.1898  0.3096  2.7090
18198TIP3    H276086   3.731   2.410  13.803 -2.7672 -0.3735  0.5404
18199TIP3   OH276087   2.606   2.535  12.825 -0.0727 -0.0417  0.0725
18199TIP3    H176088   2.627   2.588  12.748 -0.6694  1.2321  0.7670
18199TIP3    H276089   2.550   2.592  12.878 -0.7831 -1.3987  0.8052
18200TIP3   OH276090   4.814   0.016  12.654 -0.2949  0.1235  0.6203
18200TIP3    H176091   4.759   0.016  12.733 -0.5326  0.0496  0.4525
18200TIP3    H276092   4.869   0.094  12.664 -1.6454  1.1848 -0.0729
18201TIP3   OH276093   5.092   6.010   2.162  0.6414 -0.0305  0.1445
18201TIP3    H176094   5.005   6.047   2.148  0.1737 -0.5095  1.6150
18201TIP3    H276095   5.104   6.014   2.257  1.7273 -1.0695  0.0649
18202TIP3   OH276096   4.660   1.396  11.884 -0.0581 -0.1138 -0.2423
18202TIP3    H176097   4.659   1.402  11.980 -0.6933 -0.3882 -0.2243
18202TIP3    H276098   4.745   1.431  11.858 -1.1194  3.0077  0.2365
18203TIP3   OH276099   3.089   3.644  13.414  0.4901 -0.3694  0.3758
18203TIP3    H176100   3.027   3.577  13.386  0.0225  0.6441 -1.0885
18203TIP3    H276101   3.048   3.685  13.490 -0.1611 -0.4077  0.0464
18204TIP3   OH276102   1.731   3.469  14.899  0.2126  0.0135 -0.2902
18204TIP3    H176103   1.755   3.378  14.919 -1.7223 -0.5365 -0.4146
18204TIP3    H276104   1.636   3.471  14.906  0.1153  1.6886 -1.7394
18205TIP3   OH276105   6.173   5.560  13.417  0.0294 -0.3593 -0.1764
18205TIP3    H176106   6.241   5.540  13.352  2.0586  0.9621  1.4629
18205TIP3    H276107   6.196   5.506  13.493 -0.4489  0.4974  0.5867
18206TIP3   OH276108   4.804   2.229  15.572 -0.4349  0.5859 -0.4464
18206TIP3    H176109   4.826   2.239  15.664 -1.2988 -2.0541  0.0970
18206TIP3    H276110   4.732   2.291  15.558 -1.9358 -0.7016  1.2960
18207TIP3   OH276111   6.557   4.478   0.764 -0.1916 -0.6108  0.0236
18207TIP3    H176112   6.513   4.394   0.777 -0.1448 -0.4917  0.9922
18207TIP3    H276113   6.515   4.516   0.687 -1.2135 -0.8671  0.4530
18208TIP3   OH276114   5.496   4.601  12.556 -0.0596  0.1621 -0.4215
18208TIP3    H176115   5.506   4.654  12.477 -0.6136 -2.3633 -2.2780
18208TIP3    H276116   5.407   4.565  12.550 -0.5985  1.0135  2.0685
18209TIP3   OH276117   0.765   0.375  12.159  0.0863 -0.1040 -0.5169
18209TIP3    H176118   0.763   0.380  12.063  0.9450  1.1340 -0.4809
18209TIP3    H276119   0.688   0.426  12.187  1.6046  2.2174 -0.4824
18210TIP3   OH276120   0.060   0.555   0.388  0.5317  0.1113 -0.2178
18210TIP3    H176121  -0.011   0.619   0.391  0.1735 -0.3528  1.5533
18210TIP3    H276122   0.064   0.527   0.297 -1.3946  0.3114 -0.3682
18211TIP3   OH276123   0.853   6.162   0.731  0.2524 -0.2124  0.1674
18211TIP3    H176124   0.939   6.196   0.757 -1.0554  1.7367  2.0768
18211TIP3    H276125   0.809   6.238   0.691 -0.8363 -1.0315 -0.1866
18212TIP3   OH276126   4.943   4.729  11.342  0.6289 -0.1986 -0.7415
18212TIP3    H176127   4.990   4.808  11.367  0.2626 -0.1632 -0.1461
18212TIP3    H276128   4.960   4.667  11.413 -0.4345 -0.0905 -0.3861
18213TIP3   OH276129   0.324   4.700  11.703 -0.2777 -0.3021 -0.1820
18213TIP3    H176130   0.361   4.750  11.776  0.4046  0.0338 -0.7487
18213TIP3    H276131   0.239   4.742  11.686  0.4961  1.0191 -0.9704
18214TIP3   OH276132   5.795   0.850  10.770 -0.2082 -0.5993  0.2120
18214TIP3    H176133   5.842   0.771  10.744  2.7084  1.0860  0.0997
18214TIP3    H276134   5.733   0.865  10.699 -0.0211 -2.1686 -0.3102
18215TIP3   OH276135   6.460   5.645  15.871 -0.9644 -0.0251 -0.0320
18215TIP3    H176136   6.476   5.715  15.808  1.4697 -2.5610 -2.3768
18215TIP3    H276137   6.372   5.612  15.849 -1.0653  0.6219 -0.6129
18216TIP3   OH276138   3.551   4.094  12.280  0.0487  0.8118 -0.1374
18216TIP3    H176139   3.470   4.045  12.267 -0.2685  1.1410  0.5457
18216TIP3    H276140   3.555   4.156  12.207  0.6183 -0.4461 -1.1867
18217TIP3   OH276141   3.303   2.395  13.856  0.3566 -0.5007 -0.3034
18217TIP3    H176142   3.340   2.460  13.796 -0.1005 -2.2535 -2.5276
18217TIP3    H276143   3.377   2.339  13.879  0.5782  0.3042  0.9583
18218TIP3   OH276144   4.065   3.364  14.105  0.2842 -0.5014  0.0384
18218TIP3    H176145   4.144   3.399  14.063 -0.4390  1.0115 -0.1143
18218TIP3    H276146   4.083   3.271  14.116  2.1976 -0.1471  0.2223
18219TIP3   OH276147   3.198   5.943  11.562 -0.2896  0.0492  0.2407
18219TIP3    H176148   3.174   5.876  11.497 -0.0710 -0.3253  0.5445
18219TIP3    H276149   3.209   5.894  11.643 -2.1700  0.7293  0.9282
18220TIP3   OH276150   3.231   2.506   2.292 -0.0465 -0.1498 -0.4785
18220TIP3    H176151   3.296   2.439   2.271 -0.8015 -0.7401 -0.9773
18220TIP3    H276152   3.280   2.575   2.335  0.7608 -0.9920 -0.0364
18221TIP3   OH276153   6.528   0.394   0.759 -0.0893 -0.4772 -0.3002
18221TIP3    H176154   6.509   0.404   0.852 -0.8054 -1.0768 -0.3797
18221TIP3    H276155   6.614   0.435   0.748 -0.1428 -0.1176  0.5612
18222TIP3   OH276156   4.784   6.024   4.388  0.1623  0.5296  0.0875
18222TIP3    H176157   4.697   6.060   4.368 -1.1488 -2.5644 -0.0303
18222TIP3    H276158   4.779   6.000   4.480  1.4597  1.8348  0.5027
18223TIP3   OH276159   5.651   5.802  10.953  0.5913  0.4941  0.1662
18223TIP3    H176160   5.706   5.874  10.925 -0.1070  0.5528 -1.0789
18223TIP3    H276161   5.568   5.815  10.907  0.1662 -0.6188  0.5934
18224TIP3   OH276162   0.926   0.570  16.186 -0.1634  0.0208 -0.0629
18224TIP3    H176163   0.857   0.637  16.184 -0.3716 -0.2028 -0.4736
18224TIP3    H276164   0.882   0.492  16.219 -0.0620 -0.0709 -0.1458
18225TIP3   OH276165   4.741   6.695   4.675 -0.1964 -0.0945  0.3997
18225TIP3    H176166   4.812   6.710   4.737 -0.4341 -1.6045  1.0459
18225TIP3    H276167   4.688   6.626   4.715 -1.0079 -0.2596 -0.9314
18226TIP3   OH276168   1.087   6.578  11.120 -0.4420 -0.3492  0.5953
18226TIP3    H176169   1.001   6.619  11.120 -0.5464 -0.5468 -0.2439
18226TIP3    H276170   1.113   6.578  11.028 -0.1567 -1.5452  0.6625
18227TIP3   OH276171   3.303   6.375   5.343 -0.1653  0.2757  0.4583
18227TIP3    H176172   3.282   6.344   5.431 -0.5526 -0.6859  0.0314
18227TIP3    H276173   3.348   6.458   5.357  0.6839 -0.3737  1.5953
18228TIP3   OH276174   4.793   1.707  11.875  0.4754  0.1040 -0.1226
18228TIP3    H176175   4.705   1.741  11.857  0.9335  1.7546  0.5737
18228TIP3    H276176   4.784   1.658  11.957  0.6334  2.3926  1.3486
18229TIP3   OH276177   3.778   5.233  13.576  0.1494  0.4399  0.1796
18229TIP3    H176178   3.843   5.164  13.560  0.1190  0.9486 -2.5381
18229TIP3    H276179   3.830   5.314  13.576 -0.0736  0.5862  1.3090
18230TIP3   OH276180   5.067   0.820   1.666 -0.5773  0.1519 -0.4147
18230TIP3    H176181   4.974   0.841   1.661 -0.6492 -0.3063 -1.1204
18230TIP3    H276182   5.088   0.784   1.579  0.2432  0.2119 -0.2479
18231TIP3   OH276183   0.869   6.412   5.104  0.4015  0.1940  0.2891
18231TIP3    H176184   0.935   6.386   5.040  0.0003  1.5251 -0.6772
18231TIP3    H276185   0.871   6.507   5.103 -1.5330  0.2484  0.2600
18232TIP3   OH276186   4.105   3.291  14.951  0.4526 -0.8448  0.3183
18232TIP3    H176187   4.102   3.230  15.025 -0.6851 -0.3968  0.6624
18232TIP3    H276188   4.173   3.354  14.975 -1.6819  0.8225  2.2370
18233TIP3   OH276189   6.708   3.398   0.847  0.2301 -0.7089  0.7771
18233TIP3    H176190   6.750   3.434   0.769 -2.9874  0.7878 -0.3431
18233TIP3    H276191   6.740   3.452   0.919 -0.6691  1.1932 -0.2236
18234TIP3   OH276192   2.247   1.585  12.781  0.3836  0.5848  0.6740
18234TIP3    H176193   2.211   1.666  12.817 -1.8137 -0.3386  0.6017
18234TIP3    H276194   2.206   1.576  12.695  0.6545 -0.5720  0.6585
18235TIP3   OH276195   1.378   4.228   2.764  0.0168 -0.0503 -0.1282
18235TIP3    H176196   1.440   4.181   2.709 -0.9453 -0.7102 -0.6766
18235TIP3    H276197   1.318   4.270   2.702 -0.0961  0.5643  0.3901
18236TIP3   OH276198   5.825   0.658  14.090 -0.3599 -0.0897  0.3179
18236TIP3    H176199   5.870   0.630  14.169  0.1447  0.4240  0.2149
18236TIP3    H276200   5.849   0.750  14.079  0.5208 -0.4643 -1.0670
18237TIP3   OH276201   6.237   2.457   6.380  0.3667  0.3595  0.2020
18237TIP3    H176202   6.271   2.539   6.416 -0.0657  0.4532  0.4036
18237TIP3    H276203   6.308   2.423   6.325  0.1968  1.3436 -0.6321
18238TIP3   OH276204   6.299   2.874  16.936 -0.0465 -0.2309 -0.3861
18238TIP3    H176205   6.217   2.877  16.887  0.2840 -3.0276 -1.2066
18238TIP3    H276206   6.273   2.889  17.027 -1.2116  0.7320 -0.8627
18239TIP3   OH276207   1.069   4.383   4.498  0.0481 -0.2185  0.9459
18239TIP3    H176208   1.068   4.328   4.576 -1.7800 -1.7585 -0.1013
18239TIP3    H276209   1.015   4.335   4.435  0.4974  1.5790 -0.8537
18240TIP3   OH276210   6.073   4.294  16.579 -0.1343  0.3181  0.2897
18240TIP3    H176211   6.016   4.235  16.530  0.6938  2.0362 -2.9303
18240TIP3    H276212   6.096   4.246  16.658 -1.8161 -2.4645 -0.8426
18241TIP3   OH276213   2.157   5.971  14.742  0.2377 -0.2174  0.1536
18241TIP3    H176214   2.207   5.892  14.724  1.7238  0.8090 -0.2817
18241TIP3    H276215   2.116   5.993  14.659 -0.5969 -0.8188  0.4046
18242TIP3   OH276216   5.292   2.774   6.380 -0.3714 -0.3087 -0.3534
18242TIP3    H176217   5.235   2.801   6.452  0.5314  2.2034 -0.5320
18242TIP3    H276218   5.263   2.826   6.305  0.7563 -0.5645 -0.9855
18243TIP3   OH276219   3.776   3.332  15.427 -0.1097  0.1203  0.3272
18243TIP3    H176220   3.833   3.279  15.483 -1.1454 -0.3263  0.9640
18243TIP3    H276221   3.815   3.420  15.429  1.1338 -0.4009 -0.0597
18244TIP3   OH276222   5.453   0.421   5.422 -0.5256 -0.1985  0.1859
18244TIP3    H176223   5.428   0.359   5.353 -1.1999 -0.4750  0.6844
18244TIP3    H276224   5.445   0.371   5.503  0.9345 -0.0752  0.4159
18245TIP3   OH276225   1.690   1.590  11.544  0.1787  0.8713  0.0816
18245TIP3    H176226   1.756   1.659  11.552  0.4289  0.6792 -0.3166
18245TIP3    H276227   1.699   1.539  11.624 -0.9020  2.0795  1.0010
18246TIP3   OH276228   4.375   2.071  16.052 -0.3223 -0.6789  0.1586
18246TIP3    H176229   4.372   2.002  15.986  0.5790 -0.9232  0.3695
18246TIP3    H276230   4.466   2.101  16.052  0.3275 -2.4759  3.1290
18247TIP3   OH276231   0.790   4.624   4.308  0.0836  0.1213 -0.2759
18247TIP3    H176232   0.712   4.577   4.278  0.4501  0.8556 -2.5155
18247TIP3    H276233   0.774   4.715   4.283  1.1925  0.4652  0.2296
18248TIP3   OH276234   3.834   4.835  12.823 -0.2038  0.3531  0.2043
18248TIP3    H176235   3.859   4.758  12.771  1.2632  1.0169 -0.0888
18248TIP3    H276236   3.754   4.866  12.782 -1.1962 -1.4095  0.7336
18249TIP3   OH276237   1.265   2.481  16.781 -0.4458  0.4768  0.8416
18249TIP3    H176238   1.240   2.450  16.694 -2.3033  1.3023  1.0607
18249TIP3    H276239   1.333   2.546  16.764  1.7282 -1.8920  0.2376
18250TIP3   OH276240   6.193   5.642   6.163  0.0756  0.4097  0.7436
18250TIP3    H176241   6.186   5.548   6.173  2.2716  0.2506  0.9944
18250TIP3    H276242   6.189   5.677   6.252  0.5808  0.4380  0.7593
18251TIP3   OH276243   0.800   5.562  11.073  0.1698 -0.0843  0.5110
18251TIP3    H176244   0.839   5.546  10.987 -3.5483 -2.2523 -0.8946
18251TIP3    H276245   0.715   5.602  11.054 -0.2678  0.3933  3.2592
18252TIP3   OH276246   0.073   4.834  11.665 -0.1095 -0.6201  0.0070
18252TIP3    H176247   0.115   4.866  11.586 -1.2422 -0.6096 -0.5933
18252TIP3    H276248   0.059   4.913  11.719  0.6995 -0.6345  0.2452
18253TIP3   OH276249   3.900   3.262   3.964  0.2491 -0.2196 -0.1212
18253TIP3    H176250   3.970   3.327   3.957  1.0766 -1.0330  0.4473
18253TIP3    H276251   3.930   3.188   3.912  0.3032 -0.9851  0.9703
18254TIP3   OH276252   4.471   6.136   3.592 -0.3856  0.0951  0.7284
18254TIP3    H176253   4.558   6.138   3.632 -0.5512  0.4258  1.0816
18254TIP3    H276254   4.477   6.199   3.520  0.1447 -1.0792 -0.2640
18255TIP3   OH276255   1.453   5.674  13.771  0.0217 -0.4674 -0.1914
18255TIP3    H176256   1.377   5.724  13.802  0.1143 -0.7861  0.5463
18255TIP3    H276257   1.467   5.705  13.682  0.7307  1.5996  0.6181
18256TIP3   OH276258   5.893   4.083  17.273  0.3580  0.9901  0.0416
18256TIP3    H176259   5.857   4.163  17.234  0.1302  0.2236 -1.3549
18256TIP3    H276260   5.902   4.104  17.366 -1.1667  2.1061 -0.0402
18257TIP3   OH276261   5.279   6.254   5.043 -0.1877 -0.4284 -0.1195
18257TIP3    H176262   5.195   6.229   5.082 -1.0861  1.3557 -0.8400
18257TIP3    H276263   5.255   6.313   4.972  1.6698 -0.2656 -0.6195
18258TIP3   OH276264   4.735   4.587   5.939 -0.2222 -0.0557 -0.0569
18258TIP3    H176265   4.800   4.621   6.001 -2.2694  3.0026  0.5150
18258TIP3    H276266   4.738   4.648   5.866 -1.5662 -0.6212 -0.5878
18259TIP3   OH276267   6.480   5.112  11.628 -0.1756 -0.0078  0.3593
18259TIP3    H176268   6.510   5.174  11.563 -0.4812 -1.1296 -0.8754
18259TIP3    H276269   6.560   5.077  11.667  0.0084  0.6241  0.5450
18260TIP3   OH276270   2.637   2.104  15.363  0.2803  0.0232 -0.6746
18260TIP3    H176271   2.619   2.032  15.302  1.0183  1.3912 -2.5435
18260TIP3    H276272   2.680   2.170  15.310  1.2094  1.1405  1.4220
18261TIP3   OH276273   2.276   6.707   5.020  0.4312 -0.2308  0.3022
18261TIP3    H176274   2.262   6.689   4.927 -0.7173  0.3504  0.3427
18261TIP3    H276275   2.211   6.775   5.041  1.3871  0.4051  1.2755
18262TIP3   OH276276   3.160   5.410   0.751 -0.8810 -0.8977 -0.5046
18262TIP3    H176277   3.150   5.453   0.836 -1.2874 -0.9432 -0.5299
18262TIP3    H276278   3.126   5.322   0.765 -0.0082 -1.2258 -0.4401
18263TIP3   OH276279   1.234   3.771   4.232  0.4819  0.2486 -0.4236
18263TIP3    H176280   1.316   3.819   4.238  0.5364  0.0684  0.2525
18263TIP3    H276281   1.222   3.731   4.318 -1.2310  1.7748  0.0746
18264TIP3   OH276282   5.686   3.611  14.934 -0.0639  0.5045  0.5406
18264TIP3    H176283   5.683   3.520  14.903  0.2825 -0.0766  2.1737
18264TIP3    H276284   5.761   3.614  14.993  0.0244  1.8995  0.3774
18265TIP3   OH276285   6.006   4.286  16.842 -0.9028 -0.0116  0.2934
18265TIP3    H176286   5.975   4.325  16.924 -0.3525  1.7576 -0.3000
18265TIP3    H276287   6.064   4.216  16.869 -2.1652 -0.6637  1.4171
18266TIP3   OH276288   6.571   2.061   0.400 -0.2306 -0.4071  0.2786
18266TIP3    H176289   6.537   2.151   0.406  0.5657 -0.0568 -0.3474
18266TIP3    H276290   6.503   2.007   0.440 -1.7147  0.2529 -1.2808
18267TIP3   OH276291   4.619   6.094  16.162 -0.5585  0.5837 -0.5252
18267TIP3    H176292   4.659   6.153  16.099 -0.6052 -0.1084 -1.2090
18267TIP3    H276293   4.631   6.137  16.247  0.1721  1.1543 -0.9135
18268TIP3   OH276294   3.264   5.786  13.949 -0.5969  0.6344 -0.2335
18268TIP3    H176295   3.239   5.807  14.039 -1.2139  0.3740 -0.3444
18268TIP3    H276296   3.184   5.754  13.908  0.5177 -3.0080  0.2277
18269TIP3   OH276297   4.910   0.467  11.862 -0.1900  0.4531  0.1665
18269TIP3    H176298   4.858   0.421  11.928 -1.4331  0.5605 -0.7192
18269TIP3    H276299   4.997   0.427  11.868 -0.2349  0.5827  1.9761
18270TIP3   OH276300   4.792   0.563  13.788  0.5099 -0.2931 -0.0602
18270TIP3    H176301   4.826   0.526  13.869  1.3107  0.5617 -0.0027
18270TIP3    H276302   4.697   0.549  13.794  0.7034 -1.5090  0.3641
18271TIP3   OH276303   5.493   5.520  11.277  0.0140  0.9351  0.5506
18271TIP3    H176304   5.490   5.479  11.191  0.0451  1.0353  0.5009
18271TIP3    H276305   5.559   5.589  11.268  0.6849  0.3428  0.9250
18272TIP3   OH276306   4.936   1.294   5.092 -0.4418  0.0604 -0.2299
18272TIP3    H176307   4.924   1.200   5.075 -1.8213 -0.1336  1.6878
18272TIP3    H276308   4.999   1.322   5.025  1.6218 -2.6880  0.4526
18273TIP3   OH276309   4.554   0.602  16.775 -0.0785  0.0464  0.1660
18273TIP3    H176310   4.623   0.539  16.794  0.2354  0.5713  0.7911
18273TIP3    H276311   4.488   0.586  16.843  0.7828  1.5415  1.3667
18274TIP3   OH276312   2.000   4.883   3.267 -0.0960 -0.5675 -0.6926
18274TIP3    H176313   2.060   4.826   3.315  1.8054  1.2462 -0.8779
18274TIP3    H276314   1.933   4.907   3.331 -0.0530 -1.7116 -0.1943
18275TIP3   OH276315   5.552   0.316  12.974  0.5427  0.6131  0.5771
18275TIP3    H176316   5.463   0.338  13.001  0.5833 -0.4436  1.6130
18275TIP3    H276317   5.544   0.290  12.882 -0.3584 -0.2864  0.9049
18276TIP3   OH276318   3.184   2.720   5.304 -0.8123 -0.3218  0.2969
18276TIP3    H176319   3.095   2.690   5.324 -1.7448  1.8326 -0.4316
18276TIP3    H276320   3.201   2.687   5.215 -1.3896  0.3681 -0.0694
18277TIP3   OH276321   5.046   1.809   6.542  0.3443  0.2362 -0.7816
18277TIP3    H176322   5.031   1.882   6.481  0.5015  0.7161 -0.2520
18277TIP3    H276323   5.091   1.850   6.616  1.5833 -0.6332 -1.0338
18278TIP3   OH276324   3.378   2.892   2.909  0.4561 -0.1437 -0.3300
18278TIP3    H176325   3.410   2.962   2.852 -1.2106  0.8396 -0.0745
18278TIP3    H276326   3.383   2.929   2.997 -2.7665  0.5867 -0.4171
18279TIP3   OH276327   0.559   6.416   2.708 -0.4900  0.0722 -0.8093
18279TIP3    H176328   0.567   6.359   2.785 -1.0061  2.1503  0.8588
18279TIP3    H276329   0.580   6.503   2.742  0.6469  0.8305 -3.3706
18280TIP3   OH276330   4.177   2.492  16.773 -0.0342  0.0106  0.2369
18280TIP3    H176331   4.114   2.470  16.842  0.8509  1.2882  1.4860
18280TIP3    H276332   4.250   2.432  16.788 -0.4128 -0.6224 -0.4353
18281TIP3   OH276333   5.264   6.566  15.908  0.0586  0.0234  0.3424
18281TIP3    H176334   5.223   6.578  15.994 -0.6958 -1.9805  0.2983
18281TIP3    H276335   5.197   6.596  15.846 -0.0970 -0.2345  0.3856
18282TIP3   OH276336   0.827   3.656   2.339  0.3513 -0.0202  0.5616
18282TIP3    H176337   0.871   3.599   2.276 -0.1823  0.1522  0.0226
18282TIP3    H276338   0.750   3.688   2.292 -1.8079 -2.3830  2.3427
18283TIP3   OH276339   1.889   4.564  12.484 -0.1187 -0.3270  0.3584
18283TIP3    H176340   1.815   4.622  12.464  0.4990 -0.0114 -1.0850
18283TIP3    H276341   1.966   4.612  12.452  0.7097 -0.6967  1.7520
18284TIP3   OH276342   3.084   2.952  11.066  0.6989 -0.2751 -0.1701
18284TIP3    H176343   3.071   3.016  10.995  2.2914 -0.0516 -0.2882
18284TIP3    H276344   3.061   2.868  11.026 -1.0688  0.1645 -0.1211
18285TIP3   OH276345   6.239   3.433  11.205 -0.2936  0.0764  0.2742
18285TIP3    H176346   6.184   3.404  11.133 -1.1177 -1.2635  1.4131
18285TIP3    H276347   6.195   3.510  11.240  0.7421  1.4571 -1.3780
18286TIP3   OH276348   1.723   5.785   4.541  0.2256  0.2047 -0.7737
18286TIP3    H176349   1.672   5.779   4.460 -1.6223  0.7857  0.3411
18286TIP3    H276350   1.673   5.843   4.598  1.5838 -0.0706  0.7508
18287TIP3   OH276351   2.541   0.539  14.852 -0.1570 -0.2175  0.1760
18287TIP3    H176352   2.586   0.618  14.821  1.6976 -0.1005  2.9466
18287TIP3    H276353   2.590   0.467  14.812 -0.7714 -0.0184 -0.9638
18288TIP3   OH276354   4.613   3.128  15.254  0.6973  0.0091  0.2676
18288TIP3    H176355   4.698   3.172  15.241  0.3782  0.4087 -0.4741
18288TIP3    H276356   4.548   3.196  15.235  0.2097 -0.1310  1.4155
18289TIP3   OH276357   6.404   2.193  13.402 -0.4066 -0.3490 -0.3095
18289TIP3    H176358   6.430   2.243  13.325 -0.8334  1.9046  0.9445
18289TIP3    H276359   6.342   2.129  13.370 -1.0145  0.9412 -1.7658
18290TIP3   OH276360   5.694   1.399   0.530  0.2398  0.1042  0.0517
18290TIP3    H176361   5.790   1.405   0.524  0.1942  1.2493  0.2373
18290TIP3    H276362   5.665   1.490   0.532 -0.7611 -0.2242  1.5649
18291TIP3   OH276363   0.533   0.774   3.734  0.0814  0.4587 -0.7271
18291TIP3    H176364   0.447   0.743   3.760  1.7873 -3.2669  0.9089
18291TIP3    H276365   0.563   0.828   3.807 -0.8212  1.7749 -1.3095
18292TIP3   OH276366   4.984   1.602  14.354  0.0575  0.2490 -0.0664
18292TIP3    H176367   5.021   1.689  14.338  0.3636 -0.5520 -4.1487
18292TIP3    H276368   5.021   1.547  14.285 -4.2883 -1.9243 -0.8165
18293TIP3   OH276369   1.896   5.591   0.107  0.3240 -0.4268 -0.8419
18293TIP3    H176370   1.969   5.638   0.065  1.4444  0.4197  1.9025
18293TIP3    H276371   1.937   5.515   0.148 -0.0743  0.7698  1.8573
18294TIP3   OH276372   1.879   6.533  11.764  0.0812  0.3483 -0.4677
18294TIP3    H176373   1.800   6.565  11.721  0.6510  0.0307 -1.7945
18294TIP3    H276374   1.940   6.607  11.759 -0.3043  0.7754  1.0281
18295TIP3   OH276375   2.784   3.524   5.685  0.1981 -0.0091 -0.1309
18295TIP3    H176376   2.740   3.563   5.760  2.5586  0.8592  0.8727
18295TIP3    H276377   2.864   3.575   5.675  0.1074 -0.3411 -3.0461
18296TIP3   OH276378   6.380   3.838   3.808  0.0434  0.3156 -0.3025
18296TIP3    H176379   6.351   3.747   3.817 -0.7182  0.4822 -0.9656
18296TIP3    H276380   6.475   3.833   3.805  0.0417 -0.3825  0.5171
18297TIP3   OH276381   1.705   1.715   0.636 -0.3583 -0.2827 -0.0001
18297TIP3    H176382   1.774   1.700   0.571  0.4371  2.6543  0.1007
18297TIP3    H276383   1.748   1.703   0.720 -0.1142  0.8888  0.0503
18298TIP3   OH276384   0.329   1.939   6.049  0.3792 -0.2947 -0.9335
18298TIP3    H176385   0.246   1.986   6.045  0.7199  0.3063 -0.9417
18298TIP3    H276386   0.312   1.864   6.106 -0.4265 -0.6911 -1.6759
18299TIP3   OH276387   2.713   0.459  12.872 -0.1207  0.7831  0.8868
18299TIP3    H176388   2.629   0.478  12.914 -0.8441  0.3093 -0.3269
18299TIP3    H276389   2.712   0.513  12.793  1.4489  2.0573  1.7195
18300TIP3   OH276390   5.644   5.136  12.067 -0.3439 -0.3165  0.1691
18300TIP3    H176391   5.601   5.192  12.002 -1.9350 -1.9864 -0.2665
18300TIP3    H276392   5.713   5.092  12.018  0.3950  0.6529  0.3247
18301TIP3   OH276393   0.665   1.591   2.403  0.3358  0.0782  0.9205
18301TIP3    H176394   0.626   1.503   2.398  2.4702 -0.8385  0.0249
18301TIP3    H276395   0.604   1.647   2.355 -0.3936 -1.1438  0.3867
18302TIP3   OH276396   4.063   1.429  12.919 -0.5454  0.6241  0.1892
18302TIP3    H176397   4.060   1.434  13.015 -1.4436  1.0536  0.1499
18302TIP3    H276398   4.152   1.455  12.896 -0.6218  1.5323  0.8621
18303TIP3   OH276399   0.352   2.785   4.663  0.8856 -0.1137  0.0240
18303TIP3    H176400   0.297   2.757   4.737  2.0330 -1.6191  0.3406
18303TIP3    H276401   0.339   2.879   4.658 -1.4346 -0.3714  0.3389
18304TIP3   OH276402   1.526   1.152  15.001 -0.5499 -0.2141  0.4814
18304TIP3    H176403   1.484   1.165  15.086 -1.2243  1.1755 -0.0603
18304TIP3    H276404   1.566   1.237  14.981 -0.8685 -0.3730 -0.8513
18305TIP3   OH276405   0.854   4.058   4.919 -0.2443  0.7610 -0.6341
18305TIP3    H176406   0.791   4.130   4.917 -1.8257 -0.5898 -0.1994
18305TIP3    H276407   0.827   4.001   4.847  2.0002  1.3970 -2.0375
18306TIP3   OH276408   2.708   5.465  14.347  0.3035  0.2182  0.4923
18306TIP3    H176409   2.749   5.496  14.427  0.1339  0.0952  0.6274
18306TIP3    H276410   2.626   5.513  14.341 -0.7447 -1.3731  1.5699
18307TIP3   OH276411   2.611   2.118  11.756 -0.4260  0.5063 -0.1262
18307TIP3    H176412   2.705   2.118  11.774 -0.3177  1.8561 -0.6848
18307TIP3    H276413   2.601   2.171  11.677 -1.5922 -0.1918 -0.4712
18308TIP3   OH276414   2.653   4.661   0.169 -0.1321  0.2300 -0.0469
18308TIP3    H176415   2.729   4.714   0.145 -0.7748  0.8436 -0.7014
18308TIP3    H276416   2.630   4.613   0.089 -0.2360 -0.2099  0.2415
18309TIP3   OH276417   0.593   2.459   6.532 -0.7118  0.5775 -0.7043
18309TIP3    H176418   0.624   2.516   6.603  0.1778  0.9481 -1.3832
18309TIP3    H276419   0.583   2.373   6.574  1.1196  0.4818 -0.4220
18310TIP3   OH276420   5.050   0.070  16.749  0.3128  0.2451 -0.0167
18310TIP3    H176421   5.094   0.052  16.832 -1.6569  0.4898  1.1039
18310TIP3    H276422   4.970   0.017  16.753  0.5496 -0.3039 -2.0813
18311TIP3   OH276423   4.872   5.265   2.391  0.7280  0.1013 -0.2225
18311TIP3    H176424   4.960   5.255   2.428 -0.3815 -3.0304  1.7564
18311TIP3    H276425   4.821   5.196   2.433 -1.8759 -0.2546 -3.8097
18312TIP3   OH276426   3.275   4.418   1.385  0.6890  0.2786  0.7903
18312TIP3    H176427   3.263   4.467   1.304 -0.5135  1.3505  1.6043
18312TIP3    H276428   3.219   4.341   1.376 -0.9485  1.3773  1.3917
18313TIP3   OH276429   6.025   4.322   3.304 -0.1566  0.3370 -0.6696
18313TIP3    H176430   6.051   4.411   3.325 -0.4703  0.7587 -1.9779
18313TIP3    H276431   6.081   4.297   3.230 -1.5004  0.2433 -1.6933
18314TIP3   OH276432   6.666   3.773  17.188 -0.0953 -0.5600 -0.4512
18314TIP3    H176433   6.608   3.839  17.148 -0.6454 -1.1606 -0.6642
18314TIP3    H276434   6.694   3.813  17.270 -0.3838 -0.0336 -0.6021
18315TIP3   OH276435   0.205   4.568  13.131 -0.1099 -0.4774  0.4050
18315TIP3    H176436   0.127   4.523  13.163  1.1539 -1.3783  2.3248
18315TIP3    H276437   0.263   4.498  13.103  0.1754  0.1676 -0.6410
18316TIP3   OH276438   3.388   6.600  11.857 -0.1266 -0.8494  0.0841
18316TIP3    H176439   3.397   6.666  11.788  1.3102 -0.5899  0.5230
18316TIP3    H276440   3.310   6.627  11.905 -1.1138 -0.9925 -1.3900
18317TIP3   OH276441   3.873   0.041   3.840 -0.3091  0.9153 -0.6606
18317TIP3    H176442   3.801   0.064   3.899  0.4456  1.4954  0.0548
18317TIP3    H276443   3.853  -0.048   3.811  0.2844 -0.1486  1.9816
18318TIP3   OH276444   2.379   4.562   0.679 -0.6494 -0.4430  0.0075
18318TIP3    H176445   2.302   4.552   0.622 -0.9445  0.0437  0.3198
18318TIP3    H276446   2.435   4.625   0.633 -0.3185 -0.9819 -0.3392
18319TIP3   OH276447   1.472   6.302   1.653  0.2752 -0.1089  0.0829
18319TIP3    H176448   1.407   6.242   1.616 -0.6193  0.0705  1.3551
18319TIP3    H276449   1.466   6.381   1.598 -1.4350  0.3672  0.9316
18320TIP3   OH276450   5.025   6.754  13.599  0.2867  0.6475  0.5838
18320TIP3    H176451   4.988   6.842  13.599  1.5693  1.2037  0.7378
18320TIP3    H276452   5.004   6.719  13.685  1.9235  1.7491  1.4580
18321TIP3   OH276453   1.973   1.411   5.170 -0.3886  0.1426 -0.4846
18321TIP3    H176454   1.960   1.318   5.150 -0.4859  0.0608 -0.0520
18321TIP3    H276455   2.054   1.434   5.125 -0.6756 -0.0011 -1.0796
18322TIP3   OH276456   6.588   5.450   1.967 -0.1398 -0.1027  0.6181
18322TIP3    H176457   6.682   5.464   1.970 -0.5209  2.7573  0.9594
18322TIP3    H276458   6.563   5.439   2.059 -0.4542  1.7641  0.7776
18323TIP3   OH276459   5.302   5.486   0.390 -0.0315 -0.0529 -0.0470
18323TIP3    H176460   5.281   5.524   0.476  1.1364 -0.4090  0.4047
18323TIP3    H276461   5.334   5.560   0.339  0.5325 -0.0910  0.2511
18324TIP3   OH276462   4.918   0.419  15.301 -0.1841 -0.2694 -0.7563
18324TIP3    H176463   4.890   0.500  15.343 -1.5362  0.3508 -2.7604
18324TIP3    H276464   4.944   0.445  15.213 -0.3136 -1.9458 -1.3108
18325TIP3   OH276465   3.372   5.440   1.571 -0.3104  0.5154 -0.6390
18325TIP3    H176466   3.301   5.440   1.634 -1.3775  0.5622 -1.8184
18325TIP3    H276467   3.351   5.511   1.510  0.9444  0.7792 -0.7892
18326TIP3   OH276468   5.065   0.853  13.985 -0.2531  0.4939 -0.0822
18326TIP3    H176469   5.135   0.883  13.927  0.2459 -0.9171 -0.2435
18326TIP3    H276470   5.110   0.827  14.065 -0.6595  0.1676  0.0426
18327TIP3   OH276471   5.300   3.746  14.453 -0.0693 -0.1262  0.1134
18327TIP3    H176472   5.362   3.674  14.458 -1.1552 -1.1196 -0.4969
18327TIP3    H276473   5.354   3.825  14.454  1.1106 -0.9322  1.1419
18328TIP3   OH276474   0.720   4.974  15.819 -0.2625 -0.0361 -0.4643
18328TIP3    H176475   0.777   4.899  15.804  1.0904  0.5497  1.5355
18328TIP3    H276476   0.766   5.026  15.884 -0.8354  2.9380 -2.3548
18329TIP3   OH276477   3.057   6.437   2.130 -1.0103  0.0620  0.2496
18329TIP3    H176478   3.029   6.345   2.128 -0.0664 -0.2120 -3.1537
18329TIP3    H276479   3.000   6.480   2.065 -1.0725  1.7817  1.4232
18330TIP3   OH276480   1.525   3.899  13.428  0.3504  0.2576 -0.2921
18330TIP3    H176481   1.587   3.972  13.433  0.9206 -0.3142  1.1862
18330TIP3    H276482   1.579   3.821  13.433 -0.3501 -0.2686 -0.8313
18331TIP3   OH276483   5.020   0.845  16.009  0.0326 -0.4703 -0.1746
18331TIP3    H176484   5.007   0.875  15.919  1.0043  0.0463 -0.1515
18331TIP3    H276485   5.108   0.808  16.008  0.3915  0.3515  0.7828
18332TIP3   OH276486   0.942   2.980   2.719 -0.4835 -0.0275 -0.2267
18332TIP3    H176487   1.013   2.999   2.658 -0.7376 -0.6441 -0.7189
18332TIP3    H276488   0.936   3.059   2.774 -0.8227  0.8774 -1.5374
18333TIP3   OH276489   5.242   2.323   4.438 -0.0687  0.1983 -0.2821
18333TIP3    H176490   5.206   2.247   4.391  2.1635 -2.0058  1.4152
18333TIP3    H276491   5.214   2.310   4.529  0.1504  1.5716 -0.0105
18334TIP3   OH276492   4.844   2.290  11.886 -0.2970 -0.1812 -0.0536
18334TIP3    H176493   4.750   2.276  11.898 -0.3228  0.7246  0.8746
18334TIP3    H276494   4.881   2.202  11.882 -1.2454 -0.5475 -0.9813
18335TIP3   OH276495   0.557   6.508  12.150 -0.2639  0.2837  0.6353
18335TIP3    H176496   0.533   6.544  12.065  0.2899 -1.8005 -0.4157
18335TIP3    H276497   0.478   6.519  12.203 -1.6326 -1.1666 -1.0488
18336TIP3   OH276498   0.771   3.734  14.084 -0.0181 -0.6107 -0.0460
18336TIP3    H176499   0.777   3.720  13.990  2.3475  0.1967 -0.0498
18336TIP3    H276500   0.832   3.670  14.122  1.0649  0.8580  0.7427
18337TIP3   OH276501   2.033   5.937   2.291 -0.4642 -0.1555  0.7723
18337TIP3    H176502   2.100   5.996   2.259 -0.2059 -0.7182  0.2581
18337TIP3    H276503   2.006   5.973   2.375  2.9569 -1.8393  2.6740
18338TIP3   OH276504   4.521   0.777   0.600 -0.5438  0.5635  0.1294
18338TIP3    H176505   4.442   0.734   0.568 -0.9399  2.2314 -1.2218
18338TIP3    H276506   4.512   0.775   0.695 -2.1676  0.6316 -0.0045
18339TIP3   OH276507   1.778   5.374  17.102  0.3741  0.2067 -0.0183
18339TIP3    H176508   1.856   5.320  17.115  1.4700  1.7986  0.1719
18339TIP3    H276509   1.714   5.341  17.166  0.3678 -2.0300 -1.1244
18340TIP3   OH276510   0.600   2.257   3.322  0.1104 -0.0810  0.0794
18340TIP3    H176511   0.548   2.211   3.256 -0.6775 -0.2125  0.7853
18340TIP3    H276512   0.582   2.350   3.306 -0.7538 -0.1418  0.6426
18341TIP3   OH276513   2.139   3.784   1.921 -0.7395  0.7314  0.6068
18341TIP3    H176514   2.209   3.791   1.986 -0.2209 -3.0534  0.5245
18341TIP3    H276515   2.062   3.756   1.971 -0.4996 -1.5681 -0.2454
18342TIP3   OH276516   4.131   4.456  10.396  0.4933 -0.4022 -0.1978
18342TIP3    H176517   4.094   4.493  10.476  1.7637 -0.2250  0.3126
18342TIP3    H276518   4.075   4.491  10.326  0.3119  0.6720  0.4723
18343TIP3   OH276519   4.250   5.717   4.279 -0.3912 -0.3660 -0.4926
18343TIP3    H176520   4.248   5.636   4.229  1.9482  0.2174 -1.6025
18343TIP3    H276521   4.218   5.784   4.219 -0.7731 -0.1984 -0.1058
18344TIP3   OH276522   4.411   0.563  12.370 -0.2019 -0.2252 -0.1680
18344TIP3    H176523   4.339   0.522  12.419 -0.1259  0.7902  0.7975
18344TIP3    H276524   4.468   0.490  12.346 -1.3381 -0.9924 -0.5999
18345TIP3   OH276525   2.570   4.859  16.888 -0.0695  0.4575  0.5981
18345TIP3    H176526   2.657   4.893  16.866 -0.0479  0.6120  0.9273
18345TIP3    H276527   2.584   4.807  16.967 -0.1122 -0.2592  0.1358
18346TIP3   OH276528   4.332   0.066   2.613  0.4493 -0.1255  0.4165
18346TIP3    H176529   4.378   0.098   2.690  0.8638 -1.2963  0.6577
18346TIP3    H276530   4.397   0.015   2.565  0.0366  0.1185 -0.4140
18347TIP3   OH276531   1.415   6.566  11.201  0.6488  0.2322 -0.1359
18347TIP3    H176532   1.363   6.530  11.129  3.1594  0.3390 -2.0458
18347TIP3    H276533   1.494   6.512  11.204  1.1531  1.0169  1.7474
18348TIP3   OH276534   1.944   6.256  11.750 -0.4013 -0.2969  0.1795
18348TIP3    H176535   1.937   6.330  11.810 -0.2060 -0.1499  0.0204
18348TIP3    H276536   1.949   6.295  11.663  0.2766 -0.4716  0.1330
18349TIP3   OH276537   6.166   3.946   1.701  0.3750 -0.5938  0.4592
18349TIP3    H176538   6.258   3.973   1.708 -1.0550  4.7137  1.4043
18349TIP3    H276539   6.143   3.915   1.789  0.8003 -0.1532  0.7304
18350TIP3   OH276540   3.328   4.635  16.596 -0.3903  0.4269  0.1719
18350TIP3    H176541   3.349   4.543  16.606 -0.4727  0.2159 -1.4843
18350TIP3    H276542   3.366   4.660  16.512 -1.7694  1.4857 -0.1602
18351TIP3   OH276543   5.236   2.117  15.566  1.0996  0.2107 -0.0461
18351TIP3    H176544   5.204   2.027  15.574  0.2786  0.1549 -3.3070
18351TIP3    H276545   5.324   2.108  15.531  0.4984  0.6919 -1.7101
18352TIP3   OH276546   0.332   3.679   5.823 -0.5513  0.8645  0.8090
18352TIP3    H176547   0.299   3.608   5.768  0.7213 -0.0508  1.2004
18352TIP3    H276548   0.288   3.668   5.907 -0.5446  0.7007  0.7898
18353TIP3   OH276549   1.990   4.520  15.630 -0.3694 -0.1121 -0.5949
18353TIP3    H176550   1.954   4.451  15.685 -0.0779  0.6325  0.5456
18353TIP3    H276551   2.078   4.535  15.665 -0.7310  1.4107 -0.3038
18354TIP3   OH276552   3.953   0.302  15.570 -0.0133 -0.0848  0.1376
18354TIP3    H176553   3.935   0.215  15.605 -0.0488  0.1543  0.7227
18354TIP3    H276554   4.026   0.335  15.623  0.1425  0.1566 -0.2237
18355TIP3   OH276555   2.134   1.676  12.301 -0.4754 -0.1231  0.1698
18355TIP3    H176556   2.132   1.712  12.212 -1.3130  1.4166  0.8045
18355TIP3    H276557   2.121   1.582  12.288  1.5433 -0.2103 -1.4777
18356TIP3   OH276558   3.826   4.327  13.622 -0.6993  0.1165  0.7709
18356TIP3    H176559   3.792   4.404  13.668 -0.8361  0.7155 -0.3369
18356TIP3    H276560   3.792   4.252  13.672 -2.3784  0.7304  0.5665
18357TIP3   OH276561   6.389   5.765  12.533 -0.5260  0.1456 -0.4959
18357TIP3    H176562   6.419   5.676  12.548 -0.8146  0.2881  0.9827
18357TIP3    H276563   6.403   5.809  12.617  2.0838  2.1930 -1.9101
18358TIP3   OH276564   0.969   1.782  12.630 -0.0646  0.8395 -0.1364
18358TIP3    H176565   1.030   1.801  12.559  0.2703 -1.4521 -0.5066
18358TIP3    H276566   0.887   1.761  12.585 -0.2314  0.7435  0.2164
18359TIP3   OH276567   2.142   3.006   5.262 -0.1674  0.1049 -0.0260
18359TIP3    H176568   2.083   3.024   5.335 -0.4328  1.1514 -0.4841
18359TIP3    H276569   2.090   3.024   5.184 -0.6816 -3.4259 -0.5613
18360TIP3   OH276570   4.329   6.394   5.371  0.0607  0.2817  0.4170
18360TIP3    H176571   4.335   6.307   5.412 -1.6760  0.4872  1.1392
18360TIP3    H276572   4.358   6.379   5.281  0.4614 -0.9114  0.7282
18361TIP3   OH276573   1.562   0.377   1.334 -0.3018  0.0068 -0.3161
18361TIP3    H176574   1.491   0.316   1.315 -0.2687 -0.4946  1.1122
18361TIP3    H276575   1.641   0.330   1.308 -0.2988 -0.4418  0.5025
18362TIP3   OH276576   6.469   6.599   2.938  0.1370  0.0908  0.2887
18362TIP3    H176577   6.379   6.567   2.927  0.7092 -0.6053 -2.7228
18362TIP3    H276578   6.511   6.533   2.993 -0.7918 -0.3384  0.4978
18363TIP3   OH276579   1.753   5.748  16.901  0.1017 -0.9464 -0.3187
18363TIP3    H176580   1.766   5.734  16.995 -1.6968  0.4425  0.1543
18363TIP3    H276581   1.743   5.842  16.892 -1.4510 -1.2289 -1.6748
18364TIP3   OH276582   0.981   6.068  12.294 -0.6470  0.3259  0.2171
18364TIP3    H176583   0.966   6.128  12.220 -1.1117  0.9332  0.8001
18364TIP3    H276584   0.949   6.116  12.370 -1.1337 -0.7116  0.6707
18365TIP3   OH276585   4.661   5.860   3.091  0.0780  0.4325 -0.2477
18365TIP3    H176586   4.726   5.840   3.158 -0.6736 -0.4178  0.2458
18365TIP3    H276587   4.691   5.812   3.013  0.5690  0.8375 -0.3050
18366TIP3   OH276588   0.371   5.814  15.377  0.2074 -0.1855  0.1850
18366TIP3    H176589   0.379   5.818  15.472 -0.8662  0.2321  0.2647
18366TIP3    H276590   0.297   5.871  15.357 -0.2085 -1.0671 -0.8157
18367TIP3   OH276591   6.034   1.755  16.831  0.4256 -0.5532  0.3212
18367TIP3    H176592   6.032   1.849  16.846  2.5560 -0.3694 -0.4737
18367TIP3    H276593   6.010   1.717  16.916  0.4476  0.6767  0.8873
18368TIP3   OH276594   0.624   3.676  16.624  0.1759  0.5944  0.4671
18368TIP3    H176595   0.690   3.608  16.635  1.0627  1.2428 -0.6500
18368TIP3    H276596   0.569   3.670  16.701  1.6462  0.1393  1.4991
18369TIP3   OH276597   3.453   6.810   3.309  0.0124 -0.8472 -0.3192
18369TIP3    H176598   3.510   6.770   3.244  0.6448 -0.8236  0.2099
18369TIP3    H276599   3.427   6.738   3.367  0.2154 -0.7058 -0.0477
18370TIP3   OH276600   0.607   3.283   2.840  0.1177 -0.0536 -0.1468
18370TIP3    H176601   0.542   3.219   2.812 -0.3877 -0.5538  2.0858
18370TIP3    H276602   0.581   3.364   2.795 -2.3900 -0.1101  1.1086
18371TIP3   OH276603   1.261   0.783  11.094  0.2653  0.3058 -0.1707
18371TIP3    H176604   1.194   0.744  11.037 -1.1895 -0.5641  2.0801
18371TIP3    H276605   1.288   0.862  11.047 -1.3774 -0.0265 -1.7608
18372TIP3   OH276606   1.275   6.802   3.886 -0.2179  0.3980  0.4512
18372TIP3    H176607   1.328   6.881   3.886  0.0255  0.2362  0.4912
18372TIP3    H276608   1.281   6.769   3.976  0.9159 -0.4884  0.0595
18373TIP3   OH276609   5.703   3.311  12.150  0.0072 -0.8644 -0.3500
18373TIP3    H176610   5.694   3.259  12.070 -2.2959 -0.0328 -0.6743
18373TIP3    H276611   5.672   3.252  12.219 -0.5210 -0.6787 -0.4276
18374TIP3   OH276612   2.115   0.279   0.357 -0.1653  0.5632 -0.2451
18374TIP3    H176613   2.181   0.349   0.353 -0.5152  0.9031 -0.0453
18374TIP3    H276614   2.166   0.198   0.360  0.2527  0.8637  0.7664
18375TIP3   OH276615   4.680   6.283  15.129 -0.6821 -0.1057  0.4258
18375TIP3    H176616   4.594   6.319  15.108 -0.4597  0.0943 -0.1458
18375TIP3    H276617   4.712   6.246  15.047 -0.2302 -0.2035  0.6428
18376TIP3   OH276618   1.679   3.317  12.045 -0.3197 -0.5322 -0.1736
18376TIP3    H176619   1.761   3.268  12.054  0.1627  0.3478  0.2188
18376TIP3    H276620   1.631   3.270  11.976  0.2667 -1.3806 -0.0120
18377TIP3   OH276621   2.382   6.317   4.684 -0.2991 -0.1290 -0.3770
18377TIP3    H176622   2.322   6.269   4.627  1.1892  0.5519 -2.6221
18377TIP3    H276623   2.452   6.255   4.703 -1.1978 -0.6162  1.4355
18378TIP3   OH276624   2.792   1.095  14.508  0.2470  0.3620 -0.0251
18378TIP3    H176625   2.732   1.124  14.439 -1.6530  0.3129  1.5598
18378TIP3    H276626   2.862   1.050  14.461 -1.6457 -0.7664 -1.8378
18379TIP3   OH276627   1.160   1.996   3.136  0.2136 -0.2087 -0.1790
18379TIP3    H176628   1.200   2.083   3.142  0.7223 -0.6141  2.7751
18379TIP3    H276629   1.066   2.013   3.133  0.3514  0.4770 -0.9071
18380TIP3   OH276630   4.076   3.233   1.229 -0.3550 -1.1935  0.6903
18380TIP3    H176631   4.142   3.232   1.298 -1.5960 -1.1086  1.9046
18380TIP3    H276632   4.112   3.177   1.160  2.7337  1.9074 -0.3600
18381TIP3   OH276633   2.409   3.301  16.208 -0.8024  0.2023 -0.0248
18381TIP3    H176634   2.321   3.329  16.183 -1.1043 -0.0387  0.7745
18381TIP3    H276635   2.442   3.256  16.130 -2.1807 -1.5510  0.3791
18382TIP3   OH276636   4.939   3.212  15.257  0.0274 -0.1342  0.6891
18382TIP3    H176637   4.969   3.296  15.224 -0.3685  0.6342  2.2278
18382TIP3    H276638   4.984   3.147  15.203  2.3593  1.0139  1.2002
18383TIP3   OH276639   1.565   3.536   2.734 -0.7311  0.1373 -0.4180
18383TIP3    H176640   1.633   3.502   2.793 -1.1520  0.2331  0.1233
18383TIP3    H276641   1.535   3.616   2.776 -2.6171 -0.9655  0.4014
18384TIP3   OH276642   4.747   1.745   4.510  0.0823 -0.6089 -0.0902
18384TIP3    H176643   4.688   1.738   4.434  0.4219  0.3776 -0.4441
18384TIP3    H276644   4.792   1.660   4.512 -0.1102 -0.7346 -0.8350
18385TIP3   OH276645   1.113   6.151  15.341 -0.1281 -0.6157 -0.1739
18385TIP3    H176646   1.126   6.243  15.322 -0.4854 -0.8659 -1.6420
18385TIP3    H276647   1.095   6.149  15.436 -0.2259  0.8185 -0.1501
18386TIP3   OH276648   2.884   5.590  17.127  0.0134 -0.1702 -0.3833
18386TIP3    H176649   2.904   5.653  17.196  0.7254 -0.5878 -0.2042
18386TIP3    H276650   2.831   5.640  17.064  1.0820  0.7795 -0.5483
18387TIP3   OH276651   2.161   2.223   4.738  0.3166 -0.1227  0.1393
18387TIP3    H176652   2.128   2.206   4.650  2.2289 -1.4891 -0.3483
18387TIP3    H276653   2.159   2.318   4.747  2.2868  0.1920 -2.2746
18388TIP3   OH276654   3.728   4.678   3.439 -0.5716 -0.5650  0.0987
18388TIP3    H176655   3.731   4.586   3.465 -0.9736 -0.5713  0.1246
18388TIP3    H276656   3.717   4.726   3.522  1.0739 -0.3984  0.2379
18389TIP3   OH276657   4.611   6.416  11.095 -0.3996 -0.0742 -0.4916
18389TIP3    H176658   4.572   6.330  11.082  0.7643 -0.9022  1.3017
18389TIP3    H276659   4.542   6.478  11.072 -1.7446 -1.4830 -0.2772
18390TIP3   OH276660   4.887   6.750  14.923 -0.0079 -0.6895  0.6514
18390TIP3    H176661   4.840   6.671  14.949  0.2462 -0.9081  0.4489
18390TIP3    H276662   4.908   6.736  14.830 -0.5287 -0.1042  0.4362
18391TIP3   OH276663   1.291   5.937   4.079  0.8706 -0.4225 -0.0382
18391TIP3    H176664   1.248   5.989   4.011 -0.7891  0.4302  1.6216
18391TIP3    H276665   1.369   5.901   4.036 -0.1437  0.0776 -2.3892
18392TIP3   OH276666   6.177   2.945  13.655  0.0317  0.5823  0.1945
18392TIP3    H176667   6.164   3.017  13.717 -0.6072 -0.0327  0.7863
18392TIP3    H276668   6.133   2.973  13.576  1.7519  1.8313 -0.3405
18393TIP3   OH276669   5.043   0.654  12.095 -0.0433 -0.5154  0.3567
18393TIP3    H176670   4.978   0.692  12.155 -0.0961 -1.5447  0.9570
18393TIP3    H276671   5.050   0.563  12.122  0.4238 -0.8262 -0.7916
18394TIP3   OH276672   5.546   4.142  11.615 -0.4487 -0.7954 -0.4371
18394TIP3    H176673   5.532   4.218  11.560  0.3229  0.9330  1.6915
18394TIP3    H276674   5.633   4.110  11.591  0.3155  0.5592  0.4278
18395TIP3   OH276675   6.542   3.839  14.682  0.1675 -0.2249 -0.0762
18395TIP3    H176676   6.625   3.791  14.670  1.7819  1.9369  1.9414
18395TIP3    H276677   6.563   3.929  14.657 -2.0554  0.0344 -1.0756
18396TIP3   OH276678   1.141   4.692  15.415  0.3148 -0.3290 -0.3342
18396TIP3    H176679   1.067   4.749  15.436 -0.3510 -0.5146 -2.0937
18396TIP3    H276680   1.218   4.741  15.443 -0.3410  0.8689 -0.5895
18397TIP3   OH276681   3.615   1.773   1.055  0.1890 -0.1560  0.0554
18397TIP3    H176682   3.686   1.714   1.030 -0.9765 -1.4853 -0.2361
18397TIP3    H276683   3.548   1.715   1.091 -1.0557  0.9839 -0.3874
18398TIP3   OH276684   5.231   5.424  15.048 -0.1863 -0.2768 -0.0451
18398TIP3    H176685   5.283   5.397  15.124 -0.4594  0.3055  0.3567
18398TIP3    H276686   5.148   5.379  15.057 -0.5291  0.4425  0.4606
18399TIP3   OH276687   6.391   3.783  16.154 -0.1826 -0.5092  1.1777
18399TIP3    H176688   6.379   3.736  16.071  1.2386  0.8735  0.1484
18399TIP3    H276689   6.301   3.800  16.184 -0.7196 -1.2163  0.0364
18400TIP3   OH276690   6.445   2.348   6.189  0.4104 -0.3197 -0.1872
18400TIP3    H176691   6.521   2.292   6.202  1.1297  0.1088 -2.2438
18400TIP3    H276692   6.384   2.295   6.137  0.3176  0.1702 -0.5795
18401TIP3   OH276693   4.121   1.444  11.850  0.0328 -0.2520 -0.0142
18401TIP3    H176694   4.051   1.409  11.794  0.3501  0.6134 -0.9586
18401TIP3    H276695   4.184   1.483  11.789  0.4789  0.5255  0.9286
18402TIP3   OH276696   2.371   6.461   5.440  0.2319  0.0648 -0.2898
18402TIP3    H176697   2.396   6.485   5.529  0.7159  0.7346 -0.6026
18402TIP3    H276698   2.451   6.471   5.388  0.9921 -4.0800 -0.1097
18403TIP3   OH276699   6.694   1.242   0.814 -0.0514  0.2746 -0.1946
18403TIP3    H176700   6.620   1.254   0.755  0.6713  0.7523 -1.0074
18403TIP3    H276701   6.723   1.331   0.836  0.4266  0.0935 -0.0711
18404TIP3   OH276702   1.171   0.327  16.702 -0.2968 -0.1775 -0.0527
18404TIP3    H176703   1.156   0.419  16.683  2.1595  0.0997 -0.7709
18404TIP3    H276704   1.242   0.326  16.766 -2.9643 -1.4550  3.0665
18405TIP3   OH276705   1.317   2.533   5.475  0.1259 -0.2602  0.2158
18405TIP3    H176706   1.287   2.506   5.388  1.2941 -1.5786  0.2015
18405TIP3    H276707   1.259   2.487   5.536 -0.2961  0.1728  0.1405
18406TIP3   OH276708   2.127   4.041   5.272  0.5878 -0.1054 -0.0445
18406TIP3    H176709   2.053   4.035   5.211 -2.0860 -4.4389  3.2394
18406TIP3    H276710   2.096   4.100   5.341  0.7378 -0.7667  0.5951
18407TIP3   OH276711   5.066   6.771  12.400  0.0096 -0.6380  0.3098
18407TIP3    H176712   5.052   6.733  12.314 -1.3722 -0.3054  0.3607
18407TIP3    H276713   5.045   6.701  12.462 -0.0050 -0.5722  0.3800
18408TIP3   OH276714   3.708   3.528  14.775  0.4705  0.2345 -0.6355
18408TIP3    H176715   3.775   3.572  14.722  0.3929  0.8328 -0.2501
18408TIP3    H276716   3.759   3.474  14.836  0.5176 -2.1160 -2.6832
18409TIP3   OH276717   5.858   5.501   0.991 -0.4001  0.5934 -0.4651
18409TIP3    H176718   5.886   5.562   1.059  0.7454 -0.9949  0.5430
18409TIP3    H276719   5.933   5.442   0.980 -1.0678  0.0191 -2.1759
18410TIP3   OH276720   3.283   4.142  16.790  0.6212  0.0853  0.4724
18410TIP3    H176721   3.227   4.066  16.773  0.2308  0.7942 -1.6540
18410TIP3    H276722   3.293   4.145  16.885 -1.7832 -0.9011  0.7949
18411TIP3   OH276723   1.951   6.695  11.497  0.5646  0.6854 -0.7298
18411TIP3    H176724   2.024   6.716  11.438  1.4224 -0.6334 -0.1662
18411TIP3    H276725   1.984   6.716  11.585 -0.3188  1.5949 -0.5947
18412TIP3   OH276726   1.410   2.889  15.095 -0.1042 -0.0627 -0.0613
18412TIP3    H176727   1.486   2.942  15.117  1.0035 -1.8148  0.3951
18412TIP3    H276728   1.344   2.953  15.067  1.5496  1.4572 -0.5678
18413TIP3   OH276729   4.111   0.746  11.446  0.3127 -0.6678 -0.1333
18413TIP3    H176730   4.056   0.670  11.424 -1.1953 -0.3415  2.3796
18413TIP3    H276731   4.190   0.707  11.485 -0.2906 -0.9735  0.7997
18414TIP3   OH276732   3.007   4.572  15.667 -0.2357 -0.0576 -0.4308
18414TIP3    H176733   2.927   4.565  15.719 -0.0531 -1.4433 -0.3264
18414TIP3    H276734   2.983   4.540  15.580  0.1203 -0.1819 -0.4859
18415TIP3   OH276735   3.879   3.127   4.855 -0.5035 -0.5021  0.1175
18415TIP3    H176736   3.882   3.209   4.904 -0.4121  0.2114 -1.0652
18415TIP3    H276737   3.930   3.066   4.909  1.2385  0.7821 -0.0182
18416TIP3   OH276738   3.429   2.236  15.716  0.2493 -0.3047 -0.0952
18416TIP3    H176739   3.477   2.157  15.694 -0.8822 -1.4296  1.3456
18416TIP3    H276740   3.453   2.254  15.807  1.4506  1.7314 -0.7844
18417TIP3   OH276741   5.544   0.679  13.762  0.1535  0.3469  0.6583
18417TIP3    H176742   5.585   0.604  13.806 -2.3614 -0.9162  0.9801
18417TIP3    H276743   5.591   0.687  13.679  1.2496 -0.8441  1.1504
18418TIP3   OH276744   5.930   5.383   0.294 -0.1219  0.5450  0.4368
18418TIP3    H176745   5.969   5.318   0.352  1.1923 -0.0467 -1.0901
18418TIP3    H276746   5.861   5.336   0.248  1.0934  0.0749 -0.9646
18419TIP3   OH276747   4.236   1.708  10.645  0.5074 -0.6592 -0.0905
18419TIP3    H176748   4.207   1.791  10.684  0.1773 -0.0370 -1.6321
18419TIP3    H276749   4.313   1.684  10.696 -0.5826 -0.4713  1.6973
18420TIP3   OH276750   1.519   0.093   0.021  0.4033 -0.2646 -0.6610
18420TIP3    H176751   1.593   0.088   0.081 -0.7207  1.6356  0.9204
18420TIP3    H276752   1.546   0.156  -0.046  0.6269 -0.4128 -0.7122
18421TIP3   OH276753   6.374   3.399   3.720  0.1474  0.1035  0.4846
18421TIP3    H176754   6.327   3.347   3.655  0.6072 -0.2880  0.4690
18421TIP3    H276755   6.464   3.367   3.717  0.3290  0.5674  0.8139
18422TIP3   OH276756   3.224   1.691   3.675  0.8116  0.6490 -0.5366
18422TIP3    H176757   3.149   1.651   3.720  2.0369 -0.5288  0.4986
18422TIP3    H276758   3.186   1.763   3.625 -0.8562  0.8289  0.9313
18423TIP3   OH276759   2.252   1.209   3.577  0.7909  0.3069 -0.7465
18423TIP3    H176760   2.182   1.274   3.572 -0.1283 -0.7406 -2.2583
18423TIP3    H276761   2.290   1.208   3.489  1.0680 -0.8999 -0.6216
18424TIP3   OH276762   2.029   6.295   2.194  0.2064 -0.4899  0.1948
18424TIP3    H176763   2.046   6.386   2.170  0.6832 -0.7560 -0.4851
18424TIP3    H276764   2.072   6.284   2.279 -0.9509  0.2791  0.8856
18425TIP3   OH276765   5.044   5.134  12.323  0.4997 -0.3899 -0.2936
18425TIP3    H176766   4.986   5.070  12.365  0.2253  0.0202 -0.0441
18425TIP3    H276767   5.066   5.195  12.393  0.8594 -0.2816 -0.5049
18426TIP3   OH276768   5.986   3.884   3.875  0.0400 -0.2807 -0.1026
18426TIP3    H176769   6.055   3.893   3.941 -1.1417 -0.5566  1.2192
18426TIP3    H276770   5.976   3.789   3.864 -1.6274 -0.3251  1.4048
18427TIP3   OH276771   0.668   3.565  12.333  0.3310  0.2068  0.0273
18427TIP3    H176772   0.679   3.556  12.427  3.1668  2.0108 -0.0846
18427TIP3    H276773   0.580   3.604  12.323 -0.6911 -1.5716  1.7742
18428TIP3   OH276774   0.973   2.945  13.258  0.6703 -0.6640 -0.1814
18428TIP3    H176775   0.983   2.983  13.170  0.1104 -0.7488 -0.2814
18428TIP3    H276776   0.995   3.017  13.317 -0.1428 -0.2471 -0.3766
18429TIP3   OH276777   4.522   0.972   3.603  0.1587 -0.6805  0.5753
18429TIP3    H176778   4.469   0.952   3.680 -0.5117 -2.0938 -0.2404
18429TIP3    H276779   4.484   1.053   3.568  0.2602 -0.2158  1.5267
18430TIP3   OH276780   3.181   2.721   5.650 -0.4090  0.5502 -0.3380
18430TIP3    H176781   3.138   2.642   5.618 -1.0427  0.7482  0.0096
18430TIP3    H276782   3.261   2.728   5.598 -0.6924  0.0612 -0.8452
18431TIP3   OH276783   2.947   0.104  11.319  0.5569  0.3255 -0.4631
18431TIP3    H176784   3.034   0.124  11.353  0.2649  1.4341 -0.3509
18431TIP3    H276785   2.946   0.142  11.231  1.3176 -2.5600 -1.7786
18432TIP3   OH276786   4.925   5.755  13.841 -0.4699  0.0134  0.1120
18432TIP3    H176787   4.924   5.671  13.795  0.2522  0.4066 -0.6422
18432TIP3    H276788   4.834   5.771  13.864 -0.7451 -0.5149 -0.5925
18433TIP3   OH276789   2.416   2.058   2.957  0.1248  0.0921  0.2130
18433TIP3    H176790   2.449   2.077   2.869  1.6250  2.3107  1.2202
18433TIP3    H276791   2.495   2.048   3.010 -0.7992  1.2265  1.8045
18434TIP3   OH276792   6.590   4.403   2.048 -0.1425 -0.0379  0.3459
18434TIP3    H176793   6.678   4.441   2.045  0.0445 -0.4078  1.1662
18434TIP3    H276794   6.581   4.357   1.964  0.8328 -0.8661  0.6888
18435TIP3   OH276795   5.522   0.555  10.806 -0.1550  0.2525 -0.0643
18435TIP3    H176796   5.522   0.639  10.853  1.9381  0.8354 -1.0317
18435TIP3    H276797   5.611   0.522  10.817 -0.2283 -0.5951 -1.8673
18436TIP3   OH276798   4.128   5.817   4.054 -0.0536  0.0096  0.2933
18436TIP3    H176799   4.074   5.873   3.999 -0.6010  0.5711  1.3872
18436TIP3    H276800   4.163   5.751   3.994  0.4292  1.3816 -0.9811
18437TIP3   OH276801   6.291   5.842  12.806  0.5922 -0.3438  0.0248
18437TIP3    H176802   6.295   5.747  12.798 -1.4368 -0.7019  2.7299
18437TIP3    H276803   6.329   5.862  12.891  1.6289  1.3493 -0.8029
18438TIP3   OH276804   4.173   1.469   3.333  0.3287  0.2235  0.1859
18438TIP3    H176805   4.124   1.451   3.413 -2.0218  0.1150 -1.2540
18438TIP3    H276806   4.166   1.389   3.282  0.8802  0.6782 -0.6145
18439TIP3   OH276807   3.816   2.714   0.003 -0.4125 -0.4719  0.2055
18439TIP3    H176808   3.816   2.697   0.098 -0.3252  0.0211  0.2953
18439TIP3    H276809   3.835   2.629  -0.036 -0.2714 -0.6444  0.6361
18440TIP3   OH276810   2.106   1.918   1.869 -0.5073 -0.4166  0.1124
18440TIP3    H176811   2.119   1.952   1.780 -0.0641  0.1755  0.4069
18440TIP3    H276812   2.026   1.961   1.899  0.8027  1.4350  1.0029
18441TIP3   OH276813   4.318   6.571   2.701  0.3077  0.5702  0.1673
18441TIP3    H176814   4.249   6.596   2.639  0.2730  2.4575  0.9421
18441TIP3    H276815   4.311   6.635   2.773 -0.2973 -2.1319  2.6158
18442TIP3   OH276816   1.696   4.375   2.730  0.3458  0.3461  0.6612
18442TIP3    H176817   1.783   4.345   2.756  1.1062  1.1808 -0.8175
18442TIP3    H276818   1.694   4.468   2.756  0.1739  0.5176  0.0496
18443TIP3   OH276819   5.147   0.471  14.257  0.3510 -0.2312 -0.1961
18443TIP3    H176820   5.182   0.433  14.337 -0.4390  0.9204  0.7163
18443TIP3    H276821   5.059   0.433  14.249 -0.1262  0.7473  0.2798
18444TIP3   OH276822   4.447   1.244  16.917  0.0139 -0.0785  0.0060
18444TIP3    H176823   4.461   1.228  16.824 -0.5769 -1.3430  0.1346
18444TIP3    H276824   4.521   1.299  16.943  1.4013 -1.5982 -0.6926
18445TIP3   OH276825   2.501   2.440  14.174  0.3297 -0.1395  0.9271
18445TIP3    H176826   2.437   2.472  14.110  1.8891  0.4488 -0.3594
18445TIP3    H276827   2.501   2.345  14.162 -0.0144 -0.1063  0.6368
18446TIP3   OH276828   0.560   5.942   3.775  0.1869  0.0659  0.2269
18446TIP3    H176829   0.596   5.985   3.698 -1.3960 -0.3433 -0.7536
18446TIP3    H276830   0.610   5.860   3.782 -0.8335 -0.7153 -1.3886
18447TIP3   OH276831   6.295   3.691  13.739 -0.3390 -0.1882  0.4224
18447TIP3    H176832   6.331   3.777  13.716  0.4098 -0.7101 -0.3909
18447TIP3    H276833   6.349   3.629  13.690  0.2516 -1.2441  2.3946
18448TIP3   OH276834   0.515   4.700   3.934  0.4794  0.2486  0.3156
18448TIP3    H176835   0.483   4.748   3.858 -1.8845  0.3363  1.3355
18448TIP3    H276836   0.602   4.669   3.907 -0.3671  0.1244 -2.4780
18449TIP3   OH276837   4.025   4.727   3.959 -0.9308 -0.2805  0.0016
18449TIP3    H176838   4.039   4.641   3.999  0.7691  0.0446  0.1481
18449TIP3    H276839   3.971   4.775   4.022 -2.1567 -1.3301 -0.2201
18450TIP3   OH276840   6.383   4.568   2.113 -0.2658 -0.0907 -0.0889
18450TIP3    H176841   6.461   4.516   2.093 -0.3057 -0.1083 -0.1953
18450TIP3    H276842   6.326   4.558   2.037  0.2259  1.0569 -0.6188
18451TIP3   OH276843   6.032   0.058  15.060 -0.1015 -0.0493  0.0373
18451TIP3    H176844   6.042   0.000  14.984 -0.5486  1.2335 -1.0269
18451TIP3    H276845   5.952   0.107  15.042 -0.9976 -0.7556  2.0485
18452TIP3   OH276846   1.799   3.010  11.183  0.4941  0.4908 -0.3161
18452TIP3    H176847   1.889   3.036  11.164  0.5592  0.5158  0.0319
18452TIP3    H276848   1.747   3.087  11.160  0.7442  1.1621  1.2921
18453TIP3   OH276849   5.170   3.047   0.927 -0.5553 -0.5213 -0.6615
18453TIP3    H176850   5.129   3.045   0.840 -1.7073  0.4048 -0.1448
18453TIP3    H276851   5.097   3.048   0.988  0.2516 -0.5920  0.3180
18454TIP3   OH276852   5.646   6.108   5.866  0.5743  0.4877 -0.0792
18454TIP3    H176853   5.698   6.034   5.896  3.0397  1.4536 -1.8174
18454TIP3    H276854   5.678   6.182   5.918  0.4057  0.9593 -0.6417
18455TIP3   OH276855   5.289   5.708  11.068 -0.6882 -0.0708 -0.0501
18455TIP3    H176856   5.233   5.630  11.070  0.7715 -1.1326  0.9917
18455TIP3    H276857   5.284   5.738  10.977 -1.6730 -1.0880 -0.3534
18456TIP3   OH276858   5.765   1.454  17.019  0.1786 -0.0405 -0.1372
18456TIP3    H176859   5.804   1.484  17.101  1.9985  1.2279 -1.4448
18456TIP3    H276860   5.690   1.512  17.005 -1.6722 -1.8501  1.8683
18457TIP3   OH276861   2.052   4.276  13.319  0.0278  0.5664  0.0773
18457TIP3    H176862   2.110   4.234  13.383  0.4629  2.1922  0.7826
18457TIP3    H276863   2.097   4.357  13.296 -1.2454  1.1078 -0.5414
18458TIP3   OH276864   1.209   6.592   1.305 -0.2593 -0.0432 -0.5236
18458TIP3    H176865   1.173   6.575   1.392 -0.6656 -0.1579 -0.7135
18458TIP3    H276866   1.249   6.678   1.312 -1.2182  0.4072 -0.5138
18459TIP3   OH276867   3.157   1.951  14.888 -0.3925  0.2788  0.0387
18459TIP3    H176868   3.117   1.871  14.856  0.8151 -0.6175  0.7276
18459TIP3    H276869   3.168   2.006  14.810 -2.3011  0.2722 -0.2553
18460TIP3   OH276870   5.694   4.154   4.327 -0.3635  0.0075  0.0546
18460TIP3    H176871   5.729   4.183   4.243 -1.5678 -0.1536 -0.5164
18460TIP3    H276872   5.668   4.063   4.313  0.2439 -0.3055  0.8656
18461TIP3   OH276873   0.169   0.079   4.386  0.1245 -0.1005 -0.4000
18461TIP3    H176874   0.253   0.048   4.419 -0.6299 -0.7817  0.9060
18461TIP3    H276875   0.104   0.027   4.432 -1.1339  2.5540  0.9240
18462TIP3   OH276876   0.455   4.863   3.191  0.3910  0.2107  0.4755
18462TIP3    H176877   0.360   4.871   3.201 -0.0439  0.9259 -3.4993
18462TIP3    H276878   0.474   4.771   3.209 -1.3719 -0.4267 -0.8912
18463TIP3   OH276879   2.891   4.356  12.938 -0.2851 -0.3943 -0.2065
18463TIP3    H176880   2.974   4.310  12.952  0.5959  1.3547  0.5585
18463TIP3    H276881   2.849   4.356  13.024 -0.0206  0.6780 -0.0650
18464TIP3   OH276882   5.167   1.865  11.876 -0.2168 -0.6660 -0.0576
18464TIP3    H176883   5.131   1.949  11.906  1.0945  0.1884 -0.8314
18464TIP3    H276884   5.232   1.842  11.943  0.0831 -0.6053 -0.3301
18465TIP3   OH276885   1.282   1.296   0.991 -0.0561 -0.7087 -0.3033
18465TIP3    H176886   1.330   1.319   0.911 -1.0025  0.5421 -0.5209
18465TIP3    H276887   1.338   1.326   1.062 -0.4789  0.7210 -0.5558
18466TIP3   OH276888   4.428   0.800  11.289  0.0582 -0.2990 -0.2045
18466TIP3    H176889   4.360   0.811  11.355  2.9264  1.3707  2.6027
18466TIP3    H276890   4.469   0.716  11.310 -1.0795 -1.3035 -1.8900
18467TIP3   OH276891   2.886   0.344   5.520  0.1358  0.3151 -0.2761
18467TIP3    H176892   2.855   0.430   5.547  0.1194  0.6641 -1.4108
18467TIP3    H276893   2.962   0.362   5.464  1.8537 -0.4893  1.7085
18468TIP3   OH276894   2.610   4.462   0.857  0.0651 -0.3100 -0.3341
18468TIP3    H176895   2.559   4.440   0.935  0.9053  0.4034  0.4200
18468TIP3    H276896   2.560   4.424   0.785 -1.8525  0.9006  0.3321
18469TIP3   OH276897   0.178   6.611  12.420  0.4008  0.0878 -0.3304
18469TIP3    H176898   0.245   6.564  12.470 -2.2915 -1.6149  1.8267
18469TIP3    H276899   0.104   6.551  12.417 -1.5571  2.4549 -1.4172
18470TIP3   OH276900   6.681   1.869  14.293  0.0216 -0.1634  0.1921
18470TIP3    H176901   6.701   1.775  14.295 -1.5496 -0.5218 -0.4265
18470TIP3    H276902   6.753   1.909  14.342  0.9456 -1.6431  0.0960
18471TIP3   OH276903   4.907   5.384  15.576 -0.6813  0.2300  0.2324
18471TIP3    H176904   4.942   5.458  15.527  0.7948 -0.3331  0.3970
18471TIP3    H276905   4.956   5.308  15.543 -0.6689 -0.3585  1.5605
18472TIP3   OH276906   3.086   6.026   4.731  0.2931  0.5752  0.2621
18472TIP3    H176907   3.172   6.063   4.709  0.0899  0.7936 -0.1746
18472TIP3    H276908   3.093   6.003   4.824  0.3123  2.0530  0.6421
18473TIP3   OH276909   2.593   0.150  14.568 -0.6671 -0.4145  0.0035
18473TIP3    H176910   2.608   0.232  14.521 -1.7585 -0.4385 -0.4013
18473TIP3    H276911   2.604   0.081  14.502  2.1876 -0.7287  0.7696
18474TIP3   OH276912   2.424   4.372  16.632 -0.7990  0.3650 -0.2136
18474TIP3    H176913   2.447   4.434  16.563  1.4205 -0.0685  0.0975
18474TIP3    H276914   2.507   4.354  16.676 -1.5058 -2.3508  0.0875
18475TIP3   OH276915   5.564   0.549  14.126  0.1872  0.3726  0.3860
18475TIP3    H176916   5.516   0.632  14.123 -0.3415 -0.0053 -2.2076
18475TIP3    H276917   5.654   0.573  14.104  0.6061  0.6088  2.2199
18476TIP3   OH276918   1.198   2.381  15.750  0.4045  0.1069  0.0336
18476TIP3    H176919   1.118   2.425  15.721  1.0789  2.2482  1.3091
18476TIP3    H276920   1.228   2.333  15.672 -1.5500  0.0765 -0.7448
18477TIP3   OH276921   0.757   3.437   0.386 -0.6087 -0.0805  0.0746
18477TIP3    H176922   0.777   3.369   0.450  1.6228 -1.0742 -1.5976
18477TIP3    H276923   0.697   3.394   0.324 -0.9853  0.1709  0.2673
18478TIP3   OH276924   1.741   1.132  13.405  0.2705 -0.1020  0.7928
18478TIP3    H176925   1.651   1.128  13.373  0.2411  1.0604  0.7292
18478TIP3    H276926   1.791   1.168  13.333  0.4106  1.3310  1.5767
18479TIP3   OH276927   1.502   4.470  14.528 -0.3323  0.2954 -0.1230
18479TIP3    H176928   1.546   4.535  14.473 -0.7473  0.5857 -0.1156
18479TIP3    H276929   1.497   4.512  14.614 -0.5210  0.2177 -0.0965
18480TIP3   OH276930   3.030   3.301   1.144 -0.6426  0.1753 -0.0818
18480TIP3    H176931   3.104   3.256   1.184 -0.0565 -0.0885 -1.4133
18480TIP3    H276932   2.955   3.244   1.160 -0.0333 -0.9556 -1.1522
18481TIP3   OH276933   4.065   5.385   1.727 -0.7808  0.1143 -0.1545
18481TIP3    H176934   4.059   5.478   1.750 -1.2958 -0.2314  1.1705
18481TIP3    H276935   3.978   5.364   1.692 -0.4931  0.2629 -0.9539
18482TIP3   OH276936   4.361   4.050   1.943  0.1583  0.4106 -0.1981
18482TIP3    H176937   4.314   4.042   2.026 -1.9438  1.9896 -1.1953
18482TIP3    H276938   4.335   3.972   1.893  0.3967  0.1237  0.1265
18483TIP3   OH276939   4.180   3.749  13.302  0.0544  0.4429 -0.4377
18483TIP3    H176940   4.105   3.751  13.243 -0.1463  0.1748 -0.1898
18483TIP3    H276941   4.142   3.749  13.390  0.3206 -0.4616 -0.3145
18484TIP3   OH276942   5.371   1.654   3.428  0.2366 -0.0170 -0.2224
18484TIP3    H176943   5.367   1.665   3.333 -1.2050  0.2555 -0.1413
18484TIP3    H276944   5.436   1.585   3.442  0.7343  0.2175 -1.3843
18485TIP3   OH276945   6.242   3.267   0.240  0.1068  0.3917 -0.5348
18485TIP3    H176946   6.207   3.202   0.301  0.4814  0.4428 -0.2691
18485TIP3    H276947   6.222   3.351   0.281  1.3930  0.4075  0.0887
18486TIP3   OH276948   1.222   4.106   3.767 -0.5033 -0.3240 -0.9117
18486TIP3    H176949   1.295   4.161   3.795 -0.2865 -0.4109 -1.3013
18486TIP3    H276950   1.209   4.129   3.675 -1.0977 -0.1658 -0.7911
18487TIP3   OH276951   6.802   5.556   2.158 -0.3083  0.3005  0.1294
18487TIP3    H176952   6.842   5.471   2.179  0.0971  0.5181  0.2301
18487TIP3    H276953   6.772   5.590   2.242 -1.0875 -0.0575 -0.0035
18488TIP3   OH276954   5.160   1.674   1.781  0.4635  0.1251  0.3461
18488TIP3    H176955   5.098   1.657   1.852 -2.8360  1.2836 -2.1075
18488TIP3    H276956   5.156   1.596   1.726 -0.8031  1.1865 -1.1412
18489TIP3   OH276957   3.027   3.374  15.896  0.1108 -0.0662  0.1407
18489TIP3    H176958   2.972   3.299  15.872 -0.0677  0.1836 -0.2389
18489TIP3    H276959   3.095   3.337  15.952 -0.0866 -0.4801  0.1121
18490TIP3   OH276960   4.807   5.760  10.910  0.3086  0.0130  0.0068
18490TIP3    H176961   4.832   5.763  11.002  1.0335 -1.3128 -0.1421
18490TIP3    H276962   4.886   5.731  10.865 -0.1314  0.3649 -1.0031
18491TIP3   OH276963   4.974   4.155   5.407  0.2447 -0.4312 -0.3665
18491TIP3    H176964   4.887   4.127   5.436  1.0616 -1.0275  1.6017
18491TIP3    H276965   5.009   4.080   5.360  0.3712 -0.8143  0.3398
18492TIP3   OH276966   5.351   6.173  12.200 -0.1600 -0.7583 -0.1413
18492TIP3    H176967   5.447   6.165  12.199 -0.1091 -0.4598  0.9376
18492TIP3    H276968   5.320   6.083  12.201  0.1071 -0.8576 -0.5422
18493TIP3   OH276969   5.804   4.345   2.710  0.4500 -0.1607 -0.4683
18493TIP3    H176970   5.802   4.255   2.742 -2.3378  0.5416  1.5703
18493TIP3    H276971   5.896   4.371   2.717  1.0329 -2.3546  0.3694
18494TIP3   OH276972   0.693   5.956   2.450  0.8958 -0.2096 -0.2601
18494TIP3    H176973   0.615   5.993   2.491  0.6807  0.3900 -1.1768
18494TIP3    H276974   0.722   6.024   2.389  3.2395  0.3375  1.3997
18495TIP3   OH276975   3.257   5.121   0.526 -0.6437  0.8285  0.1095
18495TIP3    H176976   3.198   5.179   0.478 -0.0213  1.3195 -0.0830
18495TIP3    H276977   3.202   5.048   0.555 -1.6134  1.9757  1.1500
18496TIP3   OH276978   6.604   1.270   3.555  0.4449  1.1828 -0.1815
18496TIP3    H176979   6.515   1.247   3.531  0.7663 -2.6574  2.0026
18496TIP3    H276980   6.658   1.198   3.521  2.1632  1.1884  2.3718
18497TIP3   OH276981   3.459   3.811   5.448 -0.5738  0.1845  0.7073
18497TIP3    H176982   3.524   3.780   5.511 -0.9877 -0.9522  0.5848
18497TIP3    H276983   3.459   3.906   5.458  1.5576  0.2380  0.2480
18498TIP3   OH276984   2.255   6.778   0.973  0.4725  0.2551 -0.0289
18498TIP3    H176985   2.182   6.839   0.966  0.9731  0.8906  0.2576
18498TIP3    H276986   2.223   6.709   1.031 -0.2812 -0.0360 -0.7744
18499TIP3   OH276987   5.270   5.951   6.469 -0.6877 -0.2231 -0.0378
18499TIP3    H176988   5.283   5.962   6.563 -1.9292 -0.1974  0.1290
18499TIP3    H276989   5.287   5.858   6.453 -0.5068 -0.2320  0.2125
18500TIP3   OH276990   2.784   1.727  12.798 -0.1063 -0.0448  0.2241
18500TIP3    H176991   2.689   1.726  12.799 -0.1307  0.8637 -0.3469
18500TIP3    H276992   2.808   1.792  12.865  0.1505 -1.2111  1.2936
18501TIP3   OH276993   4.004   0.065   4.244 -0.2313  0.6930  0.1194
18501TIP3    H176994   3.948   0.119   4.299 -0.5119  0.1029  0.4121
18501TIP3    H276995   4.077   0.123   4.220 -1.3477  1.6920 -0.9047
18502TIP3   OH276996   3.035   2.374  15.513 -0.5388  0.1367  0.0999
18502TIP3    H176997   3.089   2.445  15.481 -0.7456 -0.0875 -0.7580
18502TIP3    H276998   3.074   2.295  15.476  0.0240 -0.2661  1.4933
18503TIP3   OH276999   2.072   1.581  14.785  0.6766  0.2808  0.1547
18503TIP3    H177000   2.023   1.576  14.703  0.9249  2.6772 -0.1735
18503TIP3    H277001   2.018   1.535  14.849 -0.3184 -0.1295 -0.9663
18504TIP3   OH277002   0.546   3.306   0.251 -0.0795  0.0943  0.1573
18504TIP3    H177003   0.505   3.373   0.197  1.3400  0.9449  0.1007
18504TIP3    H277004   0.590   3.248   0.189 -2.4549 -1.7225  0.1130
18505TIP3   OH277005   4.278   4.155   3.920 -0.4445  0.4441 -0.1039
18505TIP3    H177006   4.353   4.145   3.862 -0.2630 -1.0233  0.3808
18505TIP3    H277007   4.245   4.067   3.934 -1.5784  0.9561  0.5957
18506TIP3   OH277008   4.074   1.161  13.231 -0.3184 -0.0388 -0.7601
18506TIP3    H177009   3.985   1.142  13.260 -0.1151  0.9888  0.5654
18506TIP3    H277010   4.126   1.086  13.259 -0.6882 -0.4492 -1.1711
18507TIP3   OH277011   2.384   4.576   2.297  0.0594  0.4102  0.3577
18507TIP3    H177012   2.369   4.664   2.262 -1.4686  0.3436  0.8147
18507TIP3    H277013   2.379   4.519   2.220 -3.8677  0.2000  0.6941
18508TIP3   OH277014   1.645   1.782  12.047  0.1998 -0.3313 -0.4859
18508TIP3    H177015   1.703   1.783  11.971 -1.7318  0.2599 -1.9739
18508TIP3    H277016   1.558   1.769  12.011 -1.2689  3.8065  1.2652
18509TIP3   OH277017   5.142   4.564  11.861 -0.3318  0.4962  0.0548
18509TIP3    H177018   5.086   4.588  11.935  1.1479  1.9845  0.7190
18509TIP3    H277019   5.082   4.557  11.787 -1.5833  0.7081  1.0264
18510TIP3   OH277020   6.400   4.934  17.012 -0.3850 -0.0532 -0.0247
18510TIP3    H177021   6.472   4.871  17.010  0.1608  0.5754 -0.6789
18510TIP3    H277022   6.342   4.907  16.941  1.3008  1.8254 -2.2130
18511TIP3   OH277023   1.100   1.093   4.635  0.0746  0.1570 -0.2790
18511TIP3    H177024   1.192   1.091   4.610  0.7763  0.1202  2.1494
18511TIP3    H277025   1.100   1.126   4.725 -2.1218 -1.4190  0.3488
18512TIP3   OH277026   4.192   0.037  16.560 -0.2250 -0.7085  0.0623
18512TIP3    H177027   4.266   0.097  16.558 -0.7931 -0.0327 -0.6595
18512TIP3    H277028   4.171   0.029  16.653 -0.8129  1.0324  0.0845
18513TIP3   OH277029   3.642   2.535   2.527  0.3761 -0.0649  0.0816
18513TIP3    H177030   3.631   2.600   2.596  0.7622 -0.5321  0.5882
18513TIP3    H277031   3.595   2.458   2.559  0.2654 -0.1698 -0.3315
18514TIP3   OH277032   2.669   5.736  15.301 -0.3482  0.3066 -0.0261
18514TIP3    H177033   2.745   5.794  15.300 -2.0279  2.5979  0.3579
18514TIP3    H277034   2.669   5.698  15.389  0.8879 -0.4843 -0.3534
18515TIP3   OH277035   3.600   0.680   0.621 -0.3089  0.1370 -0.1273
18515TIP3    H177036   3.625   0.723   0.703 -0.7098  0.9485 -0.4192
18515TIP3    H277037   3.586   0.588   0.645  2.6387 -0.2956  0.0946
18516TIP3   OH277038   0.255   4.362  13.436 -0.1111  0.3054  0.0587
18516TIP3    H177039   0.286   4.277  13.406 -2.1570 -0.3193 -0.3599
18516TIP3    H277040   0.198   4.393  13.366 -1.2024  0.9686  1.2113
18517TIP3   OH277041   4.838   6.389   4.342 -0.1575  0.0887  0.7053
18517TIP3    H177042   4.886   6.471   4.331 -2.1520  1.3053  0.8556
18517TIP3    H277043   4.775   6.388   4.270 -1.4966 -0.3365  1.8663
18518TIP3   OH277044   2.368   6.604   4.563  0.6689 -0.5734  0.5376
18518TIP3    H177045   2.425   6.567   4.630  1.4425  1.1035  0.8438
18518TIP3    H277046   2.337   6.529   4.513  2.9211 -1.5468  0.5469
18519TIP3   OH277047   6.517   3.066   3.454 -0.8383 -0.3383 -0.5320
18519TIP3    H177048   6.476   3.016   3.383  0.8929 -0.8891 -1.1505
18519TIP3    H277049   6.446   3.121   3.488 -2.3298 -1.9577 -0.9690
18520TIP3   OH277050   2.698   1.238  15.990  0.2384 -0.1058 -0.3673
18520TIP3    H177051   2.722   1.275  15.905 -0.6375  2.6114  0.5030
18520TIP3    H277052   2.702   1.312  16.050  0.4512 -1.9083  1.8981
18521TIP3   OH277053   3.288   4.797  12.257 -0.0193  0.4607 -1.1237
18521TIP3    H177054   3.326   4.878  12.222 -0.6154  1.7378  1.0966
18521TIP3    H277055   3.337   4.781  12.338 -1.0920 -0.4092 -0.6346
18522TIP3   OH277056   6.015   0.010   1.934  0.5828 -0.3062 -0.3580
18522TIP3    H177057   6.107  -0.013   1.923  1.0131  1.2890 -0.3495
18522TIP3    H277058   6.011   0.102   1.908 -0.7033  0.0816  1.1090
18523TIP3   OH277059   5.612   0.660   4.598 -0.1542 -0.4076 -0.6412
18523TIP3    H177060   5.591   0.734   4.654 -0.0900 -1.7101  1.1422
18523TIP3    H277061   5.704   0.673   4.575 -0.5661  0.8776 -1.6376
18524TIP3   OH277062   3.080   4.491   1.608 -0.0323 -0.1460  0.7742
18524TIP3    H177063   3.108   4.548   1.536  1.0386  0.4357  1.6402
18524TIP3    H277064   3.080   4.403   1.570  0.3892  0.1720  0.0295
18525TIP3   OH277065   5.810   6.621   4.155 -0.6283  0.2333  0.1732
18525TIP3    H177066   5.874   6.622   4.084 -0.4080  2.1497  0.3857
18525TIP3    H277067   5.851   6.670   4.226 -2.3783  1.6059  0.2745
18526TIP3   OH277068   1.771   1.189   1.337  0.2642 -0.1033 -0.1243
18526TIP3    H177069   1.725   1.264   1.373 -1.7596  0.0317 -2.8746
18526TIP3    H277070   1.835   1.226   1.277 -0.2985 -0.5578 -1.0039
18527TIP3   OH277071   6.632   5.013   0.526 -0.2243  0.5263 -0.0460
18527TIP3    H177072   6.716   5.056   0.542  0.3896 -1.0664  1.2045
18527TIP3    H277073   6.638   4.931   0.575 -2.8528  0.7671  0.7499
18528TIP3   OH277074   2.066   3.673  16.097 -0.3961  0.2600 -0.4280
18528TIP3    H177075   2.036   3.673  16.188  0.9661  0.3121  0.0276
18528TIP3    H277076   2.129   3.745  16.092 -0.4624  0.2561 -1.4178
18529TIP3   OH277077   6.725   0.385   4.767  0.5243  0.3501  0.3721
18529TIP3    H177078   6.663   0.385   4.840 -0.1975  0.3779 -0.2225
18529TIP3    H277079   6.722   0.475   4.733  1.2980  0.4877  0.6791
18530TIP3   OH277080   1.397   1.937  16.408  0.0289  0.1933 -0.0641
18530TIP3    H177081   1.459   1.933  16.334  0.9787 -3.2744  0.8419
18530TIP3    H277082   1.311   1.947  16.366  0.5621 -1.6116 -1.6854
18531TIP3   OH277083   0.461   1.336  16.083 -0.2475  0.3417  0.2743
18531TIP3    H177084   0.518   1.322  16.007  0.1236 -1.4913  0.8652
18531TIP3    H277085   0.376   1.359  16.046 -0.5308 -2.2283 -0.7724
18532TIP3   OH277086   2.911   3.944   5.447  0.0638 -0.1479  0.6237
18532TIP3    H177087   2.859   4.017   5.479 -0.7861 -0.3157 -0.3411
18532TIP3    H277088   2.981   3.986   5.396  0.2657  0.0319  1.0425
18533TIP3   OH277089   4.920   0.158  14.377  0.0007  0.1554  0.0273
18533TIP3    H177090   4.930   0.196  14.464  0.8386  0.9366 -0.4063
18533TIP3    H277091   4.971   0.077  14.381  0.4557  0.4441  0.1042
18534TIP3   OH277092   2.804   6.100   4.642 -0.2681 -0.4869 -0.2416
18534TIP3    H177093   2.805   6.022   4.587  1.4344 -0.9260  0.3938
18534TIP3    H277094   2.893   6.107   4.677  0.3406  3.0421 -2.1688
18535TIP3   OH277095   0.382   3.545   1.219  0.3422  0.0045 -0.0003
18535TIP3    H177096   0.431   3.465   1.238 -0.6105 -0.6527 -0.2394
18535TIP3    H277097   0.438   3.595   1.160 -0.1956 -1.7627 -2.0625
18536TIP3   OH277098   3.210   4.570   0.733 -0.3382  0.1485  0.3351
18536TIP3    H177099   3.140   4.575   0.798 -1.7410  1.0764 -1.1917
18536TIP3    H277100   3.171   4.524   0.658  0.6374  0.7759 -0.5848
18537TIP3   OH277101   6.606   0.776  15.878 -0.3092  0.1343 -0.1346
18537TIP3    H177102   6.602   0.799  15.785  0.8723 -0.7407 -0.4050
18537TIP3    H277103   6.644   0.689  15.880  1.2589  0.8257  1.2669
18538TIP3   OH277104   1.947   5.679   2.770 -0.2506 -0.0375  0.2866
18538TIP3    H177105   1.912   5.592   2.789 -2.0982  1.0397  2.0574
18538TIP3    H277106   2.040   5.673   2.791 -0.9766 -0.7218  3.5475
18539TIP3   OH277107   1.577   3.721  13.101 -0.6839 -0.3399 -0.0767
18539TIP3    H177108   1.534   3.653  13.153 -0.6424  0.4529  1.0238
18539TIP3    H277109   1.653   3.746  13.152 -0.5494  0.3469 -0.6041
18540TIP3   OH277110   1.680   2.351   3.592  0.2015  0.5195 -0.3192
18540TIP3    H177111   1.743   2.294   3.635 -1.1196 -0.3249  0.5082
18540TIP3    H277112   1.596   2.330   3.632 -1.0922 -0.3130 -3.3270
18541TIP3   OH277113   6.470   0.657  14.143 -0.1066 -0.7345  0.1519
18541TIP3    H177114   6.539   0.620  14.199 -1.2734 -1.7546  0.9384
18541TIP3    H277115   6.476   0.607  14.061 -2.2809 -3.4099  1.5403
18542TIP3   OH277116   0.707   4.046  12.176 -0.3920 -0.2061 -0.4403
18542TIP3    H177117   0.789   4.026  12.132 -1.3353 -0.6123 -2.0783
18542TIP3    H277118   0.653   4.087  12.108 -0.7868  2.0030  1.1716
18543TIP3   OH277119   1.902   6.239  11.184  0.4208 -0.2678  0.2950
18543TIP3    H177120   1.883   6.198  11.269 -2.3312 -1.0444 -0.6514
18543TIP3    H277121   1.849   6.190  11.121 -2.1578  4.0563 -1.0641
18544TIP3   OH277122   2.095   6.764   1.522 -0.1353  0.1248 -0.5701
18544TIP3    H177123   2.117   6.730   1.609  1.0612  0.5112 -0.7018
18544TIP3    H277124   2.093   6.859   1.534 -1.6939  0.1009 -0.5925
18545TIP3   OH277125   4.466   5.467   0.266  0.0621 -0.3104  0.3022
18545TIP3    H177126   4.461   5.419   0.183 -0.7547 -2.5237  1.5886
18545TIP3    H277127   4.499   5.402   0.329  0.0299  1.1497  1.8442
18546TIP3   OH277128   2.405   6.616  12.366  0.4661  0.4572 -0.5062
18546TIP3    H177129   2.392   6.545  12.305  1.9465  0.8377 -1.3042
18546TIP3    H277130   2.336   6.606  12.431 -1.0334 -0.0471 -2.1370
18547TIP3   OH277131   4.933   0.946   4.230  0.4127  0.0602 -0.4661
18547TIP3    H177132   4.863   0.881   4.221  0.9756 -0.6216  0.0467
18547TIP3    H277133   4.970   0.930   4.317  0.9676  0.6580 -0.5876
18548TIP3   OH277134   4.785   5.069  13.487  0.4586 -0.3243  0.1401
18548TIP3    H177135   4.801   5.032  13.401  0.8827  2.7485 -1.1681
18548TIP3    H277136   4.690   5.065  13.498  0.3005  0.3442 -0.9700
18549TIP3   OH277137   3.167   1.782   0.875 -0.2883  0.6517  0.0754
18549TIP3    H177138   3.141   1.794   0.966 -0.1200 -1.7984  0.4621
18549TIP3    H277139   3.249   1.831   0.866  0.0462  0.3286  1.4050
18550TIP3   OH277140   5.535   3.248  11.851  0.2498 -0.1288  0.3768
18550TIP3    H177141   5.446   3.280  11.863  0.6528  1.2525 -0.1647
18550TIP3    H277142   5.525   3.164  11.807 -0.7538  0.5044 -0.6340
18551TIP3   OH277143   1.586   1.812  16.928  0.1968  0.4179 -0.6408
18551TIP3    H177144   1.517   1.787  16.989  0.5301 -0.6078 -0.6700
18551TIP3    H277145   1.614   1.730  16.889  0.0659  1.0621 -2.1000
18552TIP3   OH277146   3.036   2.409  15.938  0.0783 -0.0624  0.1548
18552TIP3    H177147   2.978   2.367  15.874  0.4224 -0.5172  0.1338
18552TIP3    H277148   3.027   2.354  16.016 -0.4024  0.5381  0.5262
18553TIP3   OH277149   6.663   2.596  14.800 -0.4325  0.3279 -0.4312
18553TIP3    H177150   6.607   2.580  14.724 -0.3662  0.9601 -0.6201
18553TIP3    H277151   6.746   2.625  14.762 -0.9420  2.2895 -0.0843
18554TIP3   OH277152   0.401   4.847  16.191 -0.3139 -0.0403 -0.1521
18554TIP3    H177153   0.446   4.845  16.106  0.8586  1.1360  0.4346
18554TIP3    H277154   0.341   4.921  16.184 -1.2536 -0.8199 -0.4619
18555TIP3   OH277155   2.749   3.612  17.131  0.6341  0.1650  0.2915
18555TIP3    H177156   2.787   3.587  17.047 -1.1326 -1.6161  0.0010
18555TIP3    H277157   2.821   3.600  17.194  1.0045 -1.6539 -0.4650
18556TIP3   OH277158   4.893   2.994   3.680 -0.0110  0.5039  0.3185
18556TIP3    H177159   4.927   2.943   3.753 -1.3050  2.3357  2.2384
18556TIP3    H277160   4.798   2.978   3.682 -0.0576  0.5748 -0.9732
18557TIP3   OH277161   1.450   2.223  14.561  0.0351  0.5777 -0.1682
18557TIP3    H177162   1.478   2.181  14.643 -1.2171  0.5599  0.2651
18557TIP3    H277163   1.481   2.313  14.568 -0.9905  0.8563  0.7941
18558TIP3   OH277164   4.051   3.206  12.116  0.0705  0.5951  0.3525
18558TIP3    H177165   4.115   3.155  12.165  0.7442  1.5496  0.4815
18558TIP3    H277166   4.082   3.296  12.124 -1.6352  1.1447  0.9430
18559TIP3   OH277167   3.406   4.525   0.461  0.6197  0.0048 -0.7068
18559TIP3    H177168   3.427   4.481   0.378  0.4696 -0.7656 -0.3393
18559TIP3    H277169   3.327   4.480   0.492  1.8390 -1.1176  0.8876
18560TIP3   OH277170   3.365   5.132  16.338 -0.0419 -0.1761  0.7824
18560TIP3    H177171   3.433   5.195  16.315 -2.8843  1.6645 -3.0766
18560TIP3    H277172   3.330   5.163  16.421  2.3491  0.0540  1.7354
18561TIP3   OH277173   4.082   2.035  12.226  0.6737 -0.0163  0.8124
18561TIP3    H177174   4.072   2.027  12.131  0.6635  1.6141  0.6659
18561TIP3    H277175   3.997   2.009  12.261  0.4342  0.1209  0.3385
18562TIP3   OH277176   5.161   3.439  15.375 -0.3069  0.6388  0.2947
18562TIP3    H177177   5.088   3.423  15.316  0.1572  0.5757 -0.2639
18562TIP3    H277178   5.203   3.519  15.341  0.5402  0.0639 -0.0412
18563TIP3   OH277179   0.289   5.804   0.785 -0.3629  0.4071 -0.0306
18563TIP3    H177180   0.252   5.872   0.841  0.0975  0.2264  0.4903
18563TIP3    H277181   0.268   5.833   0.696 -3.2120 -0.4859  0.2762
18564TIP3   OH277182   3.025   2.222   6.557 -0.2325 -0.0056  0.2362
18564TIP3    H177183   3.092   2.269   6.607  0.8239 -0.7627 -0.4330
18564TIP3    H277184   3.039   2.251   6.467  0.1018 -1.2033 -0.1113
18565TIP3   OH277185   1.162   0.161   5.703  0.7151 -0.0564  0.1488
18565TIP3    H177186   1.116   0.181   5.784 -1.4305 -1.1176 -0.7624
18565TIP3    H277187   1.197   0.073   5.716  1.3668  0.2286  0.3452
18566TIP3   OH277188   6.797   1.410  14.656 -0.6303  0.1266 -0.2610
18566TIP3    H177189   6.777   1.487  14.602 -0.5882  0.0088 -0.4434
18566TIP3    H277190   6.718   1.356  14.651 -1.8046  1.5050  2.1824
18567TIP3   OH277191   0.579   3.969  11.068  0.3911  0.2704  0.0866
18567TIP3    H177192   0.515   4.040  11.063  2.7619  2.4354 -0.3233
18567TIP3    H277193   0.609   3.958  10.978  1.1821 -0.1690  0.4037
18568TIP3   OH277194   5.853   6.647   0.734  0.0683 -0.0451 -0.6400
18568TIP3    H177195   5.943   6.676   0.748 -0.6780  0.5450  3.3924
18568TIP3    H277196   5.851   6.558   0.770 -1.1292  0.2305 -0.0148
18569TIP3   OH277197   1.372   1.688  17.042  0.9970 -0.4874 -0.0929
18569TIP3    H177198   1.299   1.708  16.984 -1.3585 -0.2371  2.8014
18569TIP3    H277199   1.333   1.639  17.114  3.2778  1.3068  2.5235
18570TIP3   OH277200   2.959   5.663  11.160 -0.0637 -0.0008 -0.0495
18570TIP3    H177201   2.992   5.613  11.085  0.2219  0.8424 -0.5010
18570TIP3    H277202   3.005   5.627  11.236 -1.9872 -2.3581  0.0331
18571TIP3   OH277203   2.021   2.886  12.257 -0.3038  0.4431  0.2225
18571TIP3    H177204   2.054   2.803  12.292  1.1322  0.6868 -0.5367
18571TIP3    H277205   2.011   2.871  12.163  0.7302  1.3852 -0.0402
18572TIP3   OH277206   4.430   2.744   1.512 -0.9759  0.0200 -0.2140
18572TIP3    H177207   4.341   2.771   1.532 -0.8792  0.3573 -0.2324
18572TIP3    H277208   4.420   2.659   1.469 -1.3329  0.3562 -0.7999
18573TIP3   OH277209   2.825   3.338  13.992  0.7281 -0.6149 -0.1443
18573TIP3    H177210   2.894   3.352  14.057 -1.6872  0.9820  2.1744
18573TIP3    H277211   2.822   3.243  13.979  2.6920 -0.7705  0.4161
18574TIP3   OH277212   5.347   3.977  11.913 -0.4215 -0.0760 -0.1772
18574TIP3    H177213   5.399   3.973  11.832 -0.5058  0.6035 -0.2723
18574TIP3    H277214   5.379   3.904  11.966  0.2702  0.0227 -0.4492
18575TIP3   OH277215   4.494   5.716   2.811 -0.1837 -0.9997  0.3575
18575TIP3    H177216   4.484   5.709   2.906  0.5645 -2.2780  0.3444
18575TIP3    H277217   4.527   5.631   2.783  2.4053  0.2702 -0.6805
18576TIP3   OH277218   2.370   4.914  12.913 -0.1752 -0.4900  0.1742
18576TIP3    H177219   2.440   4.851  12.930  1.0820  0.5813 -0.9505
18576TIP3    H277220   2.383   4.984  12.977  0.2235  0.0570 -0.4990
18577TIP3   OH277221   4.470   1.453   3.371 -0.3732  0.4844 -0.2528
18577TIP3    H177222   4.382   1.437   3.405 -0.8354  1.5288 -0.9209
18577TIP3    H277223   4.455   1.489   3.284  0.7729 -1.2303 -1.1615
18578TIP3   OH277224   2.468   0.716   3.917 -0.6171 -0.4862 -0.5155
18578TIP3    H177225   2.507   0.771   3.848 -1.4847  1.7331  0.7293
18578TIP3    H277226   2.458   0.774   3.992 -1.6847 -2.3268  0.8178
18579TIP3   OH277227   3.607   4.917  15.429  0.1243  0.2743 -0.3119
18579TIP3    H177228   3.663   4.927  15.505  1.1009 -1.6898 -0.7305
18579TIP3    H277229   3.665   4.935  15.354 -0.3383  0.3136 -0.6605
18580TIP3   OH277230   3.277   1.772  13.496  0.2341 -0.3014  0.3431
18580TIP3    H177231   3.299   1.863  13.479  0.0999 -0.2025  0.6917
18580TIP3    H277232   3.185   1.764  13.469  0.6561 -0.6855 -1.0055
18581TIP3   OH277233   5.899   2.656   1.003 -0.0537  0.3390 -0.4995
18581TIP3    H177234   5.956   2.661   0.926  0.1221  0.3428 -0.3705
18581TIP3    H277235   5.934   2.582   1.053  1.1015  1.6230  0.5971
18582TIP3   OH277236   2.874   6.620  16.638 -0.1723  0.4767 -0.5345
18582TIP3    H177237   2.940   6.688  16.630  0.5743 -0.1197  0.5353
18582TIP3    H277238   2.895   6.557  16.569 -0.3317  0.8703 -0.9471
18583TIP3   OH277239   4.638   5.129   2.484  0.3452 -0.0890 -0.2928
18583TIP3    H177240   4.587   5.205   2.456 -0.6956 -0.2712  1.0662
18583TIP3    H277241   4.595   5.054   2.443 -1.2792 -0.3718  1.8819
18584TIP3   OH277242   3.709   1.485  14.664  0.5942 -0.1743  0.2246
18584TIP3    H177243   3.645   1.450  14.726  0.9514  0.0301  0.7058
18584TIP3    H277244   3.773   1.530  14.718  0.9074  0.0030 -0.2931
18585TIP3   OH277245   4.704   3.675  16.085 -0.1981 -0.6251 -0.0922
18585TIP3    H177246   4.698   3.584  16.056  0.7008 -1.0784  1.0853
18585TIP3    H277247   4.784   3.677  16.139 -1.1212  0.4677  1.2466
18586TIP3   OH277248   3.167   4.791   4.002  0.4569 -0.6961 -0.3423
18586TIP3    H177249   3.105   4.863   3.990  1.2994  1.0042  4.3258
18586TIP3    H277250   3.251   4.827   3.973  0.4403 -0.5979 -0.2713
18587TIP3   OH277251   0.359   4.005   1.465  0.0892  0.0390 -0.2561
18587TIP3    H177252   0.316   4.047   1.390 -0.3804 -1.1925 -0.7052
18587TIP3    H277253   0.288   3.985   1.526  0.4107  0.6220  0.3114
18588TIP3   OH277254   5.400   4.448  13.642  0.1164  0.1792 -0.6894
18588TIP3    H177255   5.442   4.392  13.708  0.7429  1.4100 -0.0164
18588TIP3    H277256   5.469   4.510  13.617 -0.6315  0.7750 -1.2822
18589TIP3   OH277257   0.657   6.000   5.120 -0.1425 -0.0784  0.3866
18589TIP3    H177258   0.564   5.988   5.104 -0.5814  1.4069  1.6947
18589TIP3    H277259   0.673   6.092   5.102  1.0631 -0.2995  0.2607
18590TIP3   OH277260   4.899   2.579   0.976 -0.1317  0.2632 -0.0484
18590TIP3    H177261   4.831   2.619   1.030 -0.1651 -1.2756  1.1099
18590TIP3    H277262   4.855   2.507   0.931  0.1921  0.7529 -1.1610
18591TIP3   OH277263   0.095   4.884  10.724  0.5734 -0.3390  0.1076
18591TIP3    H177264   0.004   4.909  10.739 -0.0425 -1.7132 -1.2276
18591TIP3    H277265   0.090   4.796  10.688  2.4083 -0.2258 -0.4727
18592TIP3   OH277266   0.711   6.810  15.743  0.0911  0.1546 -0.0105
18592TIP3    H177267   0.715   6.809  15.839 -0.8459  0.1221  0.0313
18592TIP3    H277268   0.619   6.793  15.723 -0.4479  3.7094 -0.8470
18593TIP3   OH277269   1.441   1.598   3.575  0.2230  0.3158  0.5592
18593TIP3    H177270   1.359   1.624   3.534  0.9895  1.6155 -0.1574
18593TIP3    H277271   1.483   1.680   3.600  0.6698 -0.3871  2.1895
18594TIP3   OH277272   3.154   2.550  16.364 -0.2552  0.6241 -0.3597
18594TIP3    H177273   3.245   2.538  16.335 -0.2118 -0.5658  0.2174
18594TIP3    H277274   3.111   2.592  16.290  0.3061 -0.6587 -1.4515
18595TIP3   OH277275   6.524   2.787   1.392 -0.2045  0.0845  0.2151
18595TIP3    H177276   6.535   2.841   1.314  0.9070  0.2075  0.4519
18595TIP3    H277277   6.447   2.733   1.373 -0.2357  0.4632 -0.7595
18596TIP3   OH277278   1.436   0.386   2.537  0.9114  0.1375 -0.0469
18596TIP3    H177279   1.410   0.324   2.606  2.1204  0.0120  0.3044
18596TIP3    H277280   1.359   0.391   2.481  0.5775 -1.2456  0.2449
18597TIP3   OH277281   5.476   3.269  15.436 -0.4720  0.0125 -0.3559
18597TIP3    H177282   5.427   3.293  15.514 -1.0761  0.1641 -0.7767
18597TIP3    H277283   5.559   3.316  15.444 -0.8266  0.6135 -0.1645
18598TIP3   OH277284   5.135   3.751   5.039  0.3500  0.3706 -0.3696
18598TIP3    H177285   5.065   3.719   5.096  1.2599  1.4036  1.3757
18598TIP3    H277286   5.108   3.840   5.016  0.2876  0.1745 -1.0530
18599TIP3   OH277287   5.559   2.986  15.854 -0.3847  0.9096 -0.4416
18599TIP3    H177288   5.489   3.004  15.790 -0.1401 -1.1367 -1.3261
18599TIP3    H277289   5.518   2.930  15.919  0.4529 -0.4852 -1.0819
18600TIP3   OH277290   1.536   2.541   0.554 -0.1952 -0.2952  0.1229
18600TIP3    H177291   1.526   2.490   0.634  2.1502 -1.6382 -0.4062
18600TIP3    H277292   1.486   2.493   0.488 -0.9786  0.0720  0.4342
18601TIP3   OH277293   2.689   2.793   0.457 -0.8354 -0.1409 -0.1162
18601TIP3    H177294   2.616   2.806   0.517 -0.4004 -3.6048  1.2738
18601TIP3    H277295   2.761   2.842   0.496 -0.7597 -1.7536  1.8009
18602TIP3   OH277296   3.696   2.837   2.875  0.2988  0.3329  0.2459
18602TIP3    H177297   3.766   2.848   2.811  0.2047 -1.3405 -0.1728
18602TIP3    H277298   3.739   2.796   2.950 -0.3245 -1.2018 -0.2240
18603TIP3   OH277299   5.142   0.954  17.032  0.5410 -0.8759  0.4874
18603TIP3    H177300   5.068   0.925  16.978  0.7008  2.1352 -1.4777
18603TIP3    H277301   5.219   0.916  16.990  0.4754 -0.2523 -0.2175
18604TIP3   OH277302   0.838   0.058   6.236  0.3525  0.2802  0.5058
18604TIP3    H177303   0.866   0.124   6.172 -0.5486  1.2558  1.0840
18604TIP3    H277304   0.760   0.018   6.197  1.4114 -1.0886 -0.2447
18605TIP3   OH277305   1.654   3.080  13.200  0.1896  0.0725 -0.6260
18605TIP3    H177306   1.658   3.049  13.110  0.5479 -0.0731 -0.5609
18605TIP3    H277307   1.744   3.072  13.233 -0.1382 -0.8897  0.0808
18606TIP3   OH277308   5.884   6.399   0.869 -0.7813 -0.0542 -0.4541
18606TIP3    H177309   5.850   6.413   0.957 -3.4610 -2.5122 -1.0118
18606TIP3    H277310   5.943   6.325   0.878  0.3026  0.8065 -0.4344
18607TIP3   OH277311   0.834   2.830  15.238 -0.2862 -0.1254  0.8057
18607TIP3    H177312   0.755   2.883  15.225 -0.2496 -0.4479 -0.8645
18607TIP3    H277313   0.901   2.874  15.185 -0.4159 -2.1748 -1.1058
18608TIP3   OH277314   4.256   3.566  13.745  0.0285  0.6985 -0.3202
18608TIP3    H177315   4.187   3.605  13.691 -0.4574 -1.0056 -0.9727
18608TIP3    H277316   4.286   3.490  13.695  1.4723  0.6670  0.5681
18609TIP3   OH277317   0.595   2.687   3.554  0.4633 -0.0688  0.0751
18609TIP3    H177318   0.682   2.724   3.544  1.4395 -2.4588 -0.5822
18609TIP3    H277319   0.584   2.629   3.478 -1.7488  0.3197  0.0602
18610TIP3   OH277320   5.295   2.476  14.310 -0.2312 -0.1424  0.3484
18610TIP3    H177321   5.201   2.461  14.307 -0.0087 -1.3072 -2.0128
18610TIP3    H277322   5.331   2.393  14.342  0.0814 -0.2433 -0.2485
18611TIP3   OH277323   6.594   1.099   2.531  0.6591 -0.0356 -0.0104
18611TIP3    H177324   6.526   1.146   2.579  0.3088  1.7298 -2.1587
18611TIP3    H277325   6.570   1.007   2.539 -0.6540  0.4004  1.2473
18612TIP3   OH277326   2.766   6.410  15.085 -0.1033  0.5091  0.4829
18612TIP3    H177327   2.732   6.491  15.123 -0.6892  1.0224 -1.0854
18612TIP3    H277328   2.857   6.408  15.112 -0.4506  0.9420  1.7557
18613TIP3   OH277329   5.651   0.745   4.277 -0.1928  0.6701  0.0329
18613TIP3    H177330   5.694   0.797   4.346  1.0493 -1.2320  0.7450
18613TIP3    H277331   5.716   0.740   4.207  0.1885 -0.9068  0.4728
18614TIP3   OH277332   4.334   6.473  16.899  0.1544 -0.0590  0.0703
18614TIP3    H177333   4.319   6.419  16.977 -0.5044  0.6787  0.4673
18614TIP3    H277334   4.248   6.513  16.882  0.7595  1.2551  0.0830
18615TIP3   OH277335   5.142   1.151  15.209 -0.3446 -0.1165 -0.6061
18615TIP3    H177336   5.212   1.111  15.157  0.8174  1.9239 -0.6765
18615TIP3    H277337   5.168   1.138  15.300  0.8733  1.8639 -0.6480
18616TIP3   OH277338   1.820   5.634  17.147  0.0621  0.2700  0.0174
18616TIP3    H177339   1.831   5.631  17.242 -2.8005  1.0642  0.4141
18616TIP3    H277340   1.826   5.543  17.119 -0.8359 -0.1624  1.1956
18617TIP3   OH277341   2.830   4.915   1.349 -0.4281  0.2203  0.7606
18617TIP3    H177342   2.847   4.867   1.430  3.0823 -1.0861 -0.6568
18617TIP3    H277343   2.893   4.987   1.350  0.5323 -0.5451 -1.3400
18618TIP3   OH277344   5.516   3.641  15.521  0.2424  0.2904  0.5074
18618TIP3    H177345   5.514   3.564  15.577  0.9767  0.6717  1.0699
18618TIP3    H277346   5.609   3.662  15.511  0.2440 -0.9007 -2.4305
18619TIP3   OH277347   2.643   0.164   2.006 -0.6088 -0.1929 -0.3259
18619TIP3    H177348   2.570   0.177   2.066  0.7706  0.0476  1.3057
18619TIP3    H277349   2.601   0.134   1.925 -2.5022 -0.1911  0.6207
18620TIP3   OH277350   3.098   1.044   1.217 -0.4046 -0.1703 -0.4206
18620TIP3    H177351   3.155   1.087   1.281  0.2386 -0.8266 -0.5420
18620TIP3    H277352   3.020   1.099   1.213  0.8472  1.5833 -1.3855
18621TIP3   OH277353   4.758   2.279  16.505 -0.1465 -0.3029 -0.5376
18621TIP3    H177354   4.666   2.297  16.484 -0.8799 -1.9641  1.0818
18621TIP3    H277355   4.795   2.365  16.523 -1.5871  0.3277 -0.4981
18622TIP3   OH277356   0.446   1.839  17.223  0.0875  0.2567 -0.0145
18622TIP3    H177357   0.508   1.773  17.254  0.1800  0.1654 -0.3816
18622TIP3    H277358   0.365   1.791  17.209  0.4717 -0.0211 -1.3872
18623TIP3   OH277359   3.238   6.182  12.698 -0.1065 -0.7244 -0.1674
18623TIP3    H177360   3.257   6.209  12.788 -1.5630 -0.9662  0.2257
18623TIP3    H277361   3.159   6.129  12.706 -0.0056 -1.0785 -1.5450
18624TIP3   OH277362   2.480   2.009  10.790  0.4241  0.2981 -0.5263
18624TIP3    H177363   2.415   2.077  10.808 -0.0272 -0.0958 -0.6435
18624TIP3    H277364   2.428   1.935  10.759  1.0057  0.2440 -1.3801
18625TIP3   OH277365   3.662   4.327  14.800  1.1464 -0.2590 -0.0216
18625TIP3    H177366   3.699   4.294  14.719  0.0055 -0.3320 -0.5230
18625TIP3    H277367   3.681   4.259  14.865  0.7352 -0.8966 -0.5646
18626TIP3   OH277368   5.829   5.284   4.981 -0.0235 -0.3045 -0.0385
18626TIP3    H177369   5.781   5.358   5.019 -0.8258 -1.0597  0.4262
18626TIP3    H277370   5.774   5.254   4.909  0.0179 -0.8290  0.1501
18627TIP3   OH277371   4.041   5.575  11.486 -0.5600  0.1114  0.4252
18627TIP3    H177372   4.047   5.641  11.555 -1.8527  2.2178 -1.4074
18627TIP3    H277373   4.130   5.565  11.454  0.0074 -0.7051  2.1900
18628TIP3   OH277374   2.082   0.619   6.286  0.1246 -0.1250 -0.1939
18628TIP3    H177375   2.108   0.708   6.263 -0.4796 -0.1880 -1.1597
18628TIP3    H277376   2.142   0.594   6.356 -0.7034  1.6067  1.1903
18629TIP3   OH277377   1.702   3.730  16.387  0.1120  0.2761 -0.0315
18629TIP3    H177378   1.653   3.759  16.464 -1.7984 -0.0928 -1.0955
18629TIP3    H277379   1.663   3.777  16.314  1.6385  0.3015 -0.8528
18630TIP3   OH277380   4.728   3.265   2.864 -0.7571  0.0428  0.0091
18630TIP3    H177381   4.687   3.350   2.848 -0.7456  0.0367 -0.0506
18630TIP3    H277382   4.771   3.242   2.782 -0.8009 -0.0436  0.0100
18631TIP3   OH277383   4.948   6.336  12.975 -0.0236  0.5314  0.1252
18631TIP3    H177384   4.900   6.283  13.039 -0.5037  1.9758  0.9835
18631TIP3    H277385   4.906   6.316  12.891 -0.1060 -0.5527  0.4267
18632TIP3   OH277386   0.614   2.071   0.321  0.4209  0.6934 -0.3927
18632TIP3    H177387   0.582   2.159   0.303  0.0636  0.8029  0.7434
18632TIP3    H277388   0.709   2.080   0.320  0.4088  0.6854 -2.2256
18633TIP3   OH277389   2.220   5.151   2.254 -0.2076 -0.3573 -0.0913
18633TIP3    H177390   2.241   5.135   2.162  0.7856  1.1081 -0.1213
18633TIP3    H277391   2.129   5.180   2.253  0.2205  0.9697 -0.7424
18634TIP3   OH277392   3.005   6.266   5.357 -0.9649  0.8292 -0.3051
18634TIP3    H177393   3.082   6.231   5.312 -1.5709 -0.4320 -0.3762
18634TIP3    H277394   2.951   6.189   5.375 -0.9063  1.3508  2.2617
18635TIP3   OH277395   3.283   5.661   2.993  0.5266 -0.4916 -0.3025
18635TIP3    H177396   3.264   5.645   2.901  0.2513  0.4819 -0.4204
18635TIP3    H277397   3.247   5.585   3.038 -0.2342 -0.4929 -0.9029
18636TIP3   OH277398   6.188   2.832  16.196 -0.1257 -0.0568 -0.0372
18636TIP3    H177399   6.195   2.765  16.128  0.5609  1.0916 -1.1082
18636TIP3    H277400   6.276   2.836  16.235  0.2355  1.2680 -0.9780
18637TIP3   OH277401   0.794   2.919  16.148  0.5291 -0.8463  0.2502
18637TIP3    H177402   0.716   2.877  16.112  1.2094 -0.0169 -2.2672
18637TIP3    H277403   0.766   2.952  16.233 -1.5122 -1.6365 -0.0801
18638TIP3   OH277404   2.449   2.915   4.992  0.4383  0.7090 -0.0764
18638TIP3    H177405   2.515   2.961   5.044  1.0249  0.0558 -0.2355
18638TIP3    H277406   2.446   2.963   4.909  0.0879  1.2595  0.2521
18639TIP3   OH277407   5.382   5.816  13.628  0.6966  0.3337 -0.1081
18639TIP3    H177408   5.384   5.792  13.535  0.9133 -0.0690  0.0017
18639TIP3    H277409   5.358   5.909  13.627  2.3979  0.7885 -0.6429
18640TIP3   OH277410   4.226   0.420   1.967  0.3332 -0.0319  0.7035
18640TIP3    H177411   4.177   0.480   2.023  2.4869  1.1425  1.3643
18640TIP3    H277412   4.182   0.336   1.978 -0.8588  0.7610  2.1133
18641TIP3   OH277413   0.569   2.271  14.876  0.1139  0.1881 -0.5095
18641TIP3    H177414   0.547   2.273  14.969 -0.9113  1.3201 -0.7725
18641TIP3    H277415   0.665   2.279  14.874  0.0147  1.6510  0.3879
18642TIP3   OH277416   1.738   1.982  16.779  0.0617 -0.2398  0.4107
18642TIP3    H177417   1.676   1.931  16.832 -1.2851  0.3743 -0.5392
18642TIP3    H277418   1.755   2.060  16.831 -1.9760  0.7997 -0.4312
18643TIP3   OH277419   0.749   0.258   5.222 -0.3993 -0.2648  0.2819
18643TIP3    H177420   0.743   0.167   5.194  2.3629 -1.3960  3.0137
18643TIP3    H277421   0.675   0.270   5.282 -0.9985 -0.5913 -0.3901
18644TIP3   OH277422   1.885   6.732  15.138 -0.2052  0.6304  0.0696
18644TIP3    H177423   1.811   6.718  15.196  1.4473  0.9455  2.3091
18644TIP3    H277424   1.890   6.827  15.127 -0.7545  0.5498 -0.9233
18645TIP3   OH277425   0.778   5.712  10.698 -0.6540  0.5140 -0.2653
18645TIP3    H177426   0.840   5.776  10.734 -0.9572 -0.8327  2.7758
18645TIP3    H277427   0.692   5.751  10.714 -0.8092 -0.3149  0.9272
18646TIP3   OH277428   3.006   1.771   4.478 -0.2346  0.2892 -0.0659
18646TIP3    H177429   3.021   1.760   4.572  0.1118  0.7521 -0.0632
18646TIP3    H277430   3.071   1.837   4.451 -0.1466 -0.0511 -0.6850
18647TIP3   OH277431   6.747   1.418  13.665 -0.5299  0.2890  0.2278
18647TIP3    H177432   6.811   1.364  13.712  0.4282  1.0835 -0.1669
18647TIP3    H277433   6.724   1.487  13.727  0.7826  1.3743 -0.4993
18648TIP3   OH277434   2.281   0.814  16.786  0.0831 -0.2462  0.1080
18648TIP3    H177435   2.254   0.905  16.794 -0.2826 -0.3212 -0.2727
18648TIP3    H277436   2.209   0.771  16.741  1.4200 -0.1444 -2.2376
18649TIP3   OH277437   4.097   2.171   0.920  0.2962  0.3010  0.0317
18649TIP3    H177438   4.061   2.260   0.920 -0.7540 -0.0659  2.7260
18649TIP3    H277439   4.021   2.115   0.904  0.3711 -0.2621  1.5673
18650TIP3   OH277440   0.293   1.109  11.369  0.8366 -0.1123 -0.2550
18650TIP3    H177441   0.222   1.045  11.362  0.3682  0.2447  1.0353
18650TIP3    H277442   0.358   1.080  11.305 -0.4135 -0.5079 -1.3538
18651TIP3   OH277443   0.740   0.618  13.137 -0.1678 -0.1999  0.1573
18651TIP3    H177444   0.763   0.660  13.220 -2.5426 -0.3995  0.9401
18651TIP3    H277445   0.649   0.641  13.122 -0.3221 -1.7155 -1.4630
18652TIP3   OH277446   4.462   3.223   1.108 -0.2968  0.3070 -0.7344
18652TIP3    H177447   4.486   3.305   1.151  0.2326  0.8923 -2.1379
18652TIP3    H277448   4.436   3.165   1.180 -0.7322  1.7152  0.2523
18653TIP3   OH277449   3.575   1.779  13.478 -0.2693  0.1551  0.4162
18653TIP3    H177450   3.507   1.787  13.545  0.1320  0.6359  0.7746
18653TIP3    H277451   3.546   1.837  13.407 -0.2068  0.4024  0.5914
18654TIP3   OH277452   4.423   4.151   4.326  0.1327  0.9677  0.1441
18654TIP3    H177453   4.407   4.095   4.402 -0.4584  1.2777  0.2514
18654TIP3    H277454   4.460   4.092   4.261  2.5299  1.0960  1.3436
18655TIP3   OH277455   2.923   1.699  12.565 -0.1331 -0.1024 -0.0359
18655TIP3    H177456   2.864   1.720  12.638  1.9711 -0.3670  1.7975
18655TIP3    H277457   2.988   1.641  12.604 -0.5761 -2.5623 -2.8305
18656TIP3   OH277458   3.822   0.371  14.586  0.0792 -0.4853  0.3355
18656TIP3    H177459   3.821   0.321  14.505  1.6063 -0.8156  0.5160
18656TIP3    H277460   3.730   0.373  14.614 -0.4867 -0.1695 -1.5049
18657TIP3   OH277461   2.705   6.176   0.510 -0.5067  0.1563  0.2373
18657TIP3    H177462   2.734   6.197   0.599 -0.4127 -1.6581  0.6546
18657TIP3    H277463   2.778   6.126   0.473  0.3735  2.7117 -1.6228
18658TIP3   OH277464   5.148   2.931  13.869  0.2595 -0.1435 -0.3053
18658TIP3    H177465   5.228   2.981  13.862 -0.9736  2.4301  2.8861
18658TIP3    H277466   5.173   2.850  13.914  1.0619  0.6686  0.7112
18659TIP3   OH277467   5.209   0.518   5.036  0.5155 -0.2843  0.0146
18659TIP3    H177468   5.198   0.426   5.013  0.3215 -0.1221 -0.5593
18659TIP3    H277469   5.159   0.566   4.970  0.3998  0.2239  0.4626
18660TIP3   OH277470   1.568   2.663  11.775 -0.4083 -0.2777 -0.3197
18660TIP3    H177471   1.594   2.728  11.839 -0.2865  0.3368 -0.9882
18660TIP3    H277472   1.650   2.623  11.747 -0.3753  0.1681 -0.8520
18661TIP3   OH277473   6.453   0.147   4.234  0.2437 -0.1893 -0.0936
18661TIP3    H177474   6.483   0.072   4.183 -1.2374 -0.1044 -1.1055
18661TIP3    H277475   6.531   0.204   4.240  0.4699 -0.2268 -2.2163
18662TIP3   OH277476   3.111   1.762   6.489 -0.3137  0.5303 -0.0363
18662TIP3    H177477   3.183   1.701   6.472 -1.6997 -0.6531 -1.8830
18662TIP3    H277478   3.146   1.847   6.461  0.3205 -0.0639 -1.1135
18663TIP3   OH277479   4.915   2.658  16.286  0.5542  0.4179 -0.5246
18663TIP3    H177480   4.947   2.640  16.198  0.8646 -1.8586  0.0279
18663TIP3    H277481   4.834   2.608  16.293 -0.1538  1.6133  0.0606
18664TIP3   OH277482   3.249   2.887  16.269  0.1427  0.0572 -0.3563
18664TIP3    H177483   3.238   2.851  16.181  0.0923  1.1108 -0.7852
18664TIP3    H277484   3.159   2.904  16.299  0.1217 -0.9346  0.1771
18665TIP3   OH277485   6.335   3.819  14.269  0.0652  0.3484 -0.6784
18665TIP3    H177486   6.427   3.798  14.251  0.0539  0.6947 -1.1581
18665TIP3    H277487   6.297   3.834  14.182 -0.1014  1.6231 -0.3966
18666TIP3   OH277488   2.227   6.164   5.966  0.5622  0.0608 -0.4545
18666TIP3    H177489   2.168   6.089   5.972  1.6455 -0.9428 -1.9595
18666TIP3    H277490   2.211   6.214   6.047 -0.8059 -1.3034  0.1379
18667TIP3   OH277491   4.527   1.084   4.329  0.5765  0.0167  0.2284
18667TIP3    H177492   4.500   1.175   4.336 -0.4487 -0.2411 -0.1975
18667TIP3    H277493   4.586   1.081   4.255 -1.0355 -0.0175 -1.0901
18668TIP3   OH277494   6.810   6.510   3.174 -0.1807  0.6197  0.1510
18668TIP3    H177495   6.823   6.439   3.237  0.3398  0.8063  0.2529
18668TIP3    H277496   6.728   6.488   3.130 -1.0460  0.9586  1.5482
18669TIP3   OH277497   5.057   3.182  11.369  0.3464 -0.6205  0.1967
18669TIP3    H177498   5.105   3.201  11.288 -1.7364 -1.6414 -1.3227
18669TIP3    H277499   5.120   3.136  11.424  2.2685  1.4196 -0.1995
18670TIP3   OH277500   2.567   3.296  11.897 -0.5654  0.2263 -0.0071
18670TIP3    H177501   2.607   3.374  11.858 -0.0980  0.9884  1.9200
18670TIP3    H277502   2.638   3.253  11.944 -0.6922 -1.7090 -1.5273
18671TIP3   OH277503   5.236   3.820   0.190 -0.5698 -0.2896 -0.1430
18671TIP3    H177504   5.189   3.824   0.274 -1.4149 -1.5845 -0.5359
18671TIP3    H277505   5.289   3.899   0.189 -2.3259  0.9333  0.5727
18672TIP3   OH277506   6.700   2.363   2.531 -0.3987  0.3276 -0.0022
18672TIP3    H177507   6.634   2.295   2.518  0.2522  0.0045 -1.8549
18672TIP3    H277508   6.664   2.440   2.485  0.2835  0.2832 -0.6266
18673TIP3   OH277509   6.154   5.485  13.825 -0.2662 -0.0456  0.4969
18673TIP3    H177510   6.129   5.542  13.899  1.2615  1.8452 -0.4100
18673TIP3    H277511   6.086   5.501  13.760 -0.3507  0.0364  0.6046
18674TIP3   OH277512   2.089   2.008  15.746 -0.1803 -0.7196  0.3783
18674TIP3    H177513   2.100   2.025  15.652  1.6407  0.2356  0.7369
18674TIP3    H277514   2.031   2.078  15.776 -1.9265 -1.8470 -0.2724
18675TIP3   OH277515   3.486   0.744  16.580 -0.2340  0.4508  0.0927
18675TIP3    H177516   3.443   0.729  16.496  2.4255 -0.4585 -1.1459
18675TIP3    H277517   3.502   0.656  16.615 -0.4215  0.8042  1.0746
18676TIP3   OH277518   0.372   3.258  16.564 -0.0366 -0.0968 -0.2255
18676TIP3    H177519   0.352   3.165  16.576 -3.3342  0.7149  0.9878
18676TIP3    H277520   0.452   3.272  16.615 -0.2856 -1.9921  0.7318
18677TIP3   OH277521   0.632   3.025  11.636 -0.0844  0.5846 -0.1413
18677TIP3    H177522   0.598   3.098  11.584  0.1285  2.2788  2.0058
18677TIP3    H277523   0.575   2.951  11.615 -0.5322  1.4605 -2.0881
18678TIP3   OH277524   4.103   5.101  16.991 -0.2431  0.0459 -0.7251
18678TIP3    H177525   4.182   5.156  16.996 -2.0872  2.6754  0.3930
18678TIP3    H277526   4.070   5.116  16.903  0.1813 -0.6088 -0.9967
18679TIP3   OH277527   6.519   3.861  11.940  0.4756 -0.0822 -0.0239
18679TIP3    H177528   6.599   3.842  11.889  0.1216 -0.9787 -0.2651
18679TIP3    H277529   6.448   3.851  11.876  0.0304 -1.1986  0.6327
18680TIP3   OH277530   0.919   5.201   3.476 -0.2707  0.1806  0.3863
18680TIP3    H177531   0.885   5.234   3.559 -0.9881  0.7700 -0.1433
18680TIP3    H277532   0.969   5.275   3.440 -0.8737  0.2835 -0.2289
18681TIP3   OH277533   1.870   2.087  14.832  0.3596  0.1630  0.1079
18681TIP3    H177534   1.964   2.067  14.827  0.4921  0.8220 -0.1578
18681TIP3    H277535   1.838   2.074  14.743 -0.6234 -3.8664  0.9532
18682TIP3   OH277536   2.653   1.769   2.559 -0.7294  0.1549 -0.1219
18682TIP3    H177537   2.691   1.720   2.486 -1.5141 -0.6674  0.0262
18682TIP3    H277538   2.601   1.705   2.607 -2.5042  1.3227 -0.4507
18683TIP3   OH277539   4.339   1.488   2.425  0.7624  0.0719  0.0752
18683TIP3    H177540   4.338   1.581   2.444 -2.0481  0.2715 -0.9139
18683TIP3    H277541   4.332   1.483   2.329 -0.0968 -1.1708  0.1906
18684TIP3   OH277542   2.935   0.276   3.248 -0.0730  0.5187 -0.3624
18684TIP3    H177543   2.887   0.214   3.304  0.6424 -1.2525 -1.6763
18684TIP3    H277544   3.025   0.245   3.251  0.2525  1.3789 -1.2240
18685TIP3   OH277545   2.132   0.845   4.719 -0.8766 -0.5561  0.0956
18685TIP3    H177546   2.124   0.755   4.688  1.8992 -1.4859  1.8790
18685TIP3    H277547   2.194   0.886   4.659  0.1427 -0.7167  1.0268
18686TIP3   OH277548   2.695   2.111  16.771 -0.7193 -0.0044 -0.1849
18686TIP3    H177549   2.715   2.034  16.717 -0.0059  0.1819 -0.1870
18686TIP3    H277550   2.709   2.185  16.712  0.7104  0.2337  0.4443
18687TIP3   OH277551   0.902   4.033  12.453  0.1331 -0.2923 -0.8152
18687TIP3    H177552   0.833   3.968  12.436  0.2824 -0.5934 -0.2724
18687TIP3    H277553   0.883   4.105  12.392 -0.5069 -0.4879 -0.8458
18688TIP3   OH277554   4.305   1.918  11.510 -0.4280 -0.6669  0.0818
18688TIP3    H177555   4.292   1.920  11.605 -0.6903  1.2572  0.0217
18688TIP3    H277556   4.216   1.918  11.474 -0.3131  0.1272 -0.1909
18689TIP3   OH277557   4.188   1.367   5.850 -0.4576  0.5695 -0.4720
18689TIP3    H177558   4.128   1.381   5.924  1.6071  0.0805  1.3761
18689TIP3    H277559   4.224   1.279   5.865  1.3426  1.1895 -1.0527
18690TIP3   OH277560   2.667   3.121  11.697  0.7228 -0.3317  0.2217
18690TIP3    H177561   2.615   3.171  11.760  1.2396 -0.1404  0.5018
18690TIP3    H277562   2.608   3.107  11.623  0.5266  0.5784  0.1944
18691TIP3   OH277563   0.779   4.174  11.327 -0.1047  0.3378 -0.4786
18691TIP3    H177564   0.689   4.145  11.342  0.1609 -0.0533  0.3931
18691TIP3    H277565   0.771   4.264  11.294 -0.7777  0.5550  0.2889
18692TIP3   OH277566   1.592   0.654   4.830 -0.0954  0.0879  0.0686
18692TIP3    H177567   1.671   0.618   4.789 -0.7511  0.4272 -1.5650
18692TIP3    H277568   1.571   0.594   4.901  1.6816  0.0403  0.5775
18693TIP3   OH277569   0.397   1.415   1.913  0.1257  0.1651 -0.0975
18693TIP3    H177570   0.479   1.421   1.865  0.5562  0.5462  0.6922
18693TIP3    H277571   0.355   1.500   1.900  0.2521  0.2762  0.2120
18694TIP3   OH277572   4.311   6.005  16.876  0.3604  0.5525  0.2970
18694TIP3    H177573   4.319   6.096  16.906  3.1814  0.2193  0.7058
18694TIP3    H277574   4.395   5.988  16.832 -0.3568 -1.7002 -0.2357
18695TIP3   OH277575   5.170   1.931   3.295 -0.1038  0.7796  0.1717
18695TIP3    H177576   5.248   1.878   3.310 -1.2518 -1.4873 -1.5733
18695TIP3    H277577   5.192   1.986   3.219 -0.0734  0.3760 -0.1141
18696TIP3   OH277578   6.183   5.464   3.068 -0.2975 -0.2529 -0.5219
18696TIP3    H177579   6.276   5.446   3.078 -0.3270  0.5406  1.4276
18696TIP3    H277580   6.177   5.525   2.995  0.7934  0.3172 -0.1488
18697TIP3   OH277581   0.415   1.854  15.001  0.4777 -0.4470  0.2504
18697TIP3    H177582   0.501   1.871  14.963  0.6156 -1.8501 -0.0898
18697TIP3    H277583   0.422   1.766  15.038 -0.6697 -0.3827  0.6508
18698TIP3   OH277584   5.572   0.135  11.920 -0.5785 -0.2543 -0.3527
18698TIP3    H177585   5.590   0.175  11.835  1.8253 -1.3332 -0.4169
18698TIP3    H277586   5.655   0.092  11.943 -1.8974 -1.8675  1.4917
18699TIP3   OH277587   3.769   3.616  12.806 -0.6228  0.7233  1.2559
18699TIP3    H177588   3.717   3.566  12.869 -0.2521  0.8727  1.6880
18699TIP3    H277589   3.732   3.705  12.809 -1.5350  0.3934  0.2047
18700TIP3   OH277590   3.034   6.556  11.800 -0.1626 -0.1736  0.4158
18700TIP3    H177591   3.040   6.461  11.806 -1.0167 -0.2181  0.6215
18700TIP3    H277592   2.951   6.572  11.755  0.2961  0.4580 -0.2096
18701TIP3   OH277593   3.058   1.807  12.926 -0.5554 -0.1313 -0.1626
18701TIP3    H177594   3.075   1.819  13.019  1.6335  0.0222 -0.5699
18701TIP3    H277595   3.045   1.896  12.892 -2.1439 -0.2367  0.1168
18702TIP3   OH277596   5.227   4.570   2.714 -0.0332  0.1249 -0.4743
18702TIP3    H177597   5.226   4.664   2.736  0.7964  0.3228 -1.2572
18702TIP3    H277598   5.145   4.536   2.751  0.3060  0.8803  0.9862
18703TIP3   OH277599   5.723   3.624  16.865 -0.0801 -0.4966  0.9146
18703TIP3    H177600   5.789   3.691  16.882 -0.8534  0.0940  1.6186
18703TIP3    H277601   5.642   3.672  16.850 -1.1149 -1.3017  3.5635
18704TIP3   OH277602   5.397   0.851   4.325  0.9344 -0.0819 -0.0267
18704TIP3    H177603   5.424   0.938   4.354  0.4773  0.6865 -1.8235
18704TIP3    H277604   5.466   0.822   4.267 -0.8971  0.9023 -2.7836
18705TIP3   OH277605   0.752   2.546   6.116  0.1758  0.3981  0.0137
18705TIP3    H177606   0.827   2.552   6.175 -0.5796 -3.9309  1.5909
18705TIP3    H277607   0.679   2.521   6.172 -1.2033 -1.0152 -2.3106
18706TIP3   OH277608   4.318   5.980  12.255  0.1067 -0.4000 -0.1551
18706TIP3    H177609   4.244   5.920  12.246  1.2645 -1.9034  0.0626
18706TIP3    H277610   4.371   5.943  12.326  0.0895  1.7069  1.0005
18707TIP3   OH277611   2.702   5.960   1.182  0.5807  0.0792  0.1826
18707TIP3    H177612   2.754   6.038   1.200 -2.2200  1.8503  1.0142
18707TIP3    H277613   2.699   5.955   1.086 -1.4103  2.5987  0.0693
18708TIP3   OH277614   6.014   4.325   1.221  0.4235  0.2803  0.2530
18708TIP3    H177615   6.001   4.418   1.238 -0.4348  0.3405 -0.7077
18708TIP3    H277616   6.031   4.319   1.127  0.2399 -0.5616  0.2643
18709TIP3   OH277617   4.594   4.069  12.878 -0.1571  0.2254 -0.2904
18709TIP3    H177618   4.586   3.975  12.896 -0.0950  0.0418 -1.1834
18709TIP3    H277619   4.672   4.095  12.927  0.1333 -0.3050 -0.4585
18710TIP3   OH277620   5.502   1.977   3.280  0.0239  0.3720 -0.0317
18710TIP3    H177621   5.533   2.067   3.287 -0.0471  0.2982  1.3098
18710TIP3    H277622   5.493   1.947   3.370  1.2399 -1.3939 -0.4644
18711TIP3   OH277623   5.699   1.887   4.226 -0.5415 -0.5222  0.3541
18711TIP3    H177624   5.687   1.928   4.312 -1.3091 -1.0691  0.5046
18711TIP3    H277625   5.688   1.794   4.242  1.4253 -0.8346  0.0415
18712TIP3   OH277626   1.298   2.195  15.933  0.1126 -0.5096 -0.3968
18712TIP3    H177627   1.271   2.272  15.884 -1.2114 -1.0566 -0.5543
18712TIP3    H277628   1.277   2.216  16.024  1.6081  0.0940 -0.1732
18713TIP3   OH277629   4.658   2.021  14.492 -0.4788  0.3176 -0.5219
18713TIP3    H177630   4.680   2.108  14.460  0.3432 -0.2109 -1.4162
18713TIP3    H277631   4.724   2.002  14.559 -0.6702  0.3894 -0.3120
18714TIP3   OH277632   4.711   1.763  12.826  0.2364 -0.5040 -0.0568
18714TIP3    H177633   4.806   1.772  12.817  0.3994 -1.4350  0.7105
18714TIP3    H277634   4.687   1.827  12.892  0.3876 -0.5621  0.0543
18715TIP3   OH277635   2.207   6.415   3.339 -0.2398  0.8122 -0.2664
18715TIP3    H177636   2.211   6.453   3.251 -1.6520  1.6300  0.0116
18715TIP3    H277637   2.115   6.423   3.365  0.1754  0.6227  1.3130
18716TIP3   OH277638   4.845   5.082   2.196 -0.3904 -0.3131 -0.4183
18716TIP3    H177639   4.941   5.091   2.196 -0.4557  0.7577 -2.7348
18716TIP3    H277640   4.814   5.152   2.253  0.1680 -0.0199 -0.4686
18717TIP3   OH277641   2.663   5.834  16.147 -0.6992 -0.1326 -0.3284
18717TIP3    H177642   2.750   5.864  16.173 -0.4037 -0.0756 -1.3403
18717TIP3    H277643   2.653   5.749  16.188 -0.1164 -0.1869 -0.2944
18718TIP3   OH277644   2.644   0.587   1.165  0.6355  0.4085 -0.2273
18718TIP3    H177645   2.670   0.516   1.106  0.6216 -0.1433  0.4346
18718TIP3    H277646   2.606   0.544   1.241  1.6159  1.0886  0.6637
18719TIP3   OH277647   6.027   2.685   3.885  0.2143  0.0520  0.2863
18719TIP3    H177648   5.984   2.653   3.805 -0.2924 -0.3976  0.7368
18719TIP3    H277649   6.117   2.655   3.878  0.0412 -0.4273  0.1287
18720TIP3   OH277650   0.796   4.532   4.566 -0.5993 -0.0138  0.1034
18720TIP3    H177651   0.806   4.570   4.479  0.4690  0.2102  0.3143
18720TIP3    H277652   0.741   4.454   4.552 -1.4944  0.7190 -0.5624
18721TIP3   OH277653   1.285   2.115  13.670  0.0124 -0.2434 -0.4202
18721TIP3    H177654   1.276   2.033  13.621  1.2426 -0.4359 -0.3491
18721TIP3    H277655   1.351   2.095  13.737 -1.6801 -0.0110  1.3559
18722TIP3   OH277656   2.383   0.195  11.407 -0.7769 -0.6157 -0.1488
18722TIP3    H177657   2.418   0.257  11.471 -2.1449  0.3202 -0.2965
18722TIP3    H277658   2.380   0.244  11.325  1.4449 -1.9582 -1.0946
18723TIP3   OH277659   2.073   1.555   6.102 -0.1378 -0.5237  0.2110
18723TIP3    H177660   2.154   1.526   6.144 -0.1611 -0.9161 -0.0091
18723TIP3    H277661   2.003   1.516   6.155 -0.1722 -0.7664 -0.0145
18724TIP3   OH277662   4.344   6.002   1.911  0.1839 -0.4185  0.2885
18724TIP3    H177663   4.439   5.994   1.904  0.4167  2.5086 -0.7127
18724TIP3    H277664   4.310   5.924   1.867  2.1126 -0.3321 -1.4309
18725TIP3   OH277665   1.712   4.314  11.597  0.2336  0.1754  0.2436
18725TIP3    H177666   1.627   4.271  11.586  0.6914 -0.6753 -0.0420
18725TIP3    H277667   1.703   4.397  11.551  0.7775 -1.5584 -3.1981
18726TIP3   OH277668   5.327   2.021   0.653  0.0766  0.2264 -0.0249
18726TIP3    H177669   5.389   2.092   0.638  0.1844  0.1696  0.1486
18726TIP3    H277670   5.241   2.063   0.653  0.1752  0.4279  0.5511
18727TIP3   OH277671   1.280   0.587  15.830  0.3279  0.0473 -0.2153
18727TIP3    H177672   1.224   0.590  15.908 -1.2023 -1.1935 -1.2274
18727TIP3    H277673   1.310   0.677  15.818 -1.3633  0.7115  0.4213
18728TIP3   OH277674   1.748   6.127  10.594  0.4943 -0.5115  0.1200
18728TIP3    H177675   1.705   6.104  10.512  1.8318 -1.1135 -0.4347
18728TIP3    H277676   1.698   6.082  10.662 -0.5041 -0.1694 -0.3856
18729TIP3   OH277677   3.712   0.406  11.871 -0.6018  0.1545 -0.1796
18729TIP3    H177678   3.623   0.429  11.845 -0.8553 -0.6477 -0.0360
18729TIP3    H277679   3.746   0.354  11.798 -0.7528 -0.7350  0.3674
18730TIP3   OH277680   2.489   2.010  16.979 -0.1993  0.7374  0.2531
18730TIP3    H177681   2.427   1.976  16.916 -0.0436  1.1067 -0.0996
18730TIP3    H277682   2.558   2.050  16.926 -0.4505  1.7254  0.6602
18731TIP3   OH277683   6.394   2.978   1.577 -0.1360  0.5644 -0.4194
18731TIP3    H177684   6.360   2.944   1.660 -0.7745  1.1000 -0.4622
18731TIP3    H277685   6.438   2.903   1.537  0.2978  0.3442  0.4698
18732TIP3   OH277686   2.698   0.981  11.712 -0.4580  0.0739  0.5978
18732TIP3    H177687   2.649   0.912  11.667 -0.6122 -1.3024  2.8208
18732TIP3    H277688   2.633   1.049  11.729 -0.6961  0.0156 -0.0489
18733TIP3   OH277689   1.056   2.076   5.552 -0.3909 -0.5866  0.1762
18733TIP3    H177690   0.980   2.025   5.524 -0.3413 -0.8614  0.5472
18733TIP3    H277691   1.055   2.153   5.494 -0.2535 -1.1797 -0.6141
18734TIP3   OH277692   4.943   6.206  10.421  0.4542 -0.2725 -0.7937
18734TIP3    H177693   4.984   6.121  10.437  0.7115 -0.2856 -1.4847
18734TIP3    H277694   4.877   6.188  10.353  0.3140  0.0253 -0.7382
18735TIP3   OH277695   3.164   0.492   1.836 -0.7666 -0.4584 -0.3032
18735TIP3    H177696   3.238   0.432   1.825 -0.4683 -0.2583  0.6403
18735TIP3    H277697   3.176   0.557   1.766 -1.0479 -1.4385 -1.2823
18736TIP3   OH277698   4.913   2.360  13.971  0.4938  0.1379  0.0330
18736TIP3    H177699   4.953   2.363  14.058  2.7977 -1.4530 -0.9319
18736TIP3    H277700   4.848   2.430  13.972 -0.9491 -1.1224  3.7192
18737TIP3   OH277701   6.717   3.149  13.283  0.1033  0.3901 -0.2681
18737TIP3    H177702   6.757   3.091  13.218 -1.1239 -0.8480  0.0615
18737TIP3    H277703   6.677   3.089  13.346 -1.5998  1.6162 -0.1847
18738TIP3   OH277704   6.555   5.243  13.476 -0.4520 -0.4655 -0.1669
18738TIP3    H177705   6.608   5.179  13.523 -0.6963  0.1866  1.0043
18738TIP3    H277706   6.481   5.194  13.442 -1.3503 -0.5447  1.8881
18739TIP3   OH277707   4.945   3.288  13.074 -0.6017  0.1985 -0.5846
18739TIP3    H177708   4.920   3.366  13.025 -2.2238  0.9396  1.3400
18739TIP3    H277709   4.891   3.291  13.153  0.6150 -1.9252  0.3783
18740TIP3   OH277710   4.009   6.282  13.451 -0.1273  0.8004 -0.6930
18740TIP3    H177711   4.031   6.368  13.488 -1.8379  0.6961  0.5927
18740TIP3    H277712   3.918   6.267  13.477 -0.5074 -0.4655 -2.7204
18741TIP3   OH277713   2.374   5.699   2.615  0.2566  0.3537 -0.3435
18741TIP3    H177714   2.344   5.750   2.540  0.7176  1.2752  0.0913
18741TIP3    H277715   2.469   5.694   2.603  0.3399  0.5651  0.2154
18742TIP3   OH277716   5.474   3.456   5.525 -0.4484 -0.4270  0.1345
18742TIP3    H177717   5.388   3.498   5.524 -0.6542 -0.7773  1.8236
18742TIP3    H277718   5.502   3.461   5.616  0.2295 -2.5608  0.0600
18743TIP3   OH277719   2.752   5.257   1.683  0.2700 -0.1055 -0.4302
18743TIP3    H177720   2.761   5.285   1.592 -0.5825  2.9186  0.3617
18743TIP3    H277721   2.767   5.336   1.735 -1.0144 -1.3828  2.0170
18744TIP3   OH277722   3.404   6.262  14.145  0.0177 -0.8022 -0.2520
18744TIP3    H177723   3.470   6.252  14.215 -0.6171  0.0381  0.4847
18744TIP3    H277724   3.323   6.229  14.185 -0.1007 -1.4374 -1.0125
18745TIP3   OH277725   4.612   0.354  14.495  0.1543  0.1186 -0.0470
18745TIP3    H177726   4.560   0.340  14.416  0.1832 -0.0159 -0.0413
18745TIP3    H277727   4.699   0.377  14.462 -0.0093  0.7404 -0.0575
18746TIP3   OH277728   3.883   0.038  13.750 -0.2608  0.2049  0.1474
18746TIP3    H177729   3.928   0.088  13.818 -0.1954  3.2126 -1.9992
18746TIP3    H277730   3.802   0.008  13.791 -0.3846  2.2678  1.4555
18747TIP3   OH277731   5.125   6.134  15.529 -0.5385 -0.2509  0.2613
18747TIP3    H177732   5.150   6.154  15.439 -1.7444 -2.1776 -0.5313
18747TIP3    H277733   5.031   6.116  15.524 -0.7310  0.1625  2.0094
18748TIP3   OH277734   1.484   5.409   6.058  0.2145  0.4757  0.3952
18748TIP3    H177735   1.498   5.475   5.990 -0.9828  2.0902  1.6584
18748TIP3    H277736   1.572   5.377   6.078  0.9522  2.4149  0.4436
18749TIP3   OH277737   4.615   2.563  14.953 -0.0233 -0.0386 -0.2139
18749TIP3    H177738   4.625   2.658  14.947 -0.4165  0.1638  1.9257
18749TIP3    H277739   4.702   2.532  14.981  0.1637 -0.3457 -1.1080
18750TIP3   OH277740   0.707   4.047  15.922  0.2074 -0.4574  0.4051
18750TIP3    H177741   0.642   4.114  15.943 -0.6801 -1.0492 -0.3887
18750TIP3    H277742   0.704   4.040  15.827  1.5735 -0.3653  0.3431
18751TIP3   OH277743   4.675   5.203  14.691  0.1378  0.1984 -0.0065
18751TIP3    H177744   4.747   5.241  14.741  0.0455 -1.0247  1.0980
18751TIP3    H277745   4.610   5.180  14.758 -1.0593  0.8309 -0.9369
18752TIP3   OH277746   5.036   1.536  14.672  0.7102 -0.0906  0.5157
18752TIP3    H177747   5.040   1.612  14.729 -0.1456 -1.5212  2.5320
18752TIP3    H277748   5.036   1.461  14.731  0.5218 -1.6314 -1.3846
18753TIP3   OH277749   4.372   5.953   1.119 -0.6008 -0.1708  0.0868
18753TIP3    H177750   4.426   5.886   1.160  0.2300 -0.7553 -1.8634
18753TIP3    H277751   4.292   5.907   1.093 -0.1744 -0.3487 -0.9440
18754TIP3   OH277752   5.228   2.325  14.909 -0.0783  0.0186  0.1490
18754TIP3    H177753   5.216   2.390  14.978 -1.2495 -0.6930  0.6222
18754TIP3    H277754   5.162   2.258  14.926 -0.4557 -0.1251 -1.7165
18755TIP3   OH277755   2.281   1.930  12.355 -0.4121  0.1328 -0.2967
18755TIP3    H177756   2.326   1.853  12.321  0.1227  0.2918  0.0528
18755TIP3    H277757   2.190   1.918  12.327 -0.3032 -0.5483 -0.3751
18756TIP3   OH277758   6.367   1.761  16.370  0.3035  0.1497  0.0922
18756TIP3    H177759   6.399   1.851  16.362 -0.1793  0.3142  0.0177
18756TIP3    H277760   6.396   1.733  16.457 -1.4548  1.1420  1.0348
18757TIP3   OH277761   6.062   4.874  14.397  0.0635 -0.3810 -0.3549
18757TIP3    H177762   6.144   4.829  14.418  0.4335  0.8055  0.8850
18757TIP3    H277763   6.008   4.808  14.355  0.8394 -1.7962  0.8295
18758TIP3   OH277764   4.011   5.162   3.561  0.4621 -0.2326 -0.0732
18758TIP3    H177765   3.988   5.170   3.653  0.7545 -0.6339  0.0355
18758TIP3    H277766   4.090   5.214   3.551  1.5199 -1.7253  0.3173
18759TIP3   OH277767   1.844   1.242   4.083  0.3596  0.7620  0.2287
18759TIP3    H177768   1.903   1.256   4.157  0.8312  0.2906 -0.0493
18759TIP3    H277769   1.785   1.172   4.111  0.9273  0.1583 -0.0548
18760TIP3   OH277770   5.510   3.179   0.083  0.3515  0.2185 -0.6644
18760TIP3    H177771   5.416   3.161   0.082 -0.1063  2.4917 -0.9227
18760TIP3    H277772   5.522   3.248   0.018  2.5160 -1.4285 -2.0761
18761TIP3   OH277773   1.299   6.717  13.333 -0.4587  0.1103 -0.3468
18761TIP3    H177774   1.386   6.745  13.304 -0.5486 -1.9767 -2.7665
18761TIP3    H277775   1.238   6.761  13.274 -0.8375 -1.2874 -1.0136
18762TIP3   OH277776   1.622   3.714   4.022 -0.1497  0.0818  0.2154
18762TIP3    H177777   1.632   3.768   3.943 -0.0796  1.4027  1.0996
18762TIP3    H277778   1.705   3.668   4.031 -1.4263 -2.8709 -2.4826
18763TIP3   OH277779   4.995   5.968  14.149  0.2718  0.3844  0.6953
18763TIP3    H177780   4.996   5.999  14.240  1.6903  1.8924  0.1972
18763TIP3    H277781   4.903   5.958  14.127 -0.0762 -2.4513  3.0941
18764TIP3   OH277782   5.329   3.541   3.256 -0.1592 -0.2641 -0.1005
18764TIP3    H177783   5.358   3.452   3.276 -2.1298 -0.8076  0.5000
18764TIP3    H277784   5.234   3.534   3.250 -0.3205  1.7745 -0.2334
18765TIP3   OH277785   1.020   5.613   4.943  0.2489  0.3414  0.2031
18765TIP3    H177786   0.937   5.615   4.895 -0.6725 -0.1736  1.7462
18765TIP3    H277787   1.016   5.690   5.000  1.9827  1.7919 -1.5656
18766TIP3   OH277788   4.329   0.603  12.948  0.4343  0.5822  0.0995
18766TIP3    H177789   4.362   0.608  12.858  1.1138 -1.7112  0.2037
18766TIP3    H277790   4.406   0.582  13.001 -0.1952  0.7008  1.0733
18767TIP3   OH277791   3.661   3.968  17.206  0.1981 -0.2447 -0.4869
18767TIP3    H177792   3.622   3.914  17.275  2.1716 -0.2102  0.6950
18767TIP3    H277793   3.742   3.922  17.184  0.8575  1.1304 -0.9375
18768TIP3   OH277794   2.454   1.099  11.746  0.1793  0.1083  0.4143
18768TIP3    H177795   2.431   1.190  11.763 -0.2320  0.1097 -0.1520
18768TIP3    H277796   2.420   1.081  11.659 -0.4198 -0.8266  0.8372
18769TIP3   OH277797   5.239   3.965  16.191  0.0277 -0.4951 -0.3038
18769TIP3    H177798   5.265   4.035  16.131  1.0659  0.3367  1.0694
18769TIP3    H277799   5.159   3.998  16.233 -0.6911 -1.0714 -1.2127
18770TIP3   OH277800   4.540   5.791  10.875  0.3483  0.1291  0.1264
18770TIP3    H177801   4.570   5.874  10.838 -0.2660  0.7224  0.9530
18770TIP3    H277802   4.620   5.746  10.902  0.7020  0.3195 -0.5931
18771TIP3   OH277803   4.812   6.553   2.403 -0.5482 -0.5693  0.1814
18771TIP3    H177804   4.814   6.582   2.494 -1.0685 -1.2708  0.4267
18771TIP3    H277805   4.774   6.626   2.354 -0.9039 -0.4521  0.6343
18772TIP3   OH277806   3.485   6.691   5.963  0.1417  0.5000 -0.1719
18772TIP3    H177807   3.426   6.647   6.024  0.9774 -0.4732 -0.0519
18772TIP3    H277808   3.554   6.727   6.018  1.1126 -0.7220 -0.5571
18773TIP3   OH277809   5.710   1.910  14.279 -0.0410 -0.5017  0.5972
18773TIP3    H177810   5.646   1.844  14.252 -0.5265 -0.0808  0.7211
18773TIP3    H277811   5.725   1.893  14.372 -0.1716 -0.4323  0.6304
18774TIP3   OH277812   5.735   0.038  16.252  0.4471 -0.2172  0.1485
18774TIP3    H177813   5.734   0.070  16.162  1.7167  1.9228  0.8715
18774TIP3    H277814   5.643   0.020  16.273 -0.0711  1.1918 -0.9032
18775TIP3   OH277815   6.263   0.039   1.440  0.6319 -0.1116 -0.0194
18775TIP3    H177816   6.285   0.109   1.378  0.8932 -0.1248  0.0557
18775TIP3    H277817   6.341  -0.017   1.441  0.6295 -0.1073  0.3260
18776TIP3   OH277818   3.674   3.482  12.435  0.3316  0.1422 -0.6655
18776TIP3    H177819   3.627   3.481  12.352  0.4295 -0.9682 -0.7096
18776TIP3    H277820   3.606   3.467  12.501  0.2598  0.9809 -0.5422
18777TIP3   OH277821   3.315   2.948  11.521 -0.9583 -0.4986  0.1849
18777TIP3    H177822   3.343   2.990  11.440 -0.9760 -0.4986  0.1783
18777TIP3    H277823   3.384   2.885  11.540 -0.1003  0.6639  1.0576
18778TIP3   OH277824   4.831   6.425   6.179 -0.0792  0.5197  0.3362
18778TIP3    H177825   4.860   6.375   6.102  0.5664 -0.0686  0.9471
18778TIP3    H277826   4.752   6.380   6.209 -0.8101  1.2483 -0.4677
18779TIP3   OH277827   1.505   3.447   2.226 -0.2408 -0.0033  0.5702
18779TIP3    H177828   1.528   3.456   2.319 -1.2007  0.3932  0.7762
18779TIP3    H277829   1.582   3.406   2.186  1.1708  2.0396  1.0938
18780TIP3   OH277830   5.575   0.090  14.145  0.1751 -0.5605  0.1974
18780TIP3    H177831   5.643   0.026  14.167  1.1555  0.3990 -0.0079
18780TIP3    H277832   5.616   0.175  14.159 -0.7736  0.0363 -0.5677
18781TIP3   OH277833   0.680   4.798   6.226  0.8380  0.2500  0.1523
18781TIP3    H177834   0.666   4.786   6.320  1.0176 -3.0205 -0.2026
18781TIP3    H277835   0.603   4.847   6.197 -0.2211 -0.5036  1.6334
18782TIP3   OH277836   0.536   1.782  14.535  0.2910  0.2543  0.0283
18782TIP3    H177837   0.605   1.723  14.504  0.0884  0.1998 -0.3185
18782TIP3    H277838   0.577   1.868  14.536  0.8083  0.0093  1.2322
18783TIP3   OH277839   5.843   4.542  13.118 -0.1941  0.0786  0.0576
18783TIP3    H177840   5.859   4.559  13.025  0.2751  2.3868  0.5215
18783TIP3    H277841   5.930   4.534  13.157 -0.3490  1.0274  0.6110
18784TIP3   OH277842   2.070   5.181  10.463 -0.0695  0.4684 -0.3252
18784TIP3    H177843   1.993   5.210  10.513  1.4116  1.7088  1.2683
18784TIP3    H277844   2.145   5.215  10.512  1.4551  0.7078 -2.7837
18785TIP3   OH277845   5.509   1.624  13.949  0.0725 -0.3065  0.1812
18785TIP3    H177846   5.422   1.618  13.909 -0.8231 -0.0255  2.0237
18785TIP3    H277847   5.563   1.563  13.898 -1.3567 -0.9626 -0.5842
18786TIP3   OH277848   3.522   0.227   1.325 -0.3000  0.2529  0.2232
18786TIP3    H177849   3.523   0.131   1.332  0.3418  0.1939 -0.6542
18786TIP3    H277850   3.544   0.258   1.413 -0.2940 -0.4071  0.4548
18787TIP3   OH277851   1.660   1.310  12.337 -0.0964 -0.0523  0.0533
18787TIP3    H177852   1.613   1.286  12.417  0.1942  0.9606  0.5321
18787TIP3    H277853   1.600   1.369  12.292 -0.5792 -1.2177 -0.8575
18788TIP3   OH277854   2.890   1.804  16.407 -0.1483  0.0873  0.1936
18788TIP3    H177855   2.871   1.857  16.330  1.9029  0.2381 -0.2336
18788TIP3    H277856   2.979   1.829  16.432  0.6608 -2.7346  0.3139
18789TIP3   OH277857   3.629   3.809   3.627 -0.3436  0.1628 -0.2032
18789TIP3    H177858   3.557   3.753   3.599 -0.0537  0.5710 -1.8361
18789TIP3    H277859   3.632   3.799   3.722 -4.4045  2.3206  0.2939
18790TIP3   OH277860   6.265   3.210   3.521  0.1096 -0.2718 -0.2198
18790TIP3    H177861   6.240   3.172   3.605  0.7195 -1.6983 -0.6771
18790TIP3    H277862   6.184   3.208   3.470  0.2149 -1.2874 -0.3604
18791TIP3   OH277863   6.364   1.989   0.572 -0.4563 -0.6959  0.0649
18791TIP3    H177864   6.313   1.923   0.525 -1.2350 -1.3775  1.8359
18791TIP3    H277865   6.371   1.956   0.661 -1.1356  1.7728  1.0800
18792TIP3   OH277866   3.035   1.935   5.834 -0.2383  0.0704  0.1472
18792TIP3    H177867   2.957   1.902   5.789 -0.0572  1.0612 -0.9028
18792TIP3    H277868   3.045   1.876   5.910 -0.7086 -1.4281 -0.9232
18793TIP3   OH277869   1.945   2.221  15.122 -0.1300  0.1157  0.2032
18793TIP3    H177870   2.011   2.183  15.064  0.0934  1.2496 -0.3029
18793TIP3    H277871   1.992   2.291  15.169 -0.7609  0.3776  0.4496
18794TIP3   OH277872   2.538   1.181  17.207  0.2170 -0.1607 -0.0264
18794TIP3    H177873   2.604   1.164  17.139  0.4092  0.2839  0.0497
18794TIP3    H277874   2.566   1.262  17.248 -0.5939  0.2375 -0.2518
18795TIP3   OH277875   0.521   1.307   3.194 -0.6243 -0.0319  0.4574
18795TIP3    H177876   0.460   1.254   3.143  0.6869 -0.3848 -0.7836
18795TIP3    H277877   0.605   1.262   3.185  0.8705  3.0269 -1.9061
18796TIP3   OH277878   0.406   5.666  16.505  0.0817 -0.2363 -0.4302
18796TIP3    H177879   0.481   5.618  16.469  0.4443  0.8316 -1.1031
18796TIP3    H277880   0.437   5.698  16.589  0.5311  0.5717 -0.9003
18797TIP3   OH277881   1.561   1.024   3.163 -0.4113  0.3536 -0.0447
18797TIP3    H177882   1.466   1.017   3.163 -0.3674 -0.3238  0.3831
18797TIP3    H277883   1.579   1.115   3.140 -1.2192  1.2771  2.8041
18798TIP3   OH277884   3.876   3.140  15.598  0.2572 -0.0516 -0.0383
18798TIP3    H177885   3.873   3.066  15.659  1.3806 -0.6469 -0.6911
18798TIP3    H277886   3.911   3.212  15.650  0.7342 -0.4222  0.1559
18799TIP3   OH277887   4.923   0.529   2.815  0.1001  0.2819  0.0268
18799TIP3    H177888   4.898   0.438   2.800  0.6267  0.3848 -1.5544
18799TIP3    H277889   5.018   0.529   2.815  0.1028  0.7837  0.2516
18800TIP3   OH277890   1.087   3.381  13.601 -0.3527 -0.6503 -0.9383
18800TIP3    H177891   1.176   3.362  13.573  0.3608 -0.1049  0.8687
18800TIP3    H277892   1.088   3.474  13.624 -0.8803 -1.0516  0.8156
18801TIP3   OH277893   0.383   0.696  13.230 -0.5783  0.6194 -0.2415
18801TIP3    H177894   0.428   0.622  13.269  0.6544  2.3820  1.7629
18801TIP3    H277895   0.366   0.668  13.139  0.7380 -1.6928  0.1791
18802TIP3   OH277896   4.308   1.186  13.560 -0.1598  0.0166  0.0858
18802TIP3    H177897   4.219   1.156  13.577  0.7783 -1.7248  2.0946
18802TIP3    H277898   4.356   1.107  13.535  0.7651  0.9891 -1.3024
18803TIP3   OH277899   3.953   4.569  12.721 -0.0019  0.2473  0.1924
18803TIP3    H177900   4.048   4.568  12.708  0.0467 -0.1716  0.5606
18803TIP3    H277901   3.934   4.486  12.766 -0.5006  0.4709  0.3988
18804TIP3   OH277902   1.751   1.552   3.777 -0.5696 -0.6984  0.5261
18804TIP3    H177903   1.795   1.552   3.862  0.4440  1.7465  0.0317
18804TIP3    H277904   1.675   1.494   3.790 -0.0906 -0.8583  2.8951
18805TIP3   OH277905   5.323   6.253  10.961  1.1298  0.8316 -0.1451
18805TIP3    H177906   5.295   6.165  10.984 -1.5726  2.0333  1.5144
18805TIP3    H277907   5.333   6.252  10.866  1.5804 -1.3605 -0.0909
18806TIP3   OH277908   4.228   4.306  16.411  0.8752 -0.3472 -0.4269
18806TIP3    H177909   4.270   4.302  16.325  0.2878 -0.7648 -0.7024
18806TIP3    H277910   4.242   4.219  16.449  0.4765 -0.4100 -0.4185
18807TIP3   OH277911   5.067   5.399  10.220 -0.6051 -0.0897  0.2192
18807TIP3    H177912   4.987   5.444  10.192 -1.1471 -1.4172 -0.4296
18807TIP3    H277913   5.039   5.309  10.234  1.1632 -0.9650 -1.7982
18808TIP3   OH277914   0.470   6.203  16.323  0.0840 -0.2690  0.2873
18808TIP3    H177915   0.476   6.243  16.237 -1.0502  0.0167  0.3269
18808TIP3    H277916   0.376   6.186  16.335  0.4982 -2.6603  0.3918
18809TIP3   OH277917   6.228   5.143  11.497 -0.0556 -0.3462 -0.3410
18809TIP3    H177918   6.175   5.112  11.424 -1.4428 -0.9456  0.8797
18809TIP3    H277919   6.317   5.115  11.476 -0.1237  1.0146 -2.6113
18810TIP3   OH277920   1.697   2.343   3.287 -0.0234  0.1041  0.4653
18810TIP3    H177921   1.659   2.429   3.269  1.0761 -0.0976 -3.2328
18810TIP3    H277922   1.777   2.362   3.337  0.2029  1.2421 -0.3141
18811TIP3   OH277923   2.947   2.586   6.427 -0.4025  0.0533 -0.3495
18811TIP3    H177924   2.965   2.618   6.516 -0.2831  0.0122 -0.3584
18811TIP3    H277925   2.982   2.654   6.370 -1.9677  0.8729 -0.3566
18812TIP3   OH277926   6.307   2.662  15.997  0.0974  0.1896  0.0314
18812TIP3    H177927   6.348   2.581  15.965  2.4992  1.4747 -0.2729
18812TIP3    H277928   6.369   2.731  15.972 -1.2253  1.9606  1.5724
18813TIP3   OH277929   5.369   4.562   2.469  0.4632  0.8559  0.2217
18813TIP3    H177930   5.317   4.606   2.402  0.0739  0.7442  0.4509
18813TIP3    H277931   5.311   4.556   2.545  0.0250 -1.2969 -0.2444
18814TIP3   OH277932   2.983   4.279  16.664 -0.0336 -0.5839 -0.0925
18814TIP3    H177933   3.071   4.316  16.669 -0.3106  0.7257 -3.4259
18814TIP3    H277934   2.978   4.218  16.738  1.9056  2.8976  3.1027
18815TIP3   OH277935   2.951   5.142  14.734 -0.0907 -0.6064 -0.0193
18815TIP3    H177936   2.920   5.064  14.780  0.2586 -1.4946 -1.2804
18815TIP3    H277937   2.975   5.111  14.647  2.3440  0.4543  0.2211
18816TIP3   OH277938   3.248   3.640   0.116 -0.3502  0.5824  0.3366
18816TIP3    H177939   3.239   3.545   0.101  2.0965  0.2634  0.7580
18816TIP3    H277940   3.337   3.660   0.087 -0.8673  2.7659  0.2437
18817TIP3   OH277941   5.120   4.040  12.540 -0.2323 -0.2343  0.0861
18817TIP3    H177942   5.182   3.969  12.526 -1.3669 -1.2480  0.1990
18817TIP3    H277943   5.036   3.997  12.556 -0.6636  1.0764  1.5188
18818TIP3   OH277944   1.874   3.535  16.677 -0.1441 -0.0570 -0.1256
18818TIP3    H177945   1.870   3.532  16.581 -0.0672  0.7311 -0.1602
18818TIP3    H277946   1.964   3.563  16.696  0.1972 -1.3256  0.2110
18819TIP3   OH277947   3.994   1.154  17.286  0.2942 -0.5509  0.0531
18819TIP3    H177948   4.017   1.239  17.249  2.7279 -0.4191  1.7500
18819TIP3    H277949   3.917   1.172  17.341 -0.0133  0.2831 -0.6347
18820TIP3   OH277950   4.092   2.158  11.290 -0.4613 -0.2103 -0.0814
18820TIP3    H177951   4.017   2.203  11.330 -0.1688 -0.1334  0.3855
18820TIP3    H277952   4.164   2.221  11.297 -0.0122 -0.7950  0.6969
18821TIP3   OH277953   3.559   1.205  16.769 -0.7704  0.6567 -0.1973
18821TIP3    H177954   3.501   1.130  16.755  0.5129 -0.4138  0.0830
18821TIP3    H277955   3.501   1.274  16.801 -1.7936 -0.5801  0.7105
18822TIP3   OH277956   2.728   4.190  17.099  0.3596 -0.0820 -0.0918
18822TIP3    H177957   2.726   4.279  17.065 -2.0060  0.0182  0.2280
18822TIP3    H277958   2.805   4.150  17.058  2.3933  2.5556  1.0016
18823TIP3   OH277959   0.999   0.653   1.078 -0.1402 -0.1223  0.5620
18823TIP3    H177960   1.029   0.590   1.144  2.4348  0.5015  0.0547
18823TIP3    H277961   0.981   0.732   1.128  0.4572 -0.0703  0.6987
18824TIP3   OH277962   0.927   2.186  14.571  0.5947  0.1836 -0.1246
18824TIP3    H177963   1.011   2.160  14.607  0.5051 -0.8169 -0.6290
18824TIP3    H277964   0.946   2.265  14.520  1.2569 -0.1477 -0.3885
18825TIP3   OH277965   1.253   4.940  14.149  0.2823 -0.6817 -0.0054
18825TIP3    H177966   1.258   4.881  14.074 -0.1619 -2.5213  1.3566
18825TIP3    H277967   1.245   4.881  14.225 -0.7324  1.1563  1.3530
18826TIP3   OH277968   2.593   1.116   1.399 -0.2847 -0.1232  0.0008
18826TIP3    H177969   2.580   1.021   1.402  0.8861 -0.3794 -1.7829
18826TIP3    H277970   2.530   1.147   1.334 -0.0241  0.1774 -0.1110
18827TIP3   OH277971   0.357   2.280   2.778 -0.5090  0.5621 -0.1623
18827TIP3    H177972   0.272   2.279   2.734 -0.2249  0.2602 -0.7020
18827TIP3    H277973   0.418   2.310   2.711 -0.2310  1.0471  0.3061
18828TIP3   OH277974   5.287   1.019  12.225 -0.2768  0.2333  0.3434
18828TIP3    H177975   5.248   1.057  12.304  1.2528 -0.4790  1.4745
18828TIP3    H277976   5.331   1.092  12.182 -0.9818  0.5925  0.2165
18829TIP3   OH277977   0.495   2.914  11.216  0.7806 -0.1417 -0.2276
18829TIP3    H177978   0.482   2.858  11.140  1.8580 -1.9512  0.8812
18829TIP3    H277979   0.494   3.003  11.181  1.4456 -0.9574 -2.3706
18830TIP3   OH277980   3.521   0.685   4.274  0.1893 -0.2970 -0.3318
18830TIP3    H177981   3.441   0.715   4.232 -0.0933 -0.5233  0.0409
18830TIP3    H277982   3.562   0.764   4.309 -0.0837 -0.2375 -0.1527
18831TIP3   OH277983   5.169   6.022  11.033 -0.0372  0.0931  0.5397
18831TIP3    H177984   5.185   5.971  10.953  0.0012  2.3440 -0.9489
18831TIP3    H277985   5.074   6.028  11.039 -0.0558 -0.6379  1.0500
18832TIP3   OH277986   3.790   3.016   3.125 -0.0739 -0.1416 -0.0255
18832TIP3    H177987   3.805   3.079   3.055 -1.2946  0.5856  0.3404
18832TIP3    H277988   3.876   3.003   3.166  0.3630  0.5455 -0.7264
18833TIP3   OH277989   2.467   5.489  11.472 -0.2907  0.1941  0.4248
18833TIP3    H177990   2.499   5.510  11.560 -0.6574  3.2528 -0.0927
18833TIP3    H277991   2.545   5.493  11.417 -0.2458 -0.5693  0.4327
18834TIP3   OH277992   5.596   2.678   3.350 -0.0807 -0.0586 -0.5449
18834TIP3    H177993   5.504   2.699   3.368 -0.1426 -0.2166 -0.6737
18834TIP3    H277994   5.593   2.625   3.270 -0.1073 -2.3715  0.9557
18835TIP3   OH277995   4.405   4.335   0.371  0.3594  0.1675 -0.0864
18835TIP3    H177996   4.398   4.383   0.453 -0.5574 -0.5859  0.2904
18835TIP3    H277997   4.454   4.256   0.395 -0.4734 -0.3661 -0.1069
18836TIP3   OH277998   5.741   5.829   4.385 -0.1958  0.3749  0.2283
18836TIP3    H177999   5.736   5.798   4.295  0.2306  2.2535 -0.4552
18836TIP3    H278000   5.834   5.846   4.400 -0.4395  1.4880  0.5315
18837TIP3   OH278001   3.222   0.945  15.181 -0.1433 -0.7613 -0.1464
18837TIP3    H178002   3.301   0.913  15.139 -0.2467 -0.4543 -0.5787
18837TIP3    H278003   3.219   1.038  15.159 -1.1461 -0.9834 -0.9624
18838TIP3   OH278004   0.798   3.007  12.532 -0.2178  0.6348 -0.6251
18838TIP3    H178005   0.845   3.044  12.608  0.6095 -0.7137 -0.4702
18838TIP3    H278006   0.867   2.978  12.473 -0.8282 -2.1203 -0.0397
18839TIP3   OH278007   3.353   5.496  13.829 -0.5875 -0.0681  0.7498
18839TIP3    H178008   3.350   5.550  13.907 -0.3877 -0.7344  1.2194
18839TIP3    H278009   3.273   5.445  13.831 -0.5199 -0.1828  0.5880
18840TIP3   OH278010   1.509   2.247   4.849  0.0199 -0.4397 -0.0948
18840TIP3    H178011   1.556   2.180   4.798 -1.9368 -0.4699 -1.9234
18840TIP3    H278012   1.542   2.236   4.939  0.9070 -2.7820 -0.6678
18841TIP3   OH278013   0.843   6.480  15.817 -0.0225 -0.1782  0.1492
18841TIP3    H178014   0.828   6.563  15.771 -0.1043 -0.1481  0.2285
18841TIP3    H278015   0.925   6.447  15.780  0.7851  0.6593  1.1593
18842TIP3   OH278016   2.959   0.376  13.838  0.3593  0.0097 -0.1465
18842TIP3    H178017   3.035   0.377  13.896  0.6201  3.2109 -0.4437
18842TIP3    H278018   2.996   0.386  13.750 -0.2967 -0.1706 -0.4464
18843TIP3   OH278019   5.613   3.406   3.552 -0.6485 -0.0979  0.4393
18843TIP3    H178020   5.551   3.368   3.491  0.6710 -0.1102 -0.9276
18843TIP3    H278021   5.615   3.345   3.626  1.5002 -2.8234 -1.7331
18844TIP3   OH278022   5.369   4.477  13.089 -0.3916  0.4714 -0.0568
18844TIP3    H178023   5.333   4.439  13.009  0.5016  0.3861 -0.4312
18844TIP3    H278024   5.450   4.428  13.103 -0.3843  0.7112  0.7200
18845TIP3   OH278025   2.569   3.468  15.510 -0.2291 -0.1133  0.0138
18845TIP3    H178026   2.517   3.534  15.556  0.7421  0.4771  0.2957
18845TIP3    H278027   2.544   3.385  15.550 -1.8824  0.0036 -0.7229
18846TIP3   OH278028   6.381   2.440   2.959  0.0988  0.2882  0.1455
18846TIP3    H178029   6.350   2.468   3.045 -1.4505  0.2766 -0.3878
18846TIP3    H278030   6.340   2.502   2.898  1.6417  0.6463 -0.5421
18847TIP3   OH278031   2.793   4.420   4.894 -1.3660 -0.3693  0.2099
18847TIP3    H178032   2.704   4.455   4.893 -1.1287  0.2543 -1.3143
18847TIP3    H278033   2.846   4.490   4.854 -0.2090 -0.7709  1.0115
18848TIP3   OH278034   2.418   0.222  12.780 -0.1173  0.4027  0.1554
18848TIP3    H178035   2.431   0.212  12.874  1.3766  0.5327 -0.0255
18848TIP3    H278036   2.361   0.299  12.772 -0.1038  0.5005  0.9521
18849TIP3   OH278037   2.025   5.520   3.928  0.2059 -0.3943 -0.0713
18849TIP3    H178038   2.095   5.457   3.909 -0.8166 -1.2670 -1.0783
18849TIP3    H278039   1.951   5.465   3.956  0.0808  0.5523  1.5028
18850TIP3   OH278040   3.974   0.805   0.720 -0.1884 -0.0207 -0.1697
18850TIP3    H178041   3.895   0.812   0.666  0.1982 -0.4389 -0.7980
18850TIP3    H278042   3.991   0.711   0.726 -0.4580  0.0019  1.0321
18851TIP3   OH278043   0.345   2.989  15.938 -0.2192 -0.2769 -0.0379
18851TIP3    H178044   0.306   2.994  15.851 -0.1151  0.3789 -0.0462
18851TIP3    H278045   0.313   3.066  15.984  2.2769  1.1264 -0.5608
18852TIP3   OH278046   4.554   4.806  14.899  0.1445 -0.6241  0.2775
18852TIP3    H178047   4.506   4.889  14.901  0.6516 -0.3274 -0.0003
18852TIP3    H278048   4.559   4.783  14.807  1.7462  0.0487  0.1782
18853TIP3   OH278049   5.967   0.576  13.142 -0.2381  0.0636  0.6056
18853TIP3    H178050   5.972   0.502  13.203 -1.0302  0.1234  0.7457
18853TIP3    H278051   5.914   0.543  13.069  1.9279 -0.5083 -0.7842
18854TIP3   OH278052   4.019   5.568   2.953 -0.5444 -0.4093  0.5348
18854TIP3    H178053   3.947   5.565   2.890 -1.2486  0.2540  1.2917
18854TIP3    H278054   4.013   5.485   3.000 -0.1299 -0.8264 -0.1442
18855TIP3   OH278055   0.039   1.001   5.289  0.4023 -0.5869 -0.3995
18855TIP3    H178056  -0.010   1.073   5.251  1.1861  1.0202  1.5507
18855TIP3    H278057   0.115   0.990   5.231 -0.1197 -0.3541 -1.1267
18856TIP3   OH278058   5.387   6.214   0.801  0.5310  0.1486  0.7021
18856TIP3    H178059   5.424   6.130   0.831  0.2910 -0.7441 -1.4219
18856TIP3    H278060   5.447   6.244   0.733 -0.4025  0.7620  0.1352
18857TIP3   OH278061   1.126   4.151  12.892 -0.0299 -0.2629  0.2578
18857TIP3    H178062   1.202   4.114  12.936  0.2439 -0.1460 -0.1098
18857TIP3    H278063   1.112   4.235  12.934 -0.7573 -0.8514  1.2089
18858TIP3   OH278064   4.997   1.113  16.348  0.4879  0.0755 -0.8323
18858TIP3    H178065   5.003   1.042  16.412 -0.7694 -0.7210 -1.5809
18858TIP3    H278066   4.904   1.117  16.325  0.9770  0.0366 -2.9573
18859TIP3   OH278067   5.228   3.003  16.561  0.4512  0.5103  0.1609
18859TIP3    H178068   5.289   2.930  16.573 -0.4594 -0.2911 -0.0155
18859TIP3    H278069   5.226   3.018  16.467  0.9977  1.0851  0.2329
18860TIP3   OH278070   2.264   1.942  16.801 -0.0999 -0.2345  0.4292
18860TIP3    H178071   2.247   1.887  16.725 -0.7878 -0.6735  0.8876
18860TIP3    H278072   2.191   2.004  16.802  0.3765  0.3343  0.2344
18861TIP3   OH278073   5.856   4.659   4.859 -0.2203 -0.1291 -0.1518
18861TIP3    H178074   5.863   4.738   4.913 -0.0869 -0.8453  0.8857
18861TIP3    H278075   5.792   4.605   4.904  1.2253 -1.5173  0.2744
18862TIP3   OH278076   2.967   6.091  12.764 -0.7448  0.0260  0.5292
18862TIP3    H178077   2.961   5.998  12.742  0.7193  0.1318 -0.3995
18862TIP3    H278078   2.912   6.135  12.700  0.5374  0.0027 -0.6073
18863TIP3   OH278079   2.371   4.033  11.268  0.2533 -0.0487 -0.2129
18863TIP3    H178080   2.455   4.000  11.235  1.2733  3.0368 -0.8715
18863TIP3    H278081   2.392   4.119  11.305 -2.6170  0.7077 -0.2334
18864TIP3   OH278082   4.841   3.790   4.669 -0.2299 -0.1489 -0.6143
18864TIP3    H178083   4.793   3.817   4.747 -0.8430 -2.9600  0.0333
18864TIP3    H278084   4.929   3.771   4.700 -0.3306 -0.7683 -0.7143
18865TIP3   OH278085   2.289   4.146  15.804  0.7145  0.0504  0.1542
18865TIP3    H178086   2.233   4.214  15.841 -0.3089 -0.3853 -0.5805
18865TIP3    H278087   2.377   4.167  15.836  0.1564  0.8071  1.2166
18866TIP3   OH278088   0.242   2.420  15.827  0.2988  0.6715  0.6722
18866TIP3    H178089   0.159   2.411  15.873 -0.5930  0.1886 -0.9830
18866TIP3    H278090   0.290   2.340  15.848 -0.0656  0.4891  0.8193
18867TIP3   OH278091   3.138   1.940  16.385 -0.5613  0.3959 -0.2678
18867TIP3    H178092   3.078   1.973  16.318  0.3507  0.7897 -0.9099
18867TIP3    H278093   3.214   1.998  16.379  1.7600 -2.6952 -2.4786
18868TIP3   OH278094   3.528   0.482  16.133  0.2617 -0.1506 -0.1097
18868TIP3    H178095   3.527   0.577  16.119  2.0669  0.2671  2.2162
18868TIP3    H278096   3.618   0.456  16.117 -0.0824 -1.3756 -0.0992
18869TIP3   OH278097   2.701   2.935   2.253  0.4377  0.8988  0.1755
18869TIP3    H178098   2.780   2.977   2.220 -0.0495 -0.5820 -3.0594
18869TIP3    H278099   2.733   2.871   2.317  1.8656  0.5276 -0.8711
18870TIP3   OH278100   1.471   4.182   1.736  0.0967 -0.0596 -0.3638
18870TIP3    H178101   1.427   4.266   1.750 -0.0505 -0.1530 -0.2550
18870TIP3    H278102   1.479   4.145   1.824  3.0636  1.2766  0.0014
18871TIP3   OH278103   0.847   1.938   2.274  0.2713 -0.0224  0.1618
18871TIP3    H178104   0.777   2.000   2.294  0.2611 -0.2323  0.7955
18871TIP3    H278105   0.894   1.927   2.357  1.8783  1.1378 -0.5692
18872TIP3   OH278106   0.408   1.069   2.878 -0.1608  0.1858  0.6892
18872TIP3    H178107   0.356   1.094   2.955 -1.5700  0.0084 -0.1757
18872TIP3    H278108   0.402   1.145   2.820  0.6167  0.1874  0.6016
18873TIP3   OH278109   2.062   3.937  14.593 -0.1379 -0.3505 -0.0381
18873TIP3    H178110   2.018   4.020  14.575  1.2947  0.2340 -0.8467
18873TIP3    H278111   2.116   3.921  14.516  0.6839 -1.3262  0.7347
18874TIP3   OH278112   6.269   6.174   5.473  0.1091 -0.1708  0.1374
18874TIP3    H178113   6.183   6.191   5.434  0.2443 -0.5595 -0.3332
18874TIP3    H278114   6.252   6.110   5.542 -0.2224  0.9501  1.1105
18875TIP3   OH278115   3.312   1.142  13.796  0.2720 -1.0306  0.1368
18875TIP3    H178116   3.395   1.180  13.766 -0.5090  0.5800  0.0187
18875TIP3    H278117   3.325   1.129  13.890  0.7445 -1.0069  0.0783
18876TIP3   OH278118   0.970   2.764   4.792  0.2667  0.4378 -0.5848
18876TIP3    H178119   0.885   2.724   4.809 -0.1411  1.5146 -0.0576
18876TIP3    H278120   1.033   2.695   4.812 -0.4114  0.2232  0.9123
18877TIP3   OH278121   3.979   3.248  11.108 -0.2209 -0.3388 -0.7314
18877TIP3    H178122   3.934   3.166  11.086  1.0407 -0.3265 -3.6483
18877TIP3    H278123   3.911   3.315  11.104 -0.9564 -1.0327  0.1236
18878TIP3   OH278124   0.590   0.360  15.516 -0.4828  0.1304 -0.2721
18878TIP3    H178125   0.540   0.280  15.498 -1.5705  1.0905 -1.5341
18878TIP3    H278126   0.533   0.412  15.572 -0.9703  1.2863 -1.8232
18879TIP3   OH278127   5.652   1.779   3.714 -0.2992  0.4066  0.1846
18879TIP3    H178128   5.638   1.695   3.670  0.7498  0.5273 -0.3969
18879TIP3    H278129   5.703   1.757   3.791  1.2080  0.6777 -0.7189
18880TIP3   OH278130   5.859   4.425   4.684 -0.2015  0.2558 -0.1183
18880TIP3    H178131   5.873   4.497   4.746 -2.6991  0.8601 -0.2158
18880TIP3    H278132   5.854   4.347   4.738 -0.5176  0.5363  0.2564
18881TIP3   OH278133   4.769   2.954   1.392 -0.2919 -0.0989 -0.0828
18881TIP3    H178134   4.732   2.994   1.313  0.2928  0.2670 -0.1752
18881TIP3    H278135   4.857   2.928   1.366 -0.3449 -0.6170  0.2469
18882TIP3   OH278136   1.756   4.542  15.038 -0.3295  0.5234  0.5967
18882TIP3    H178137   1.841   4.503  15.060 -0.5136 -1.0867 -1.4032
18882TIP3    H278138   1.699   4.468  15.020 -2.0279  1.6079  1.3552
18883TIP3   OH278139   0.149   4.197   1.578 -0.9204 -0.0412  0.3014
18883TIP3    H178140   0.143   4.102   1.590  1.7858 -0.1229  1.5007
18883TIP3    H278141   0.153   4.232   1.667  0.5253  0.9969 -0.1563
18884TIP3   OH278142   6.445   0.556  12.959 -0.1050  0.2000 -0.1628
18884TIP3    H178143   6.538   0.537  12.948 -0.1904 -0.8210  0.8577
18884TIP3    H278144   6.440   0.652  12.955  0.9845  0.2596 -0.2061
18885TIP3   OH278145   1.889   5.386  14.570 -0.4993 -0.0069  0.2636
18885TIP3    H178146   1.851   5.473  14.561 -0.8710  0.2582  3.7348
18885TIP3    H278147   1.814   5.330  14.593  0.0103 -0.9061 -0.2538
18886TIP3   OH278148   3.367   6.569   2.966 -0.1172  0.2033  0.0260
18886TIP3    H178149   3.333   6.571   3.055  1.1224 -1.1164  0.5441
18886TIP3    H278150   3.308   6.511   2.918  1.0232 -1.6110  0.7775
18887TIP3   OH278151   0.162   1.585  10.863  0.2382 -0.1721 -0.0514
18887TIP3    H178152   0.127   1.675  10.869  1.0909  0.2278 -1.0273
18887TIP3    H278153   0.109   1.544  10.795  0.0289 -0.3267  0.2042
18888TIP3   OH278154   1.067   1.045   2.552  0.5177 -0.8453 -0.2052
18888TIP3    H178155   1.023   1.065   2.635  2.5098 -2.7528  1.3652
18888TIP3    H278156   1.011   1.084   2.486 -2.8251 -1.9648  1.8167
18889TIP3   OH278157   0.122   6.062   1.122 -0.0177  0.4633  0.6166
18889TIP3    H178158   0.166   6.138   1.160 -1.2481  0.8120  1.3931
18889TIP3    H278159   0.077   6.021   1.195  0.4062 -0.8750  0.1516
18890TIP3   OH278160   0.888   5.454  15.410 -0.1999  0.5826  0.1722
18890TIP3    H178161   0.861   5.523  15.349  0.6261  0.9979  0.2685
18890TIP3    H278162   0.845   5.476  15.493  1.3901  1.9197  0.6592
18891TIP3   OH278163   3.309   1.895   3.905 -0.5618  0.1124  0.5100
18891TIP3    H178164   3.380   1.952   3.878 -1.7288  1.5416  0.4234
18891TIP3    H278165   3.307   1.826   3.838 -1.0361  1.5873 -1.0168
18892TIP3   OH278166   4.038   2.956   4.274  0.2181  0.0458  0.0169
18892TIP3    H178167   3.945   2.935   4.280 -0.1106  0.9750 -1.6982
18892TIP3    H278168   4.043   3.050   4.289  0.9790 -0.1226  0.8891
18893TIP3   OH278169   6.397   3.878   1.095 -0.3345  0.3820 -0.1869
18893TIP3    H178170   6.343   3.814   1.143 -2.9658  2.1510 -0.6958
18893TIP3    H278171   6.334   3.929   1.044  2.0357  1.3423 -2.2103
18894TIP3   OH278172   6.806   4.086   0.297  0.3004  0.5442  0.3811
18894TIP3    H178173   6.779   4.105   0.207 -2.6551  0.4614  1.1806
18894TIP3    H278174   6.724   4.090   0.348  2.0434  1.5585  3.2295
18895TIP3   OH278175   1.275   3.309   0.013  0.1151 -0.0358  0.8151
18895TIP3    H178176   1.231   3.276   0.091 -0.7620  0.4389  0.5400
18895TIP3    H278177   1.358   3.343   0.044 -0.9125  1.6150  1.7928
18896TIP3   OH278178   6.251   5.642   6.449  0.5066 -0.5264  0.1987
18896TIP3    H178179   6.189   5.586   6.496 -0.7747 -1.4248 -2.4550
18896TIP3    H278180   6.221   5.731   6.468 -2.8931 -0.9615 -2.5665
18897TIP3   OH278181   0.809   3.478  16.699 -0.6874 -0.0099 -0.2972
18897TIP3    H178182   0.825   3.466  16.793 -3.4999 -0.3462  0.1867
18897TIP3    H278183   0.858   3.408  16.657  0.0615 -0.2584  0.9627
18898TIP3   OH278184   1.908   4.276   3.633 -0.0907  0.0577  0.1920
18898TIP3    H178185   1.989   4.253   3.587  0.1125  2.5140 -0.7413
18898TIP3    H278186   1.905   4.372   3.629 -2.1962  0.0740  1.6937
18899TIP3   OH278187   3.457   3.764  12.227 -0.6455 -0.3095 -0.2851
18899TIP3    H178188   3.502   3.681  12.208  1.0723  0.3993  0.5143
18899TIP3    H278189   3.491   3.825  12.162 -0.9961  0.0598 -0.1202
18900TIP3   OH278190   2.553   1.196   3.639 -0.3676 -0.2285 -0.0821
18900TIP3    H178191   2.493   1.214   3.712  0.5455 -0.3557  0.6989
18900TIP3    H278192   2.501   1.215   3.561 -0.9308  1.1964  0.6242
18901TIP3   OH278193   1.484   3.819   0.524  0.1104  0.5170  0.5495
18901TIP3    H178194   1.483   3.872   0.444 -0.9411 -0.0038  0.1957
18901TIP3    H278195   1.559   3.851   0.574  1.5787 -0.0128 -1.2342
18902TIP3   OH278196   1.581   2.096  15.446 -0.3388  0.7628 -0.4345
18902TIP3    H178197   1.537   2.129  15.368 -2.8725 -0.0711  0.5847
18902TIP3    H278198   1.511   2.058  15.499  1.8889 -2.3609  0.4032
18903TIP3   OH278199   6.547   5.416   3.514  0.3386  0.0404  0.2853
18903TIP3    H178200   6.463   5.403   3.558  0.5852  1.0633  1.0688
18903TIP3    H278201   6.576   5.327   3.492 -0.6115 -0.3677  0.6470
18904TIP3   OH278202   4.501   3.341  13.911 -0.4523  0.2072 -0.5937
18904TIP3    H178203   4.518   3.250  13.887 -3.3408 -0.3088 -0.8061
18904TIP3    H278204   4.581   3.369  13.956  1.3415 -1.7136 -2.4794
18905TIP3   OH278205   3.261   2.784   0.162  0.4342  0.0857  0.1679
18905TIP3    H178206   3.346   2.792   0.119  1.1767 -2.2367  1.1178
18905TIP3    H278207   3.210   2.729   0.103  1.1502 -2.3417  1.7477
18906TIP3   OH278208   0.471   5.516  11.170  0.3315 -0.5526 -0.3550
18906TIP3    H178209   0.397   5.545  11.224 -0.5522 -2.0260 -0.7115
18906TIP3    H278210   0.523   5.594  11.155 -0.1782  0.1567  1.4504
18907TIP3   OH278211   4.156   3.927  15.037  0.1386 -0.0747  0.7697
18907TIP3    H178212   4.170   3.924  14.942 -0.0592  1.9496  0.6691
18907TIP3    H278213   4.244   3.918  15.074  0.4277  0.9091  0.3464
18908TIP3   OH278214   0.873   3.063   3.971  0.3256  0.6700 -0.4130
18908TIP3    H178215   0.785   3.067   4.008  0.0694  0.4609 -0.9942
18908TIP3    H278216   0.906   3.153   3.975  0.5204  0.5586  0.8404
18909TIP3   OH278217   2.757   2.067  12.712  0.1828  1.2839  0.4592
18909TIP3    H178218   2.681   2.124  12.703  0.3683  1.3479 -0.8457
18909TIP3    H278219   2.751   2.032  12.801 -1.0438  1.7360  0.5600
18910TIP3   OH278220   6.274   0.048  14.164 -0.0439 -0.6355 -0.0107
18910TIP3    H178221   6.309   0.010  14.084 -0.0718 -2.5879  0.8726
18910TIP3    H278222   6.266   0.141  14.145  4.5093 -0.2796 -0.6558
18911TIP3   OH278223   4.080   5.312   5.136  0.5276  0.3639  0.2271
18911TIP3    H178224   4.165   5.301   5.092 -0.5069  0.4488 -1.8269
18911TIP3    H278225   4.021   5.253   5.089 -0.4421 -0.0950  1.9885
18912TIP3   OH278226   1.297   0.255  17.152 -0.1281 -0.2630 -0.4549
18912TIP3    H178227   1.288   0.204  17.232  1.8256 -1.4617 -0.9624
18912TIP3    H278228   1.262   0.199  17.083  1.3681 -0.6549 -0.9157
18913TIP3   OH278229   1.878   2.058  16.293 -0.0662  0.2143  0.2503
18913TIP3    H178230   1.823   2.125  16.253 -0.1560  1.0835  1.8053
18913TIP3    H278231   1.826   2.023  16.366 -0.2904 -2.0250 -0.9270
18914TIP3   OH278232   5.689   4.705  14.457 -0.2934 -0.2422 -0.0887
18914TIP3    H178233   5.728   4.643  14.518 -1.0681 -1.0169 -0.3827
18914TIP3    H278234   5.684   4.658  14.374 -2.6819 -0.4991  0.1492
18915TIP3   OH278235   4.333   1.688  13.948 -0.0343 -1.0391  0.6265
18915TIP3    H178236   4.261   1.747  13.970  0.5461 -0.4911  1.0641
18915TIP3    H278237   4.293   1.601  13.947 -0.7689 -0.7027  0.5563
18916TIP3   OH278238   4.591   0.886  14.815  0.1358  0.4272  0.4857
18916TIP3    H178239   4.655   0.816  14.800 -0.1999 -0.0172  1.0989
18916TIP3    H278240   4.506   0.845  14.798  0.0260  1.1018 -0.6344
18917TIP3   OH278241   1.233   1.917  12.047 -0.2285 -0.0532 -0.2434
18917TIP3    H178242   1.241   1.987  12.112 -1.5454  1.6332 -1.8382
18917TIP3    H278243   1.140   1.893  12.050 -0.4574  0.5870 -2.0453
18918TIP3   OH278244   1.435   6.640  16.254  0.0585  0.3581 -0.1416
18918TIP3    H178245   1.452   6.714  16.195 -2.3043  1.0142 -0.0274
18918TIP3    H278246   1.345   6.653  16.284  0.1897 -1.6586  1.2043
18919TIP3   OH278247   0.989   4.979   1.679 -0.2225  0.2326  0.0518
18919TIP3    H178248   0.984   4.941   1.591  2.0934  1.0046 -0.4328
18919TIP3    H278249   0.972   5.072   1.666  1.5205  0.5847  0.2146
18920TIP3   OH278250   6.698   0.008  12.958 -0.0236  0.8384  0.3110
18920TIP3    H178251   6.630  -0.042  12.915  1.1913 -0.2658 -0.3779
18920TIP3    H278252   6.693  -0.017  13.050 -0.6425  0.8754  0.2839
18921TIP3   OH278253   2.950   4.182   4.838  0.2804 -0.3791 -0.1367
18921TIP3    H178254   2.946   4.275   4.858 -1.6966 -0.6092  0.6990
18921TIP3    H278255   3.013   4.147   4.901  1.3815  0.4476 -0.7600
18922TIP3   OH278256   6.044   0.306   6.177 -0.7120  0.2453 -0.0258
18922TIP3    H178257   6.048   0.242   6.247 -2.2170  1.2649  1.0216
18922TIP3    H278258   6.114   0.368   6.196 -1.9632  1.2686  1.3589
18923TIP3   OH278259   4.219   0.730   1.751  1.2602 -0.8675  0.0106
18923TIP3    H178260   4.308   0.704   1.726  1.5629 -2.0798  2.2012
18923TIP3    H278261   4.230   0.773   1.836 -0.0736  0.4219 -0.4620
18924TIP3   OH278262   1.745   5.680   2.556 -0.3822 -0.3146  0.1718
18924TIP3    H178263   1.798   5.603   2.533  1.1226  0.3261  1.3512
18924TIP3    H278264   1.802   5.731   2.614 -0.1696  3.2228 -2.9602
18925TIP3   OH278265   1.583   5.698   3.220 -0.2509  0.5394 -0.3380
18925TIP3    H178266   1.614   5.789   3.219 -0.3032  0.5568 -0.3737
18925TIP3    H278267   1.663   5.646   3.214 -0.1743  0.5750  0.3045
18926TIP3   OH278268   4.327   1.045  11.146  0.3497 -0.1345  0.1136
18926TIP3    H178269   4.251   1.095  11.174  0.5453 -0.1322  0.6639
18926TIP3    H278270   4.341   1.070  11.055 -0.0219  0.2184  0.1534
18927TIP3   OH278271   0.359   6.638  14.733 -0.5915  0.3656  0.0765
18927TIP3    H178272   0.294   6.618  14.800  0.2437  2.5135  1.5989
18927TIP3    H278273   0.430   6.575  14.748 -2.1126 -1.7424 -1.3534
18928TIP3   OH278274   0.222   1.614   4.341  0.5073 -0.8033  0.2685
18928TIP3    H178275   0.295   1.676   4.338 -0.9635  0.9701  0.1982
18928TIP3    H278276   0.162   1.645   4.273 -0.5228 -1.9692  0.6300
18929TIP3   OH278277   3.519   3.866  13.752  0.5984  0.4496 -0.0461
18929TIP3    H178278   3.445   3.918  13.781 -0.9430 -1.0747 -1.1300
18929TIP3    H278279   3.526   3.795  13.815  0.4656 -0.0111 -0.5496
18930TIP3   OH278280   5.600   5.350   3.752 -0.2337 -0.2450 -0.2221
18930TIP3    H178281   5.584   5.310   3.837 -1.7361 -1.1739 -0.9099
18930TIP3    H278282   5.694   5.343   3.739 -0.2048 -1.5783  0.6524
18931TIP3   OH278283   2.812   0.128  15.455  0.4795  0.2046 -0.2734
18931TIP3    H178284   2.808   0.117  15.550 -0.9728 -0.2488 -0.3734
18931TIP3    H278285   2.783   0.217  15.439 -0.2262 -0.0349 -0.3514
18932TIP3   OH278286   6.096   5.214  16.869 -0.1678 -0.3128  0.1589
18932TIP3    H178287   6.094   5.292  16.925 -4.5097 -0.2021  0.0262
18932TIP3    H278288   6.075   5.142  16.929 -1.3909 -0.6529 -0.6699
18933TIP3   OH278289   2.323   5.834   4.559 -0.1408 -0.2295  0.0353
18933TIP3    H178290   2.348   5.831   4.651 -0.9702  0.1518  0.2817
18933TIP3    H278291   2.355   5.752   4.522  1.5087  0.2750  0.3201
18934TIP3   OH278292   4.406   6.259  14.994 -0.5134 -0.8929  0.4988
18934TIP3    H178293   4.384   6.200  15.065 -1.6672 -0.5518  0.4387
18934TIP3    H278294   4.381   6.212  14.914 -2.3780  0.0481  0.4977
18935TIP3   OH278295   2.527   1.281  12.708  1.2496  0.0582  0.7098
18935TIP3    H178296   2.590   1.330  12.655 -0.4054  2.4707  0.8904
18935TIP3    H278297   2.469   1.240  12.643  1.3627  0.0818  0.5923
18936TIP3   OH278298   4.568   5.041  14.401  0.4601 -0.0835 -0.3740
18936TIP3    H178299   4.645   5.063  14.454  0.0446  1.1883 -0.3047
18936TIP3    H278300   4.507   5.002  14.464 -0.6374  2.8140  0.4031
18937TIP3   OH278301   0.666   1.976   3.608 -0.1855 -0.1339 -0.5010
18937TIP3    H178302   0.596   1.978   3.544 -1.3755 -0.3031  0.7660
18937TIP3    H278303   0.681   1.883   3.624 -1.8523 -0.0861  1.5305
18938TIP3   OH278304   2.905   4.676   0.579  0.3788 -0.2297 -0.0181
18938TIP3    H178305   2.862   4.755   0.548  1.0036 -0.0515 -0.4279
18938TIP3    H278306   2.925   4.626   0.500  2.6511  0.5782  0.0152
18939TIP3   OH278307   1.459   5.299  13.206  0.2460 -0.1738 -0.2611
18939TIP3    H178308   1.455   5.394  13.210 -0.1534 -0.1142 -1.9367
18939TIP3    H278309   1.371   5.271  13.232  0.4512 -0.1082  0.5262
18940TIP3   OH278310   2.278   2.692  12.620 -0.0288 -0.2548  0.4228
18940TIP3    H178311   2.263   2.709  12.713  1.3290  1.0284  0.4185
18940TIP3    H278312   2.273   2.779  12.579  0.5742 -0.6658 -0.5273
18941TIP3   OH278313   3.237   4.841  12.858  0.0830  0.6787  0.5428
18941TIP3    H178314   3.267   4.861  12.946 -0.1630 -0.9047  1.0003
18941TIP3    H278315   3.260   4.749  12.845 -1.1247  0.5134 -0.5239
18942TIP3   OH278316   2.315   4.886  12.505 -0.7275  0.2464  0.0934
18942TIP3    H178317   2.302   4.979  12.490  1.5379  0.4849 -0.5662
18942TIP3    H278318   2.392   4.881  12.562  0.0201 -1.2351 -1.0014
18943TIP3   OH278319   2.140   4.484   3.379 -0.1584 -0.1119 -0.5868
18943TIP3    H178320   2.185   4.411   3.422  0.7375 -0.1979 -1.6477
18943TIP3    H278321   2.097   4.444   3.304 -0.6903  0.2496 -0.4753
18944TIP3   OH278322   6.170   3.671  16.693  0.4912  0.1681  0.4557
18944TIP3    H178323   6.199   3.746  16.641 -1.2647 -1.3874 -2.9161
18944TIP3    H278324   6.246   3.648  16.747  1.2663  3.9252  1.1237
18945TIP3   OH278325   0.394   2.954   5.310  1.2739 -0.1292 -0.1628
18945TIP3    H178326   0.410   3.048   5.299 -0.5331  0.4363  1.5792
18945TIP3    H278327   0.348   2.948   5.394  1.2944 -2.5687 -0.3013
18946TIP3   OH278328   4.438   4.464   2.231 -0.3341  0.2567 -0.2437
18946TIP3    H178329   4.425   4.558   2.226  1.3212  0.4466 -1.4316
18946TIP3    H278330   4.532   4.453   2.248 -0.7599 -1.1566  1.3856
18947TIP3   OH278331   4.374   0.227  12.904 -0.9480 -0.2169  0.2626
18947TIP3    H178332   4.397   0.316  12.931 -2.0884  0.2251 -0.2020
18947TIP3    H278333   4.445   0.173  12.939 -1.1316  0.6494  2.0740
18948TIP3   OH278334   0.653   0.977  13.582  0.0353 -0.3434  0.2535
18948TIP3    H178335   0.611   0.964  13.667 -1.1342  2.0402  0.0917
18948TIP3    H278336   0.745   0.995  13.604  0.0178 -1.0432  0.9245
18949TIP3   OH278337   5.757   1.719  15.745 -0.0680 -0.2370 -0.3148
18949TIP3    H178338   5.802   1.640  15.776  2.0948  0.5849 -1.2298
18949TIP3    H278339   5.736   1.700  15.654  0.7139  0.3067 -0.6241
18950TIP3   OH278340   5.468   4.320  14.871 -0.2976  0.4157  0.4331
18950TIP3    H178341   5.525   4.249  14.841  0.8299  1.6390 -0.3232
18950TIP3    H278342   5.522   4.398  14.866 -1.8196  1.4813  0.3916
18951TIP3   OH278343   0.410   5.407  11.832 -0.0656 -0.2218  1.2489
18951TIP3    H178344   0.482   5.366  11.881 -0.1396  0.8738  2.3024
18951TIP3    H278345   0.424   5.379  11.742  1.0295 -0.9424  1.6239
18952TIP3   OH278346   5.679   3.004   0.223  0.0326  0.2050  0.5226
18952TIP3    H178347   5.599   3.041   0.186  0.3068  0.7265  0.4535
18952TIP3    H278348   5.660   2.910   0.232 -0.7329  0.3913  0.8896
18953TIP3   OH278349   6.294   0.146  16.556 -0.5836 -0.3418  0.1424
18953TIP3    H178350   6.275   0.093  16.633 -0.2323  0.2733  0.6598
18953TIP3    H278351   6.366   0.204  16.583 -1.5697  1.0396 -0.1036
18954TIP3   OH278352   3.531   6.502   5.145 -0.1219  0.0948  0.6809
18954TIP3    H178353   3.555   6.463   5.229  1.7877  4.9760  2.5666
18954TIP3    H278354   3.610   6.498   5.092  0.2558  1.6947  1.0774
18955TIP3   OH278355   5.487   5.181   4.561  0.2541 -0.2317 -0.3705
18955TIP3    H178356   5.462   5.256   4.508  0.9580  0.0198 -0.3479
18955TIP3    H278357   5.425   5.182   4.634  0.5880  0.6290 -0.0958
18956TIP3   OH278358   3.265   2.476   3.975 -0.1237  0.2005  0.6179
18956TIP3    H178359   3.301   2.543   4.033  0.8019  0.6459 -0.4536
18956TIP3    H278360   3.342   2.429   3.942 -0.6980 -0.6754  0.4985
18957TIP3   OH278361   5.080   3.069   5.699  0.0078 -0.0309 -0.2006
18957TIP3    H178362   5.123   2.987   5.724  1.6875  0.5683 -1.0341
18957TIP3    H278363   5.050   3.055   5.610 -0.5374 -0.0658 -0.0102
18958TIP3   OH278364   1.103   6.293  12.884 -0.4400 -0.1591 -0.7881
18958TIP3    H178365   1.066   6.209  12.909  1.3609 -1.1062 -1.2731
18958TIP3    H278366   1.033   6.356  12.902 -2.3690 -1.9200 -1.8636
18959TIP3   OH278367   4.572   3.196   3.082 -0.4079  0.0723  0.0055
18959TIP3    H178368   4.622   3.233   3.009 -0.2380  1.6132  0.8750
18959TIP3    H278369   4.575   3.264   3.150  0.3886 -1.7556  1.8717
18960TIP3   OH278370   2.313   4.217  11.914  0.6383  0.0520  0.4378
18960TIP3    H178371   2.397   4.200  11.871  1.2293 -0.4851  1.7735
18960TIP3    H278372   2.265   4.272  11.852  2.0357  0.5002 -0.2729
18961TIP3   OH278373   0.061   2.898  13.982 -0.2202  0.0692  0.0490
18961TIP3    H178374   0.020   2.917  14.066  0.8397 -0.2433  0.6384
18961TIP3    H278375  -0.012   2.899  13.919 -0.9487  0.7093  0.8984
18962TIP3   OH278376   4.830   5.490   0.109 -0.1272  0.3550 -0.0002
18962TIP3    H178377   4.803   5.555   0.044 -0.8459  0.3614  0.3015
18962TIP3    H278378   4.755   5.430   0.116  0.9379 -1.1278 -1.0651
18963TIP3   OH278379   0.283   3.901   4.936 -0.0912  0.8760 -0.5727
18963TIP3    H178380   0.366   3.871   4.898  0.4214 -0.7784  1.7578
18963TIP3    H278381   0.236   3.940   4.863  1.0364 -1.8203 -2.8284
18964TIP3   OH278382   0.000   2.996  16.106 -0.0852  0.1167  0.1171
18964TIP3    H178383   0.083   3.037  16.079 -0.2335 -0.2340 -0.9130
18964TIP3    H278384  -0.019   2.934  16.036 -0.1031 -1.4048  1.4430
18965TIP3   OH278385   4.779   1.325  14.722  0.4960  0.3067  0.5088
18965TIP3    H178386   4.689   1.291  14.720  0.6985 -0.1390 -1.6458
18965TIP3    H278387   4.801   1.327  14.816 -1.8057  0.5708  1.0757
18966TIP3   OH278388   0.154   6.554  13.035  0.1931 -0.5117  0.2329
18966TIP3    H178389   0.101   6.561  12.956  0.5238 -1.8012 -0.1177
18966TIP3    H278390   0.101   6.595  13.104  0.0480  0.9143 -0.7155
18967TIP3   OH278391   1.409   6.518   3.768  0.1567  0.5444  0.2427
18967TIP3    H178392   1.314   6.510   3.753  0.5088 -1.4826 -1.1305
18967TIP3    H278393   1.419   6.516   3.863 -1.1198 -0.1199  0.3751
18968TIP3   OH278394   3.096   1.622  14.181 -0.2847 -0.2189  0.1098
18968TIP3    H178395   3.181   1.589  14.211  0.3050  1.9742  0.9096
18968TIP3    H278396   3.118   1.680  14.108 -1.1835 -0.3119 -0.2350
18969TIP3   OH278397   6.011   1.771  14.314 -0.1300  0.2635  0.1587
18969TIP3    H178398   6.097   1.807  14.334 -0.2791  0.6575  0.0869
18969TIP3    H278399   5.952   1.816  14.375 -0.4723  0.8970 -0.6392
18970TIP3   OH278400   1.223   1.260   2.545  0.0902 -0.2299 -0.1090
18970TIP3    H178401   1.203   1.173   2.512 -0.0361  0.0894 -0.8791
18970TIP3    H278402   1.193   1.259   2.636  1.1290 -1.3473  0.2239
18971TIP3   OH278403   2.962   3.122  15.768  0.1334 -0.0498  0.4468
18971TIP3    H178404   2.918   3.043  15.798  3.0913 -1.4709  1.1790
18971TIP3    H278405   3.042   3.091  15.726  0.6417  2.4831 -0.5469
18972TIP3   OH278406   0.544   4.589  13.438  0.0905  0.0679 -0.0782
18972TIP3    H178407   0.455   4.564  13.411  0.0509  1.2411 -1.0658
18972TIP3    H278408   0.551   4.682  13.415  1.5517  0.0030  0.0757
18973TIP3   OH278409   1.422   3.522  13.248 -0.1958  0.1746  0.4764
18973TIP3    H178410   1.373   3.447  13.216  0.4853  0.6265 -1.6613
18973TIP3    H278411   1.464   3.490  13.328 -0.8221 -1.3785  0.2068
18974TIP3   OH278412   5.783   0.056   1.415  0.2046 -0.3111 -0.3269
18974TIP3    H178413   5.828   0.140   1.404 -0.0675 -0.1431 -0.1561
18974TIP3    H278414   5.847   0.000   1.461  0.8566 -0.6015 -1.5756
18975TIP3   OH278415   5.570   4.235   0.694 -0.2107  0.7027 -0.7939
18975TIP3    H178416   5.532   4.231   0.606  2.6119 -0.9770 -2.0435
18975TIP3    H278417   5.609   4.148   0.707  2.6458  2.0937  0.5502
18976TIP3   OH278418   3.642   1.951  11.162 -0.6825 -0.1492  0.3151
18976TIP3    H178419   3.552   1.946  11.129  0.0968 -0.3805 -1.8598
18976TIP3    H278420   3.662   1.862  11.191 -1.6792  0.2468  2.3411
18977TIP3   OH278421   0.959   2.570  14.622 -0.5472  0.5200 -0.0217
18977TIP3    H178422   1.054   2.577  14.625 -0.4908 -0.6230  0.9317
18977TIP3    H278423   0.939   2.552  14.530  0.1699  0.4055 -0.1591
18978TIP3   OH278424   5.584   3.944  12.688 -0.4288 -0.0063 -0.0558
18978TIP3    H178425   5.607   3.968  12.598 -0.0521  3.1780  0.8175
18978TIP3    H278426   5.644   3.872  12.710  2.2762  1.8560 -1.0460
18979TIP3   OH278427   5.853   2.240   2.121  0.1496 -0.3876 -0.6153
18979TIP3    H178428   5.771   2.229   2.072 -0.2134 -1.2683  0.1730
18979TIP3    H278429   5.826   2.288   2.200  0.4983 -0.1548 -0.6396
18980TIP3   OH278430   6.103   6.108  13.337  0.6210 -0.3268  0.1068
18980TIP3    H178431   6.082   6.017  13.361  1.5948 -0.3857  0.7551
18980TIP3    H278432   6.045   6.127  13.263 -1.1497 -0.7634  1.3253
18981TIP3   OH278433   5.356   2.684   5.489 -0.2172  0.4903  0.2726
18981TIP3    H178434   5.428   2.690   5.552 -2.1621  0.7135  2.5538
18981TIP3    H278435   5.386   2.621   5.424  2.3718  1.2206  0.7353
18982TIP3   OH278436   4.987   5.197   5.010 -0.3761 -0.4549 -0.2771
18982TIP3    H178437   4.932   5.119   5.011  1.0522 -1.4989  4.1706
18982TIP3    H278438   4.941   5.260   5.064  0.0062  0.7512 -1.3222
18983TIP3   OH278439   0.865   4.601   1.100 -0.1790 -0.4518  0.2053
18983TIP3    H178440   0.823   4.610   1.185 -2.1730 -0.1216 -0.7906
18983TIP3    H278441   0.958   4.597   1.120 -0.5349  0.9234  2.3000
18984TIP3   OH278442   0.458   3.945   2.032 -0.1438  0.3250  0.6455
18984TIP3    H178443   0.423   4.011   2.092 -3.6670 -0.6954 -0.1586
18984TIP3    H278444   0.516   3.994   1.973 -0.5692  2.1955  1.7256
18985TIP3   OH278445   3.968   1.966  17.005 -0.1338  0.4701 -0.6470
18985TIP3    H178446   3.958   1.874  16.981 -1.8411 -0.1206  2.1505
18985TIP3    H278447   3.882   2.005  16.987  0.4446  1.4251 -1.3795
18986TIP3   OH278448   1.503   6.015  16.787 -0.1743  0.0700 -0.2775
18986TIP3    H178449   1.558   6.026  16.709  0.1050 -0.1888 -0.1202
18986TIP3    H278450   1.506   5.920  16.804 -0.2226  0.1276  0.0539
18987TIP3   OH278451   4.525   0.832   4.518 -0.1269 -0.3214 -0.1796
18987TIP3    H178452   4.544   0.907   4.463  0.1776 -0.6173 -0.4787
18987TIP3    H278453   4.474   0.773   4.462 -1.3185  0.1461  0.3886
18988TIP3   OH278454   4.566   1.522   5.084 -0.3723  0.0842  0.0112
18988TIP3    H178455   4.648   1.550   5.044 -0.0546  1.5262  1.5974
18988TIP3    H278456   4.542   1.443   5.036 -1.3515  3.0514 -4.7578
18989TIP3   OH278457   3.378   0.046   4.734  0.7063  0.3053  0.6530
18989TIP3    H178458   3.347  -0.045   4.742 -1.2164  1.0302  1.7374
18989TIP3    H278459   3.396   0.057   4.641 -1.8521 -0.3169  0.0544
18990TIP3   OH278460   0.796   0.429   1.008 -0.1659  0.2124 -0.1518
18990TIP3    H178461   0.878   0.386   0.983  0.5184  1.7740 -0.6829
18990TIP3    H278462   0.751   0.444   0.925  0.2271  1.7263 -0.1019
18991TIP3   OH278463   2.626   2.215  10.975 -0.2554 -0.0498 -0.0109
18991TIP3    H178464   2.550   2.208  11.033 -0.7574  2.3382 -0.3230
18991TIP3    H278465   2.620   2.139  10.918 -2.4169  0.1022 -0.0281
18992TIP3   OH278466   4.202   4.509   5.508 -0.6611 -0.1364 -0.0208
18992TIP3    H178467   4.227   4.418   5.522 -0.4038  0.1654  1.6276
18992TIP3    H278468   4.106   4.508   5.507 -0.6585 -0.6630 -1.8514
18993TIP3   OH278469   4.235   6.752  12.083  0.8269  0.2848 -0.1388
18993TIP3    H178470   4.248   6.840  12.049  1.0678  0.9253  1.5632
18993TIP3    H278471   4.154   6.757  12.133  1.3714 -0.2024  0.7984
18994TIP3   OH278472   5.721   6.431   4.359  0.1225  0.2298 -0.4506
18994TIP3    H178473   5.713   6.522   4.388  0.1796 -0.4454  1.7798
18994TIP3    H278474   5.631   6.398   4.359  0.1124  0.2621 -1.1544
18995TIP3   OH278475   3.070   2.532   1.737  0.7496 -0.0652  0.0891
18995TIP3    H178476   3.019   2.454   1.718 -1.0083  0.6754  1.6132
18995TIP3    H278477   3.089   2.527   1.830  2.9848 -0.0228 -0.3330
18996TIP3   OH278478   6.062   1.179  13.994 -0.0935 -0.4026 -0.1467
18996TIP3    H178479   6.080   1.244  13.927  1.2756  2.2684  2.7360
18996TIP3    H278480   5.980   1.209  14.035 -0.9284 -2.0223 -0.5654
18997TIP3   OH278481   3.023   3.671  13.785 -0.5166  0.1551  0.1654
18997TIP3    H178482   3.104   3.621  13.777 -0.7949 -0.4612  0.9929
18997TIP3    H278483   2.954   3.605  13.771 -0.8795  0.4841  0.4095
18998TIP3   OH278484   2.983   5.647   0.256  0.2044  0.2513  0.5797
18998TIP3    H178485   3.039   5.601   0.318  1.8077  0.8673 -0.3773
18998TIP3    H278486   3.015   5.737   0.256  0.8382  0.0775 -1.7859
18999TIP3   OH278487   3.563   2.496  12.476 -0.0654 -0.2380 -0.2663
18999TIP3    H178488   3.572   2.509  12.382  3.1441 -1.9597 -0.2902
18999TIP3    H278489   3.635   2.548  12.514 -1.0664  0.1030  1.1999
19000TIP3   OH278490   3.728   5.117   4.162  0.3941  0.1398  0.5342
19000TIP3    H178491   3.676   5.138   4.084  1.3921  1.2550  0.1570
19000TIP3    H278492   3.663   5.092   4.228 -0.6013  1.0840 -0.0611
19001TIP3   OH278493   2.320   6.060   1.141  0.0403 -0.3591  0.2248
19001TIP3    H178494   2.268   5.996   1.092 -1.3266  0.4799  0.5774
19001TIP3    H278495   2.373   6.104   1.075 -0.5363 -0.4236 -0.2795
19002TIP3   OH278496   1.383   4.061  16.238  0.3204  0.4616 -0.2590
19002TIP3    H178497   1.318   4.122  16.205  0.3299  0.1505 -0.8552
19002TIP3    H278498   1.370   4.060  16.333 -0.4526  0.4971 -0.3666
19003TIP3   OH278499   2.166   2.953  14.504  0.2532  0.2220  0.1455
19003TIP3    H178500   2.105   2.897  14.552  0.4756  0.3642  0.6066
19003TIP3    H278501   2.130   3.041  14.514  0.8741  0.3908  0.9725
19004TIP3   OH278502   3.769   0.313   5.442 -0.3805  0.7657  0.2989
19004TIP3    H178503   3.793   0.229   5.401 -2.0597  0.8502 -0.8900
19004TIP3    H278504   3.677   0.303   5.464 -0.8692  2.6868 -0.8307
19005TIP3   OH278505   3.246   1.458   3.077 -0.4878 -0.6355 -0.5421
19005TIP3    H178506   3.166   1.500   3.110 -0.4976 -1.4689  0.5425
19005TIP3    H278507   3.278   1.406   3.151  0.1482 -1.6339 -1.4983
19006TIP3   OH278508   1.199   0.822   2.528  0.0858 -0.0060 -0.6817
19006TIP3    H178509   1.229   0.832   2.438 -1.1821  1.2766 -0.9700
19006TIP3    H278510   1.144   0.898   2.544  0.3019 -0.2189  1.1850
19007TIP3   OH278511   3.956   0.172  13.975 -0.3077 -0.9127 -0.4503
19007TIP3    H178512   4.008   0.243  14.013 -2.1063  0.9741 -1.4161
19007TIP3    H278513   3.926   0.121  14.051 -1.3829  1.0572  0.4682
19008TIP3   OH278514   1.855   6.717   3.631 -0.4919 -0.1948 -0.2639
19008TIP3    H178515   1.866   6.793   3.574 -0.5922 -0.9289 -1.2814
19008TIP3    H278516   1.767   6.685   3.612 -0.5254 -0.4509  0.3047
19009TIP3   OH278517   0.849   1.785  12.871  0.1832 -0.4912 -0.3824
19009TIP3    H178518   0.906   1.786  12.794  0.2157  0.1853 -0.3453
19009TIP3    H278519   0.792   1.861  12.860  0.5684 -0.0613  0.5525
19010TIP3   OH278520   3.576   0.148  14.045 -0.2844 -0.0767  0.0699
19010TIP3    H178521   3.605   0.089  13.976  0.5708  0.4454 -0.0306
19010TIP3    H278522   3.530   0.092  14.108  0.6731 -0.8694  0.0640
19011TIP3   OH278523   3.079   0.898  13.774  0.0837  0.0599  0.4072
19011TIP3    H178524   3.145   0.952  13.816 -0.9839  1.8736 -0.1899
19011TIP3    H278525   3.000   0.912  13.826 -0.2768 -0.6962  0.0658
19012TIP3   OH278526   1.188   1.927   0.715  0.6546 -0.2013  0.5709
19012TIP3    H178527   1.118   1.904   0.776  1.8734 -1.5915  1.4719
19012TIP3    H278528   1.160   1.892   0.631 -0.4723  0.6637  0.5827
19013TIP3   OH278529   0.473   6.278   3.750 -0.5683  0.1848 -0.4208
19013TIP3    H178530   0.470   6.262   3.656  0.8640 -0.5266 -0.3666
19013TIP3    H278531   0.560   6.316   3.765 -0.3452 -0.7448  0.7539
19014TIP3   OH278532   2.478   1.948   5.463 -0.0135  0.0246  0.3889
19014TIP3    H178533   2.464   2.027   5.515  0.6079 -0.6141  1.5423
19014TIP3    H278534   2.394   1.902   5.466 -0.2317  0.3929  0.1077
19015TIP3   OH278535   4.136   0.168   6.061 -0.7163  0.5264 -0.5166
19015TIP3    H178536   4.173   0.096   6.009  0.0466  1.0902 -0.7573
19015TIP3    H278537   4.135   0.134   6.150  0.4087  0.5166 -0.5046
19016TIP3   OH278538   6.236   4.651   1.177 -0.0959  0.7382  0.4221
19016TIP3    H178539   6.181   4.659   1.255  1.3782  1.5261  1.3952
19016TIP3    H278540   6.174   4.629   1.107 -1.2159 -1.9496  2.1496
19017TIP3   OH278541   3.756   0.094  12.747  0.1595  0.7843 -0.8307
19017TIP3    H178542   3.716   0.177  12.720  0.6424  0.6335 -2.0538
19017TIP3    H278543   3.690   0.052  12.803  0.2243  2.3279  0.4149
19018TIP3   OH278544   0.770   0.333   4.095  0.6551  0.0051 -0.2971
19018TIP3    H178545   0.831   0.380   4.152  3.0941 -1.5932 -1.4650
19018TIP3    H278546   0.753   0.251   4.140 -1.6938  0.9761  0.6217
19019TIP3   OH278547   6.465   4.549  10.940  0.1107 -0.0301  0.2022
19019TIP3    H178548   6.513   4.540  11.023  0.3288  0.7182  0.1593
19019TIP3    H278549   6.465   4.461  10.904 -0.5488 -0.4961  1.3094
19020TIP3   OH278550   2.237   4.111   3.095 -0.8960  0.1964  0.1972
19020TIP3    H178551   2.200   4.199   3.084 -1.5963  0.2755  2.8971
19020TIP3    H278552   2.332   4.125   3.091 -1.0175  0.9515 -0.2628
19021TIP3   OH278553   3.539   0.805   2.525  0.2649  0.2701 -0.2540
19021TIP3    H178554   3.469   0.859   2.488 -1.7796  0.0735  3.1274
19021TIP3    H278555   3.594   0.868   2.573  1.5595  0.1993 -1.6103
19022TIP3   OH278556   6.424   5.932  11.840  0.3961  0.2380 -0.5444
19022TIP3    H178557   6.514   5.899  11.834 -0.6111 -2.4200 -1.1913
19022TIP3    H278558   6.413   5.987  11.763  0.9655 -0.6513 -1.2579
19023TIP3   OH278559   3.836   2.565   3.385  0.1209 -0.2915 -0.4789
19023TIP3    H178560   3.922   2.566   3.344  0.6071 -0.4977  0.5352
19023TIP3    H278561   3.850   2.523   3.470 -0.7588  0.7177  0.1740
19024TIP3   OH278562   1.265   4.103   4.250 -0.5203  0.0088  0.3336
19024TIP3    H178563   1.208   4.026   4.257 -0.3965 -0.1062  0.0416
19024TIP3    H278564   1.295   4.118   4.340 -2.2723  1.0259  0.7846
19025TIP3   OH278565   1.119   2.115   3.892  0.4693  0.0053 -0.3604
19025TIP3    H178566   1.061   2.154   3.826 -1.2490  2.2321  2.3603
19025TIP3    H278567   1.110   2.021   3.879 -1.8490  0.3681 -1.6252
19026TIP3   OH278568   6.512   4.424  11.729 -0.4739  0.4814  0.4888
19026TIP3    H178569   6.422   4.446  11.751  0.3322  2.6653  1.7160
19026TIP3    H278570   6.514   4.425  11.633 -2.1161 -1.2475  0.3932
19027TIP3   OH278571   0.271   0.333  16.539  0.6008 -0.0449 -0.3622
19027TIP3    H178572   0.187   0.307  16.504  1.2674 -0.8991 -1.3611
19027TIP3    H278573   0.253   0.409  16.593 -0.9087 -0.6450 -0.0103
19028TIP3   OH278574   3.952   3.582  12.278  0.7896  0.7512  0.1874
19028TIP3    H178575   3.868   3.607  12.240  0.4695 -0.5721 -0.0023
19028TIP3    H278576   4.009   3.570  12.202  1.2050  1.7911  0.3225
19029TIP3   OH278577   1.311   1.057   1.139 -0.1799  0.7421  0.0471
19029TIP3    H178578   1.287   1.140   1.097 -0.1887  1.1501  0.8448
19029TIP3    H278579   1.406   1.063   1.152 -0.5239  1.7279  2.4056
19030TIP3   OH278580   0.596   2.491  14.353 -0.4075 -0.5366 -0.2790
19030TIP3    H178581   0.626   2.411  14.311  1.0318  0.0394 -0.3841
19030TIP3    H278582   0.646   2.496  14.434  1.5899  1.6571 -1.5699
19031TIP3   OH278583   1.560   3.221   4.587 -0.3929  0.0414 -0.5448
19031TIP3    H178584   1.521   3.149   4.636 -1.0364  0.9242  0.2708
19031TIP3    H278585   1.551   3.297   4.645 -1.1982  1.1103 -2.0279
19032TIP3   OH278586   2.792   4.986  16.788 -0.1062  0.2349 -0.0250
19032TIP3    H178587   2.858   4.963  16.854 -0.3280  0.3666  0.2411
19032TIP3    H278588   2.817   5.074  16.759  0.6235 -0.2529 -0.8961
19033TIP3   OH278589   4.890   5.516  14.407 -0.2084  0.2997  0.0145
19033TIP3    H178590   4.818   5.453  14.399  0.1877  0.0282 -1.7866
19033TIP3    H278591   4.847   5.601  14.418 -0.8066  0.0507 -0.3603
19034TIP3   OH278592   1.314   3.798  13.073 -0.0322 -0.6508  0.3953
19034TIP3    H178593   1.386   3.749  13.112  1.1694  0.8552  0.0977
19034TIP3    H278594   1.329   3.794  12.979  0.6899  1.1582  0.4044
19035TIP3   OH278595   5.737   4.014  15.011 -0.1882 -0.2217 -0.5171
19035TIP3    H178596   5.711   3.982  15.097 -0.8081  0.2575 -0.5207
19035TIP3    H278597   5.654   4.029  14.965  0.1236  0.0936 -0.9872
19036TIP3   OH278598   2.172   5.473   5.207  0.2254 -0.2286  1.1003
19036TIP3    H178599   2.218   5.428   5.277 -0.3369 -1.0447  0.9521
19036TIP3    H278600   2.240   5.494   5.143  0.6210 -0.1182  1.5556
19037TIP3   OH278601   1.458   1.119   0.500 -0.3635  0.1164  0.4537
19037TIP3    H178602   1.515   1.197   0.501 -0.1620  0.0614 -2.1038
19037TIP3    H278603   1.370   1.155   0.488 -0.3153 -0.0148 -0.3217
19038TIP3   OH278604   3.131   4.198   3.973 -0.0573 -0.2523  0.5180
19038TIP3    H178605   3.199   4.167   4.033 -1.4748 -0.4775  2.0149
19038TIP3    H278606   3.104   4.282   4.009 -0.7192 -0.2452  0.0173
19039TIP3   OH278607   6.380   1.847  12.079 -0.0614  0.1984  0.4830
19039TIP3    H178608   6.447   1.852  12.147  1.5298 -1.7597 -0.8813
19039TIP3    H278609   6.335   1.765  12.095 -0.4281  0.2698 -0.1611
19040TIP3   OH278610   3.420   3.976   3.095  0.2048 -0.3677 -0.1521
19040TIP3    H178611   3.355   3.908   3.081  1.7777 -2.4164  1.9453
19040TIP3    H278612   3.379   4.037   3.156  0.4421 -2.0882  1.8163
19041TIP3   OH278613   4.020   0.687   2.098 -0.6982 -0.2548 -0.1430
19041TIP3    H178614   3.947   0.694   2.159 -0.6608  1.4029 -0.2576
19041TIP3    H278615   3.979   0.673   2.013 -0.8258 -0.6493 -0.0184
19042TIP3   OH278616   0.316   6.721  14.205 -0.3266 -0.0822 -0.1337
19042TIP3    H178617   0.310   6.759  14.293  0.8509  0.4468 -0.2733
19042TIP3    H278618   0.253   6.772  14.153  0.0170  0.5635  0.0746
19043TIP3   OH278619   4.276   3.768   0.809  0.3138  0.9502 -0.2332
19043TIP3    H178620   4.190   3.757   0.768  1.2572  1.2085 -2.3424
19043TIP3    H278621   4.259   3.758   0.902 -1.8178 -0.2077 -0.7041
19044TIP3   OH278622   6.694   4.685   5.603  0.2089 -0.0551  0.6688
19044TIP3    H178623   6.712   4.681   5.509  1.8531  1.3798  0.8991
19044TIP3    H278624   6.641   4.607   5.621 -0.5791 -0.0640 -1.5361
19045TIP3   OH278625   2.008   6.112  14.401  0.4028  0.0767 -0.5668
19045TIP3    H178626   2.055   6.189  14.371 -3.7671  2.3129 -1.6806
19045TIP3    H278627   2.000   6.056  14.323 -1.3666  1.1250 -1.1728
19046TIP3   OH278628   1.875   2.621  14.821  0.1473  0.5032  0.1297
19046TIP3    H178629   1.787   2.658  14.828 -0.0381  0.3220 -1.1566
19046TIP3    H278630   1.861   2.532  14.788  0.7445  0.0813  0.9867
19047TIP3   OH278631   5.667   1.037  10.984  0.4682 -0.8351 -0.8204
19047TIP3    H178632   5.595   1.097  10.969  0.6444 -0.5202 -0.4307
19047TIP3    H278633   5.648   0.961  10.929  1.6539  0.7219 -3.4381
19048TIP3   OH278634   5.771   3.669  15.853 -0.4923  0.3046 -0.0393
19048TIP3    H178635   5.808   3.755  15.832  0.9003  0.0162  1.1663
19048TIP3    H278636   5.832   3.631  15.915 -1.6388 -1.1505  0.2290
19049TIP3   OH278637   3.357   5.526  13.525  0.1363 -0.0058 -0.2166
19049TIP3    H178638   3.352   5.507  13.619  0.4215  1.4050  0.0957
19049TIP3    H278639   3.440   5.489  13.497  0.1714 -0.2048  0.1446
19050TIP3   OH278640   6.585   1.275   3.041  0.2479  0.6068  0.1671
19050TIP3    H178641   6.671   1.285   3.002  0.1352  0.7097 -0.0559
19050TIP3    H278642   6.585   1.186   3.077 -0.5280 -0.4294 -2.2784
19051TIP3   OH278643   1.800   2.577   5.391  0.3090  1.2134 -0.3055
19051TIP3    H178644   1.804   2.530   5.308 -0.4309  0.2121  0.2132
19051TIP3    H278645   1.880   2.630   5.392  0.8144  0.4898 -1.2183
19052TIP3   OH278646   6.695   1.532   1.586 -0.3808 -0.2966 -0.3871
19052TIP3    H178647   6.619   1.505   1.638 -1.5383  1.8637 -0.8958
19052TIP3    H278648   6.690   1.479   1.507 -2.5960  1.3210 -1.3672
19053TIP3   OH278649   6.128   1.852  13.760 -0.6385  0.2056  0.3616
19053TIP3    H178650   6.170   1.936  13.776 -2.7945  0.9437  2.3852
19053TIP3    H278651   6.104   1.854  13.667  0.4407  1.3038  0.1049
19054TIP3   OH278652   3.738   0.186   2.480 -0.0297  0.2966  0.5507
19054TIP3    H178653   3.700   0.131   2.412  0.3162  0.0187  0.5812
19054TIP3    H278654   3.755   0.270   2.437 -0.0106  0.1902  0.3505
19055TIP3   OH278655   2.856   3.088  14.751  0.2202  0.2813  0.1931
19055TIP3    H178656   2.765   3.116  14.751 -0.2460 -1.0808  1.8590
19055TIP3    H278657   2.899   3.147  14.813  0.5494  1.1332 -0.8410
19056TIP3   OH278658   3.343   3.427  10.632  0.4871  0.3322 -0.3297
19056TIP3    H178659   3.297   3.478  10.565  0.5318  0.0166 -0.6085
19056TIP3    H278660   3.279   3.363  10.662  0.8416 -0.3659 -0.9998
19057TIP3   OH278661   6.471   5.201   2.893  0.0264 -0.4609  0.5044
19057TIP3    H178662   6.457   5.289   2.859 -1.5587 -2.0016 -3.0541
19057TIP3    H278663   6.564   5.184   2.879 -0.0764 -0.0804 -0.6502
19058TIP3   OH278664   4.363   4.619  10.518  0.1066 -0.2432  0.3598
19058TIP3    H178665   4.314   4.597  10.597 -0.9512 -0.6728 -0.3938
19058TIP3    H278666   4.371   4.535  10.471 -0.7607  0.3124 -0.7948
19059TIP3   OH278667   6.675   0.151   4.644 -0.2421  0.2542 -0.2380
19059TIP3    H178668   6.702   0.241   4.664 -0.8742  0.6678 -1.1733
19059TIP3    H278669   6.600   0.136   4.701 -0.2292  0.3824 -0.1872
19060TIP3   OH278670   4.064   5.080   5.869 -0.1857 -0.5762 -0.0618
19060TIP3    H178671   4.003   5.151   5.847  0.6280  0.4325  0.8502
19060TIP3    H278672   4.066   5.025   5.791  0.3888  1.2716 -1.3910
19061TIP3   OH278673   0.143   4.796  16.662 -0.0518  0.3199  0.0373
19061TIP3    H178674   0.122   4.711  16.702 -1.7205  1.4359  1.6725
19061TIP3    H278675   0.069   4.814  16.605 -0.7114  1.5631  1.2417
19062TIP3   OH278676   2.630   5.567  12.709  0.2493 -0.3615  0.3376
19062TIP3    H178677   2.606   5.543  12.798 -1.2118 -0.0162  0.0394
19062TIP3    H278678   2.724   5.584  12.714 -0.0822  1.1246  2.1313
19063TIP3   OH278679   2.707   4.451  16.964  0.5715 -0.1215 -0.2050
19063TIP3    H178680   2.625   4.501  16.956  1.0518  0.5629 -0.9342
19063TIP3    H278681   2.775   4.518  16.963  1.0854 -0.5901  1.7149
19064TIP3   OH278682   4.769   5.317   1.651 -0.2285 -0.4034  0.0272
19064TIP3    H178683   4.794   5.265   1.575  2.5863 -0.6620  1.0507
19064TIP3    H278684   4.801   5.405   1.632 -0.7558 -0.1568  0.2887
19065TIP3   OH278685   5.894   2.222   1.318 -0.3781  0.3844  0.7424
19065TIP3    H178686   5.935   2.142   1.284  1.1649  1.3923  0.1567
19065TIP3    H278687   5.822   2.240   1.258  1.5866  1.4899 -1.3449
19066TIP3   OH278688   0.031   2.675  14.623  0.1465  0.5521  0.2884
19066TIP3    H178689   0.081   2.714  14.551  0.6504 -0.3027  0.1691
19066TIP3    H278690   0.031   2.581  14.605 -1.1274  0.4908  0.5297
19067TIP3   OH278691   5.884   3.572  15.157  0.4412 -0.1700  0.2028
19067TIP3    H178692   5.956   3.566  15.094  1.0386 -1.0459  0.9605
19067TIP3    H278693   5.925   3.599  15.239 -0.0920 -0.6762  0.6417
19068TIP3   OH278694   0.167   2.742  14.367 -0.5301  0.2397 -0.0109
19068TIP3    H178695   0.148   2.651  14.344 -0.2934  0.2584 -0.2878
19068TIP3    H278696   0.205   2.779  14.287  1.8695 -0.1559  0.9021
19069TIP3   OH278697   4.878   1.615  14.074 -0.0921  0.1980 -0.2301
19069TIP3    H178698   4.861   1.655  14.159 -0.9945 -0.5281 -0.0628
19069TIP3    H278699   4.795   1.620  14.027  0.3538  0.4478 -1.0145
19070TIP3   OH278700   6.462   3.609   1.896  0.2554  0.0707 -0.3782
19070TIP3    H178701   6.557   3.614   1.904  0.2380  0.8148 -0.5265
19070TIP3    H278702   6.446   3.600   1.802  0.1391  1.5950 -0.5272
19071TIP3   OH278703   0.534   5.819  13.495 -0.2541 -0.1477  0.4383
19071TIP3    H178704   0.460   5.863  13.454 -0.3941 -1.2742 -0.5415
19071TIP3    H278705   0.516   5.726  13.483  0.1342 -0.4875  2.3112
19072TIP3   OH278706   3.062   0.184   5.786  0.4512  0.0000 -0.7288
19072TIP3    H178707   2.983   0.237   5.774 -0.9483 -2.2651 -1.8292
19072TIP3    H278708   3.030   0.100   5.819  2.6519 -0.1140  1.2469
19073TIP3   OH278709   2.486   4.411  13.108 -0.0267  0.6537 -0.1464
19073TIP3    H178710   2.529   4.326  13.119  0.2671  0.7327 -0.6931
19073TIP3    H278711   2.518   4.463  13.182  0.5529  0.6029 -0.3594
19074TIP3   OH278712   0.732   0.952   2.543 -0.2306  0.1215 -0.2324
19074TIP3    H178713   0.712   0.923   2.632  1.5196  2.2287  0.9040
19074TIP3    H278714   0.694   1.039   2.537  0.8108  0.5283 -1.0930
19075TIP3   OH278715   0.057   3.553  16.399  0.2919 -0.3170  0.0508
19075TIP3    H178716   0.147   3.571  16.370  0.3768  1.8236  1.5241
19075TIP3    H278717   0.016   3.640  16.405 -1.8771 -1.2663 -0.5380
19076TIP3   OH278718   0.178   0.053  12.438 -0.3448 -0.0370  0.3403
19076TIP3    H178719   0.148  -0.037  12.454  0.2106 -0.1478  0.7461
19076TIP3    H278720   0.135   0.077  12.355 -1.9194 -0.0363  1.1314
19077TIP3   OH278721   1.209   2.654  14.961 -0.2589 -0.0202  0.5189
19077TIP3    H178722   1.272   2.681  14.894 -0.7012 -1.8664 -0.6756
19077TIP3    H278723   1.262   2.607  15.026 -0.0954  0.2561  0.5880
19078TIP3   OH278724   3.224   1.688  16.485 -0.0982 -0.4122  0.4202
19078TIP3    H178725   3.228   1.774  16.443  1.8333 -0.8226 -0.3286
19078TIP3    H278726   3.183   1.704  16.570 -1.7340  0.8664 -0.5806
19079TIP3   OH278727   4.533   5.672   4.562 -0.3182 -0.2791 -0.5949
19079TIP3    H178728   4.575   5.608   4.620 -1.9737 -0.4739  0.4114
19079TIP3    H278729   4.486   5.619   4.498  0.6609 -0.0579 -1.5126
19080TIP3   OH278730   1.891   3.182  12.842 -0.5589 -0.8587 -0.1481
19080TIP3    H178731   1.968   3.131  12.814 -0.9402 -0.8807 -1.2009
19080TIP3    H278732   1.816   3.127  12.818 -0.9649  0.0648 -1.0683
19081TIP3   OH278733   6.732   0.748   3.784 -0.2730  0.0213 -0.1648
19081TIP3    H178734   6.785   0.669   3.780 -0.5756 -0.1790 -0.2371
19081TIP3    H278735   6.750   0.794   3.702  1.8328  1.2776  0.9599
19082TIP3   OH278736   5.928   6.394   4.914 -0.2911  0.0313  0.0657
19082TIP3    H178737   5.957   6.481   4.886 -0.0781  0.9446  2.9237
19082TIP3    H278738   5.834   6.393   4.899 -0.0646  0.1125 -1.4999
19083TIP3   OH278739   5.286   5.668   1.786 -0.3301 -0.2097 -0.5472
19083TIP3    H178740   5.375   5.686   1.758  0.9513 -2.9316  1.5861
19083TIP3    H278741   5.283   5.698   1.877 -1.8741  0.6025 -0.8277
19084TIP3   OH278742   1.134   6.012   2.485  0.3363  0.3480 -0.1572
19084TIP3    H178743   1.130   5.927   2.441 -0.5385  0.2610  0.0848
19084TIP3    H278744   1.227   6.035   2.484  0.4705 -0.2224 -0.9613
19085TIP3   OH278745   0.300   5.599  13.474  0.0765  0.3814 -0.0608
19085TIP3    H178746   0.205   5.585  13.470  0.3740 -1.4062 -1.1595
19085TIP3    H278747   0.332   5.576  13.387  1.3966  2.0621 -0.0491
19086TIP3   OH278748   0.171   1.516  15.266  0.4753 -0.0507 -0.0269
19086TIP3    H178749   0.126   1.599  15.281 -0.0625 -0.2659 -0.4013
19086TIP3    H278750   0.102   1.458  15.232  1.2191 -0.1509 -1.3942
19087TIP3   OH278751   6.383   4.497  12.025 -0.1293 -0.3270 -0.1334
19087TIP3    H178752   6.434   4.427  12.067 -1.6209 -2.2389 -1.4234
19087TIP3    H278753   6.292   4.468  12.033 -0.8557  1.8957  0.0351
19088TIP3   OH278754   2.331   2.786  10.646  0.1425 -0.3615  0.1554
19088TIP3    H178755   2.268   2.855  10.624  0.3266  0.2742  1.5547
19088TIP3    H278756   2.409   2.807  10.595 -0.0219  0.1178  0.1002
19089TIP3   OH278757   0.909   1.605  12.068  0.2318 -0.0750  0.5221
19089TIP3    H178758   0.824   1.563  12.053 -0.2794  0.7554  1.0361
19089TIP3    H278759   0.895   1.696  12.046  0.8846  0.1398  0.9795
19090TIP3   OH278760   6.484   1.283   0.641  0.0596  0.8595 -0.3678
19090TIP3    H178761   6.519   1.372   0.636 -1.0197  1.2366 -1.4664
19090TIP3    H278762   6.491   1.249   0.552 -0.7080  0.3012 -0.2208
19091TIP3   OH278763   0.261   2.676  17.208  0.0512 -0.1824  0.2738
19091TIP3    H178764   0.334   2.669  17.269 -0.9477 -2.3177  1.3126
19091TIP3    H278765   0.236   2.585  17.191 -1.6842  0.4799 -0.8751
19092TIP3   OH278766   4.555   6.453   3.935 -0.0903 -0.2307 -0.4558
19092TIP3    H178767   4.462   6.470   3.949 -0.5841 -1.7338 -1.7314
19092TIP3    H278768   4.583   6.408   4.015 -0.6715 -0.5376 -0.4223
19093TIP3   OH278769   1.733   3.307   5.277  0.2654  0.2161 -0.0956
19093TIP3    H178770   1.712   3.400   5.285 -0.7248 -0.0877  1.1270
19093TIP3    H278771   1.793   3.290   5.350 -1.1945 -0.5443  0.9363
19094TIP3   OH278772   4.774   5.982  16.797 -0.6129 -0.1075 -0.4565
19094TIP3    H178773   4.829   5.925  16.851  0.1830  0.6899 -0.4026
19094TIP3    H278774   4.770   6.064  16.847  0.5323  0.8047 -1.8304
19095TIP3   OH278775   0.776   2.233   3.025 -0.4196  0.4971  0.4084
19095TIP3    H178776   0.693   2.192   3.000  0.0985  1.2276 -2.6213
19095TIP3    H278777   0.759   2.327   3.019  0.3641  0.6606  0.6833
19096TIP3   OH278778   5.170   3.839  12.974 -0.8148  0.6731  0.2877
19096TIP3    H178779   5.226   3.843  12.897  0.0070  0.3043  0.8499
19096TIP3    H278780   5.178   3.925  13.015 -0.5078  0.5607  0.4667
19097TIP3   OH278781   4.499   4.594   2.828 -0.7149  0.3383  0.2554
19097TIP3    H178782   4.523   4.556   2.912  0.5571  0.7655  0.0853
19097TIP3    H278783   4.409   4.624   2.840 -0.0156  1.8362  1.9728
19098TIP3   OH278784   0.666   4.940  15.526  0.4841 -0.1834 -0.1770
19098TIP3    H178785   0.658   4.991  15.607 -0.1775  0.7891 -0.8484
19098TIP3    H278786   0.654   4.849  15.554  0.9153  0.0831  0.9184
19099TIP3   OH278787   4.322   3.078   3.834  0.2228 -0.0569  0.2720
19099TIP3    H178788   4.312   3.121   3.919  1.0666 -1.3684  1.0535
19099TIP3    H278789   4.360   3.146   3.777  0.9893  0.4075  1.3180
19100TIP3   OH278790   0.218   3.464   4.466  0.2798 -0.3930  0.5385
19100TIP3    H178791   0.247   3.400   4.402  0.8115 -0.7148  1.1015
19100TIP3    H278792   0.293   3.476   4.524  0.8442  2.0977 -0.6346
19101TIP3   OH278793   0.341   0.380  16.877 -0.4474  0.3798  0.1573
19101TIP3    H178794   0.403   0.437  16.831 -0.5460 -0.3917 -0.9446
19101TIP3    H278795   0.269   0.438  16.901  0.6190  1.2658  1.3553
19102TIP3   OH278796   3.106   4.554  12.779 -0.5405  0.0223  0.5157
19102TIP3    H178797   3.025   4.604  12.772 -1.4915 -1.5549 -0.0844
19102TIP3    H278798   3.099   4.510  12.864  0.1122  0.6026  0.8707
19103TIP3   OH278799   4.214   1.945  12.922  0.1724 -0.4394 -0.1439
19103TIP3    H178800   4.217   2.038  12.945  1.3096 -0.2109 -1.1154
19103TIP3    H278801   4.230   1.944  12.827 -0.6149 -1.5724 -0.2669
19104TIP3   OH278802   3.082   6.552   4.284 -0.2163 -0.1624  0.2702
19104TIP3    H178803   2.992   6.537   4.311 -0.5289  0.2062 -0.5278
19104TIP3    H278804   3.074   6.590   4.196  0.7150 -0.1856  0.1719
19105TIP3   OH278805   5.193   0.724   3.219 -0.3724  0.1779  0.2329
19105TIP3    H178806   5.197   0.807   3.172  1.8551  0.5329  1.0006
19105TIP3    H278807   5.267   0.726   3.280 -1.5042 -1.4836  1.7532
19106TIP3   OH278808   4.811   2.054   5.184 -0.8363  0.3327  0.2716
19106TIP3    H178809   4.847   1.969   5.158 -0.0025  1.1562 -1.3509
19106TIP3    H278810   4.717   2.044   5.174 -0.6701 -0.0809 -0.9392
19107TIP3   OH278811   5.434   4.307   1.329  0.0041 -0.1128  0.2520
19107TIP3    H178812   5.467   4.397   1.333 -3.7034  1.3923 -0.9747
19107TIP3    H278813   5.410   4.294   1.237 -0.9046 -1.8102  0.7016
19108TIP3   OH278814   4.098   4.496  13.070  0.3734  0.0614 -0.2097
19108TIP3    H178815   4.118   4.436  13.142 -0.1093 -1.4271 -1.3066
19108TIP3    H278816   4.004   4.489  13.058  0.2818  1.2261 -0.1888
19109TIP3   OH278817   0.958   5.493  11.269 -0.0180  0.1891 -0.0273
19109TIP3    H178818   0.928   5.406  11.295 -0.7167  0.2834 -0.5070
19109TIP3    H278819   0.905   5.514  11.192  0.7465  0.6807 -0.4181
19110TIP3   OH278820   1.419   3.721   2.881 -0.2067 -0.1230 -0.0058
19110TIP3    H178821   1.384   3.792   2.934  1.2237  1.0898 -0.6705
19110TIP3    H278822   1.341   3.673   2.851 -1.1527  0.8938  0.7934
19111TIP3   OH278823   5.142   6.648   5.604 -0.0975 -0.4334 -0.5055
19111TIP3    H178824   5.203   6.643   5.678  1.0666  4.0261 -0.9919
19111TIP3    H278825   5.173   6.581   5.543  0.2903 -2.6492  2.0418
19112TIP3   OH278826   2.193   0.235  12.044  0.5162  0.6762 -0.7550
19112TIP3    H178827   2.253   0.169  12.010  0.9822  0.9207 -0.4142
19112TIP3    H278828   2.167   0.203  12.130  1.7211  1.5391 -0.0571
19113TIP3   OH278829   6.504   1.626   5.333  0.0115  0.6240  0.2026
19113TIP3    H178830   6.534   1.539   5.359  0.5309  0.1637 -1.8382
19113TIP3    H278831   6.418   1.611   5.294  0.8686  0.7311 -1.8160
19114TIP3   OH278832   3.143   3.200   2.207  0.2374  0.5701 -0.3504
19114TIP3    H178833   3.232   3.174   2.181  0.1758  0.4252 -0.4219
19114TIP3    H278834   3.156   3.261   2.279  0.3574 -0.5109  0.5670
19115TIP3   OH278835   1.201   4.742   4.213  0.0915  0.2959 -0.3156
19115TIP3    H178836   1.288   4.707   4.234  0.1443  1.0458  0.7341
19115TIP3    H278837   1.144   4.710   4.283 -0.3154  0.4353 -0.5812
19116TIP3   OH278838   1.730   3.434   2.930 -0.1103  0.4986  0.0886
19116TIP3    H178839   1.743   3.496   3.002 -4.1762  0.0452  1.3208
19116TIP3    H278840   1.744   3.348   2.970 -1.3187  0.3008  0.0985
19117TIP3   OH278841   0.136   0.898  17.071  0.5294  0.0477  0.3047
19117TIP3    H178842   0.094   0.927  17.152  1.0411  2.4320 -0.2455
19117TIP3    H278843   0.064   0.872  17.014  0.0944 -0.3737  1.0415
19118TIP3   OH278844   4.006   3.455  16.379 -0.6370 -0.3356  0.2400
19118TIP3    H178845   4.068   3.391  16.414 -0.7261 -0.2328  0.5861
19118TIP3    H278846   3.920   3.423  16.409 -0.7529 -0.4915 -0.2604
19119TIP3   OH278847   3.074   1.049  14.107 -0.2173 -0.0682 -0.2924
19119TIP3    H178848   3.151   1.053  14.164  1.0362  0.8834 -2.0029
19119TIP3    H278849   3.069   1.137  14.069 -0.0025 -1.1762 -2.9452
19120TIP3   OH278850   4.317   2.893  10.754  0.0530  0.1350  0.3444
19120TIP3    H178851   4.390   2.898  10.815 -0.5595  1.3780  0.9731
19120TIP3    H278852   4.309   2.981  10.717 -1.3826  0.1141  0.5813
19121TIP3   OH278853   6.613   2.111   6.108  0.4090  0.1434 -0.0383
19121TIP3    H178854   6.669   2.085   6.035 -1.5895 -0.0418 -1.5468
19121TIP3    H278855   6.632   2.046   6.176  0.7257 -0.9828 -1.1770
19122TIP3   OH278856   6.187   4.194  11.848  0.3384  0.1300  0.1034
19122TIP3    H178857   6.148   4.269  11.893  0.7144 -0.7672  1.9606
19122TIP3    H278858   6.275   4.223  11.825 -0.1159  0.8525 -0.7352
19123TIP3   OH278859   6.812   1.306   4.875  0.5156  0.2094 -0.2302
19123TIP3    H178860   6.904   1.286   4.885  0.7538  0.4731 -1.6747
19123TIP3    H278861   6.801   1.391   4.918  1.0313  0.3580 -0.3867
19124TIP3   OH278862   1.916   3.377  15.441  0.5244 -0.5302 -0.2620
19124TIP3    H178863   1.857   3.430  15.493 -1.5030 -0.6342 -2.3934
19124TIP3    H278864   1.921   3.293  15.487 -0.9474 -0.4990 -0.0416
19125TIP3   OH278865   4.229   5.250  12.101 -0.0845 -0.2126  0.0024
19125TIP3    H178866   4.316   5.288  12.092 -0.7611  1.0298 -1.4404
19125TIP3    H278867   4.234   5.197  12.181  1.5160  1.1348  0.8199
19126TIP3   OH278868   0.741   5.687  15.889 -0.8424  0.6896 -0.6210
19126TIP3    H178869   0.666   5.650  15.936 -0.4870  0.0398 -0.5544
19126TIP3    H278870   0.741   5.643  15.804 -1.2474  1.5731 -1.0764
19127TIP3   OH278871   3.477   0.005  17.016 -0.1249 -0.1994 -0.0817
19127TIP3    H178872   3.406   0.057  17.053  0.7758  0.4911  0.7140
19127TIP3    H278873   3.466   0.013  16.922 -1.1372 -0.1433  0.0377
19128TIP3   OH278874   0.273   5.121  17.227 -0.0159 -0.5093  0.1152
19128TIP3    H178875   0.345   5.128  17.164  1.2691 -0.3059  1.5928
19128TIP3    H278876   0.315   5.119  17.312 -1.8001  0.2893  1.0512
19129TIP3   OH278877   1.243   0.699   4.620 -0.2329  0.6389  0.2291
19129TIP3    H178878   1.189   0.696   4.541  2.8909  0.4811 -1.9874
19129TIP3    H278879   1.255   0.608   4.646 -1.7593  0.7178  1.2990
19130TIP3   OH278880   6.041   6.065   5.782  0.5262  0.3564  0.8712
19130TIP3    H178881   5.972   6.057   5.716 -0.2529 -0.3778  1.7460
19130TIP3    H278882   5.994   6.061   5.866  1.7630 -1.8084  1.5145
19131TIP3   OH278883   2.144   3.402   3.726  0.2377 -0.6178 -0.7577
19131TIP3    H178884   2.191   3.388   3.808  0.0136  0.4621 -0.4363
19131TIP3    H278885   2.208   3.443   3.668  0.8545 -2.7533 -1.6541
19132TIP3   OH278886   3.351   1.368  11.871 -0.3811 -0.5087 -1.6698
19132TIP3    H178887   3.311   1.346  11.955 -2.9105  1.2884 -2.3435
19132TIP3    H278888   3.316   1.303  11.810  0.6609 -1.2007 -1.5291
19133TIP3   OH278889   5.195   0.737  13.403  0.4933 -0.0197 -0.1005
19133TIP3    H178890   5.260   0.785  13.454  0.0901 -1.0026  1.3885
19133TIP3    H278891   5.122   0.724  13.465  0.4709 -2.2603 -0.5678
19134TIP3   OH278892   6.077   3.437  16.915  0.6508 -0.1252  0.3566
19134TIP3    H178893   6.110   3.359  16.870  0.1206 -0.8990  1.3011
19134TIP3    H278894   6.045   3.493  16.844  2.4303 -0.0892 -0.4512
19135TIP3   OH278895   1.132   2.012   6.109  0.1847  0.1548 -0.3108
19135TIP3    H178896   1.048   2.050   6.135 -0.0303  0.0500 -0.8495
19135TIP3    H278897   1.141   2.034   6.017 -0.0227 -1.2426 -0.6825
19136TIP3   OH278898   1.761   4.888  13.376 -0.1165 -0.0426  0.8672
19136TIP3    H178899   1.744   4.904  13.283  0.8948  0.6123  0.7930
19136TIP3    H278900   1.694   4.939  13.421 -0.8874 -0.7098  0.4955
19137TIP3   OH278901   6.632   3.653   4.469  0.0630  0.6377  0.3733
19137TIP3    H178902   6.542   3.630   4.446 -0.1335  1.7550 -0.0099
19137TIP3    H278903   6.687   3.597   4.414 -0.3664 -2.0046  2.5501
19138TIP3   OH278904   2.682   6.285   4.451  0.4368  0.0703  0.1157
19138TIP3    H178905   2.597   6.259   4.414  0.2251 -0.0186  0.6609
19138TIP3    H278906   2.712   6.207   4.498  1.7152 -0.5391 -1.6591
19139TIP3   OH278907   0.612   6.628  13.098 -0.0373  0.1194 -0.1910
19139TIP3    H178908   0.524   6.611  13.063 -1.0166  2.9710  0.7445
19139TIP3    H278909   0.626   6.721  13.082  1.8824  0.1863  1.7807
19140TIP3   OH278910   3.108   6.500  12.207  0.6973  0.0428 -0.0443
19140TIP3    H178911   3.051   6.530  12.279  2.8907  0.2922  1.6595
19140TIP3    H278912   3.123   6.579  12.155  2.5609  0.8671  1.6940
19141TIP3   OH278913   3.327   6.256   3.453  0.7077 -0.4520 -0.3440
19141TIP3    H178914   3.299   6.279   3.541 -0.0353 -0.9673 -0.4411
19141TIP3    H278915   3.422   6.273   3.452  0.4958  0.7796  0.1483
19142TIP3   OH278916   4.790   4.315   3.820  0.3760 -0.5624  0.0170
19142TIP3    H178917   4.776   4.406   3.795  1.4296 -0.4998 -0.3950
19142TIP3    H278918   4.883   4.300   3.804 -0.1184 -2.2181 -1.5633
19143TIP3   OH278919   5.882   2.360  10.553 -0.0198  0.0946  0.2342
19143TIP3    H178920   5.916   2.424  10.616 -0.6338  1.7901 -1.0879
19143TIP3    H278921   5.955   2.301  10.536  1.0272  1.2934  0.4584
19144TIP3   OH278922   4.283   4.788  16.549 -0.6996  0.0115  0.3060
19144TIP3    H178923   4.191   4.801  16.569 -0.6245  1.7332 -0.3618
19144TIP3    H278924   4.326   4.786  16.635 -1.1151  1.2297  0.5504
19145TIP3   OH278925   1.994   2.820  14.698 -0.3022 -0.3109  0.1622
19145TIP3    H178926   1.963   2.893  14.752  1.9332 -0.3983  1.6305
19145TIP3    H278927   1.953   2.743  14.737 -1.4949 -0.0064 -0.4729
19146TIP3   OH278928   4.082   6.524  16.920  0.2244  0.3975  0.3246
19146TIP3    H178929   4.047   6.508  17.008  1.1594 -3.2530  0.1163
19146TIP3    H278930   4.016   6.487  16.862  0.0376  1.9972 -0.4935
19147TIP3   OH278931   2.894   5.650  15.873 -0.3284 -0.3506 -0.2301
19147TIP3    H178932   2.974   5.599  15.867 -0.1469 -0.3500  1.6233
19147TIP3    H278933   2.923   5.737  15.900 -0.8038  0.1440 -1.3204
19148TIP3   OH278934   1.407   5.417   2.628 -0.2128  0.1554  0.3574
19148TIP3    H178935   1.438   5.468   2.553  0.6661 -0.5282  0.2458
19148TIP3    H278936   1.486   5.398   2.678 -0.7971  0.6055  1.4590
19149TIP3   OH278937   2.096   5.001   5.978  0.0153 -0.1889 -0.4224
19149TIP3    H178938   2.079   5.069   5.912 -0.1661  0.3020  0.1304
19149TIP3    H278939   2.039   5.023   6.051 -0.3407 -1.1673 -0.3944
19150TIP3   OH278940   1.598   4.814  13.995 -0.4616  0.5844  0.4099
19150TIP3    H178941   1.681   4.815  14.043 -0.9142  1.5056  1.1739
19150TIP3    H278942   1.534   4.779  14.056 -0.1832 -2.5881 -0.9910
19151TIP3   OH278943   3.366   0.837   5.148 -0.5266  0.2311  0.0689
19151TIP3    H178944   3.379   0.816   5.055 -0.3045  0.7693 -0.0200
19151TIP3    H278945   3.342   0.753   5.188  0.6995 -0.2724 -0.2289
19152TIP3   OH278946   3.091   4.263   4.560  0.4437  0.5540 -0.2508
19152TIP3    H178947   3.121   4.172   4.557 -0.4385  0.2977 -2.3151
19152TIP3    H278948   3.135   4.300   4.637  2.4197 -1.0633 -0.5376
19153TIP3   OH278949   3.356   0.231  16.573  0.0627  0.1831 -0.2872
19153TIP3    H178950   3.337   0.200  16.485 -0.4363 -1.7492  0.4684
19153TIP3    H278951   3.302   0.310  16.583 -0.0575  0.2831 -1.5999
19154TIP3   OH278952   2.500   3.083  11.477 -0.0086  0.3573 -0.1452
19154TIP3    H178953   2.456   3.014  11.427 -0.8276  0.8806 -0.1491
19154TIP3    H278954   2.540   3.138  11.410  0.7041 -0.1381 -0.1411
19155TIP3   OH278955   4.696   1.051   1.153  0.2062 -0.0964 -0.1964
19155TIP3    H178956   4.684   1.126   1.210 -0.3902 -1.6149  1.7123
19155TIP3    H278957   4.643   1.071   1.076  1.2612  2.1037 -0.4102
19156TIP3   OH278958   4.063   2.344  14.371  0.0033  0.7685 -0.1054
19156TIP3    H178959   4.035   2.273  14.312 -1.9653 -1.1314  2.9953
19156TIP3    H278960   4.142   2.310  14.412 -0.4947  0.6787  0.7890
19157TIP3   OH278961   2.787   5.300   3.272  0.4636  0.2007  0.4170
19157TIP3    H178962   2.878   5.285   3.249  0.1570  0.2160 -0.8939
19157TIP3    H278963   2.760   5.220   3.317  0.8855 -0.1501  0.0484
19158TIP3   OH278964   5.644   6.744  16.620 -0.1029 -0.0417  0.3760
19158TIP3    H178965   5.640   6.789  16.535 -1.1357 -0.8975 -0.0346
19158TIP3    H278966   5.619   6.812  16.683 -1.3439  0.0626 -0.2124
19159TIP3   OH278967   6.561   2.694  12.564 -0.5874 -0.4267  0.2849
19159TIP3    H178968   6.510   2.651  12.495 -1.0331 -1.2350  1.1106
19159TIP3    H278969   6.611   2.624  12.605 -1.2316 -0.1572  1.5678
19160TIP3   OH278970   5.787   4.176   3.230 -0.6428  0.2928 -0.2955
19160TIP3    H178971   5.863   4.226   3.260 -1.6837  1.0582  1.1091
19160TIP3    H278972   5.780   4.196   3.137 -1.3422  3.1668  0.3440
19161TIP3   OH278973   0.867   4.046   5.725 -0.2680  0.6999 -0.1259
19161TIP3    H178974   0.908   3.966   5.692 -0.5305  1.2527 -1.8704
19161TIP3    H278975   0.807   4.016   5.793  1.7591 -0.2812  1.2423
19162TIP3   OH278976   2.025   1.803   4.857  0.2840 -0.3016  0.0491
19162TIP3    H178977   1.946   1.817   4.910 -1.4365 -2.2303 -1.8969
19162TIP3    H278978   2.096   1.794   4.921 -1.5982 -1.7916  2.0087
19163TIP3   OH278979   0.022   1.058  15.913  0.1889 -0.2799 -0.2036
19163TIP3    H178980   0.028   1.007  15.993  0.4076 -0.1326 -0.1243
19163TIP3    H278981  -0.062   1.104  15.919 -0.8221 -1.9690 -1.0670
19164TIP3   OH278982   1.447   2.999   4.719 -0.4494  0.4358 -0.1425
19164TIP3    H178983   1.414   2.916   4.684  1.4836 -0.4692  0.1627
19164TIP3    H278984   1.369   3.040   4.756 -0.9544 -2.5806  2.3569
19165TIP3   OH278985   2.583   1.596   3.124 -0.8337  0.1072 -0.3200
19165TIP3    H178986   2.608   1.640   3.043  0.3614 -0.0562 -0.0542
19165TIP3    H278987   2.514   1.650   3.161 -0.8710  0.5796 -1.0773
19166TIP3   OH278988   0.709   3.397   0.924  0.3838 -0.0032 -0.1917
19166TIP3    H178989   0.642   3.451   0.966  1.4169  1.2113 -0.0509
19166TIP3    H278990   0.746   3.454   0.856  0.0422 -1.2860 -1.4747
19167TIP3   OH278991   5.409   3.676  11.418  1.0143 -0.3270 -0.8335
19167TIP3    H178992   5.365   3.592  11.431 -0.6040  0.4883 -0.9084
19167TIP3    H278993   5.498   3.662  11.450  0.4026 -1.7151  0.3070
19168TIP3   OH278994   3.195   5.725  15.487  0.2512  0.2330 -0.1098
19168TIP3    H178995   3.251   5.648  15.485 -2.2832 -1.6807 -1.2917
19168TIP3    H278996   3.106   5.690  15.494 -0.9407  3.0760 -0.1412
19169TIP3   OH278997   3.679   5.478   2.321 -0.1428 -0.6010 -0.2553
19169TIP3    H178998   3.584   5.487   2.316 -0.0681 -0.3737 -1.5556
19169TIP3    H278999   3.695   5.384   2.312 -0.1699 -0.4779 -1.6866
19170TIP3   OH279000   6.310   3.868  16.529  0.7174  0.2121 -0.6115
19170TIP3    H179001   6.345   3.951  16.562  0.6536 -0.3538  0.9194
19170TIP3    H279002   6.259   3.892  16.452  1.2538  1.5074 -0.5728
19171TIP3   OH279003   2.966   1.484  15.693  0.2914  0.5542  0.4998
19171TIP3    H179004   2.885   1.438  15.716  0.1632  0.2278 -0.5688
19171TIP3    H279005   2.937   1.571  15.667 -0.0186 -0.4100 -2.5069
19172TIP3   OH279006   2.321   2.364   1.730  0.1173  0.3839  0.0792
19172TIP3    H179007   2.239   2.314   1.737 -0.4614  1.4088  0.8136
19172TIP3    H279008   2.375   2.331   1.802  0.1134  0.1423 -0.0268
19173TIP3   OH279009   5.231   4.454   3.659  0.0584 -0.3272 -0.0712
19173TIP3    H179010   5.214   4.530   3.715  0.3248 -1.6925  1.9199
19173TIP3    H279011   5.149   4.440   3.612 -0.8903 -0.4501  1.5899
19174TIP3   OH279012   3.160   1.563  11.671 -0.4191 -0.5398 -0.3352
19174TIP3    H179013   3.096   1.625  11.706 -0.1042 -0.4688  0.1316
19174TIP3    H279014   3.245   1.607  11.682 -0.2406 -0.8477 -0.4547
19175TIP3   OH279015   4.412   6.795  11.683  0.7132  0.2218  0.6223
19175TIP3    H179016   4.339   6.824  11.627  1.3980 -0.1373 -0.4719
19175TIP3    H279017   4.417   6.701  11.668  1.4090  0.2488  0.6916
19176TIP3   OH279018   4.792   4.735  13.739  0.7119  0.1904  0.3253
19176TIP3    H179019   4.797   4.646  13.706  0.6497 -0.9283  3.2000
19176TIP3    H279020   4.883   4.763  13.748  0.7454  0.1228  0.1820
19177TIP3   OH279021   6.552   5.945   4.404  0.2372  0.5629  0.3165
19177TIP3    H179022   6.634   5.894   4.411 -0.8619 -1.6673 -2.2288
19177TIP3    H279023   6.488   5.893   4.452  0.1048  1.9317  1.6574
19178TIP3   OH279024   6.306   5.661   3.550  0.8132  0.0318 -0.0756
19178TIP3    H179025   6.267   5.668   3.637 -0.8524  0.3137 -0.8242
19178TIP3    H279026   6.283   5.572   3.521  0.5628  0.2650 -0.5944
19179TIP3   OH279027   3.083   4.157  16.104  0.4333  0.2206 -0.1053
19179TIP3    H179028   3.077   4.067  16.074  1.2077 -0.3126  1.2676
19179TIP3    H279029   3.144   4.199  16.044  1.1406 -0.5326  0.0896
19180TIP3   OH279030   5.618   3.667  14.499  0.7199  0.3161 -0.5882
19180TIP3    H179031   5.712   3.656  14.486  0.6656 -0.7732 -0.1291
19180TIP3    H279032   5.609   3.692  14.591  0.4581 -1.1000 -0.2210
19181TIP3   OH279033   1.684   4.753  12.543 -0.1139 -0.2368  0.0946
19181TIP3    H179034   1.731   4.836  12.540 -1.6968  0.7484  1.5173
19181TIP3    H279035   1.678   4.731  12.636 -2.4050 -0.3465 -0.0351
19182TIP3   OH279036   1.276   0.881   5.095  0.2723 -0.5306  0.3637
19182TIP3    H179037   1.271   0.970   5.061  1.5951  0.1421  1.8232
19182TIP3    H279038   1.237   0.887   5.183 -0.3695 -1.5618  0.1559
19183TIP3   OH279039   5.090   1.172  13.544  0.4317 -0.1429 -0.1914
19183TIP3    H179040   5.036   1.109  13.592  0.2887 -0.3544 -0.6245
19183TIP3    H279041   5.180   1.142  13.558  0.4518  0.2771  0.6258
19184TIP3   OH279042   6.210   1.095   3.092  0.6845  0.0601  0.3745
19184TIP3    H179043   6.244   1.141   3.015 -1.6236  1.5281  0.1935
19184TIP3    H279044   6.182   1.165   3.151 -0.7638 -1.1089  1.0705
19185TIP3   OH279045   5.210   1.153   0.612 -0.1637 -0.3467 -0.3046
19185TIP3    H179046   5.243   1.124   0.527  0.3517 -0.5615 -0.0350
19185TIP3    H279047   5.282   1.205   0.649 -0.5061  0.0046 -0.1357
19186TIP3   OH279048   5.136   0.273  15.334 -0.2739  0.0142 -0.1974
19186TIP3    H179049   5.045   0.301  15.337 -0.6943 -1.4552  1.9908
19186TIP3    H279050   5.186   0.354  15.347 -1.3255  0.5008  0.9329
19187TIP3   OH279051   6.764   0.150  13.873  0.5799  0.1168 -0.0394
19187TIP3    H179052   6.716   0.092  13.814  0.8441  1.8714 -2.0363
19187TIP3    H279053   6.695   0.198  13.921  0.3656 -1.2639  1.0530
19188TIP3   OH279054   1.360   6.194   2.898 -0.0728  0.0298  0.2100
19188TIP3    H179055   1.432   6.237   2.853  1.3079 -1.0557  1.2947
19188TIP3    H279056   1.343   6.115   2.847  0.5027 -0.4558  0.7603
19189TIP3   OH279057   3.513   6.279  12.208 -0.7892  0.2508  0.7112
19189TIP3    H179058   3.454   6.350  12.234 -2.3014  0.1469 -2.3224
19189TIP3    H279059   3.456   6.205  12.189 -0.0063  0.8204 -4.5320
19190TIP3   OH279060   0.150   5.760  16.775  0.1064  0.5499 -0.4109
19190TIP3    H179061   0.128   5.771  16.683 -1.0545 -1.5869 -0.4082
19190TIP3    H279062   0.236   5.801  16.784  1.0305 -0.7884 -2.8361
19191TIP3   OH279063   2.078   2.301  14.361 -0.2772  0.2977  0.4550
19191TIP3    H179064   2.112   2.216  14.334 -0.6070 -0.3069  1.8587
19191TIP3    H279065   2.147   2.363  14.341 -0.2264 -0.2300 -1.0302
19192TIP3   OH279066   3.848   1.088   3.150  0.0990 -0.5474  0.1735
19192TIP3    H179067   3.759   1.072   3.118 -0.2066  1.0211  0.2202
19192TIP3    H279068   3.838   1.153   3.219  1.2657 -0.5422  0.3506
19193TIP3   OH279069   3.789   5.642   1.701  0.2116 -0.4163  0.2471
19193TIP3    H179070   3.737   5.692   1.638 -0.6214 -2.1418 -0.4694
19193TIP3    H279071   3.731   5.572   1.730  0.8315 -0.0768  2.4113
19194TIP3   OH279072   3.322   3.913   2.795 -0.3161  0.3522  0.7198
19194TIP3    H179073   3.350   3.842   2.738  0.5735  2.1972 -1.1994
19194TIP3    H279074   3.229   3.899   2.808 -0.4185 -0.3843 -0.7670
19195TIP3   OH279075   2.812   6.176   4.000 -0.1306 -0.6755  0.2517
19195TIP3    H179076   2.841   6.233   4.071 -1.7930  0.1301  0.3098
19195TIP3    H279077   2.886   6.119   3.983  0.5203 -0.4350  2.1972
19196TIP3   OH279078   0.982   4.205  15.611  0.2472 -0.4367  0.4782
19196TIP3    H179079   1.077   4.193  15.603  0.9078  2.0441  3.4887
19196TIP3    H279080   0.968   4.297  15.589 -1.3773 -0.5934  0.8064
19197TIP3   OH279081   6.440   1.060   5.297 -0.0838  0.2009 -0.1961
19197TIP3    H179082   6.370   1.124   5.290 -0.0907 -0.0506 -3.0487
19197TIP3    H279083   6.409   0.985   5.246  1.8405 -0.2797 -0.7088
19198TIP3   OH279084   2.569   5.463   2.841 -0.2821 -0.0314 -0.4777
19198TIP3    H179085   2.498   5.410   2.808 -1.2532  0.5187  0.6875
19198TIP3    H279086   2.549   5.552   2.812  1.2479 -0.2426 -2.2769
19199TIP3   OH279087   5.642   2.307   1.261  0.1411  0.5994 -0.4617
19199TIP3    H179088   5.569   2.289   1.202  0.4711  1.8724 -1.2853
19199TIP3    H279089   5.618   2.265   1.343 -0.5927 -0.7012 -1.3307
19200TIP3   OH279090   1.476   1.328   3.669 -0.1040  0.1415  0.1681
19200TIP3    H179091   1.476   1.281   3.586  0.9570  1.0664 -0.3615
19200TIP3    H279092   1.467   1.420   3.645  0.2938  0.4193  1.0706
19201TIP3   OH279093   1.422   4.644  14.148  0.7917  0.2251  0.1785
19201TIP3    H179094   1.417   4.686  14.234  3.5408  0.8440  0.0692
19201TIP3    H279095   1.379   4.559  14.160  0.6148  0.5547  1.9942
19202TIP3   OH279096   1.193   2.986  16.709  0.3262  0.4095  0.2225
19202TIP3    H179097   1.274   2.978  16.659 -0.0590 -2.1312 -0.0669
19202TIP3    H279098   1.158   2.897  16.712 -1.6942  1.2170  1.6202
19203TIP3   OH279099   0.947   1.331  12.666 -0.3607  0.3404 -0.5033
19203TIP3    H179100   0.905   1.353  12.750  0.0417  0.2862 -0.2869
19203TIP3    H279101   0.878   1.346  12.601 -1.0810 -0.8585 -0.0386
19204TIP3   OH279102   3.036   2.291  14.124 -0.3302  0.1899  0.2576
19204TIP3    H179103   2.952   2.257  14.152 -0.1030 -1.3536 -0.8624
19204TIP3    H279104   3.099   2.223  14.148  0.0137 -0.6404 -2.8286
19205TIP3   OH279105   6.793   5.497   0.281 -0.0289  0.0013  0.4449
19205TIP3    H179106   6.702   5.516   0.303 -0.4010  1.5705 -2.2098
19205TIP3    H279107   6.788   5.431   0.212  0.8450  0.2271  0.1574
19206TIP3   OH279108   5.648   4.363  13.104 -0.2633 -0.7448  0.2415
19206TIP3    H179109   5.617   4.332  13.189 -1.0560 -0.7982 -0.0626
19206TIP3    H279110   5.717   4.426  13.125 -1.9443  0.8768  0.9956
19207TIP3   OH279111   1.983   3.307   2.631  0.4477  0.5937 -0.4129
19207TIP3    H179112   1.979   3.231   2.574 -0.8250  0.8802 -0.7299
19207TIP3    H279113   1.979   3.271   2.720  1.1740  0.2230 -0.5257
19208TIP3   OH279114   4.494   0.315   0.555  0.1122  0.6660  0.1748
19208TIP3    H179115   4.436   0.241   0.571  1.2093 -0.5938 -1.4653
19208TIP3    H279116   4.469   0.346   0.467  2.0733 -0.0738 -0.6752
19209TIP3   OH279117   3.492   3.910   6.535 -0.2055 -0.2159  0.2866
19209TIP3    H179118   3.420   3.974   6.530  0.1567  0.1669 -0.0165
19209TIP3    H279119   3.571   3.962   6.524  0.3704 -0.0858  4.2325
19210TIP3   OH279120   3.718   2.196   2.409 -0.6645  0.1314 -0.1824
19210TIP3    H179121   3.671   2.242   2.479  0.9708  0.0660  0.9689
19210TIP3    H279122   3.669   2.114   2.399 -1.6932  0.7116 -0.0564
19211TIP3   OH279123   6.288   1.196  13.727 -0.0940 -0.5276  0.3211
19211TIP3    H179124   6.210   1.242  13.759 -1.0350 -1.7621 -0.1708
19211TIP3    H279125   6.286   1.209  13.632  0.3862 -0.4268  0.3243
19212TIP3   OH279126   3.713   0.359   5.848 -0.1308 -0.0365  0.0079
19212TIP3    H179127   3.746   0.285   5.797 -3.6839 -2.0245  0.4980
19212TIP3    H279128   3.744   0.342   5.937 -0.7966 -0.8443  0.0878
19213TIP3   OH279129   5.897   1.583   2.398 -0.5179 -0.5803 -0.1845
19213TIP3    H179130   5.852   1.538   2.469 -1.3952  1.1783  0.3919
19213TIP3    H279131   5.964   1.521   2.370 -0.4267 -1.4767  1.8959
19214TIP3   OH279132   2.891   3.266   0.081  0.3088  0.3653 -0.2923
19214TIP3    H179133   2.932   3.200   0.025  2.2490 -0.4545  1.9738
19214TIP3    H279134   2.852   3.216   0.152 -1.3550  1.4340 -0.4398
19215TIP3   OH279135   3.831   0.220  13.027  0.1794  0.5648  0.3923
19215TIP3    H179136   3.775   0.239  13.102 -2.1540  1.8241 -1.5898
19215TIP3    H279137   3.869   0.305  13.004  1.0967  0.1333  0.2710
19216TIP3   OH279138   3.982   4.103   1.528 -0.2304  0.4410  0.2352
19216TIP3    H179139   3.938   4.072   1.449 -0.2699 -0.0292  0.4424
19216TIP3    H279140   3.957   4.196   1.535 -0.7714  0.3061  0.0683
19217TIP3   OH279141   0.311   0.404   2.223  0.0755  0.0953  0.3421
19217TIP3    H179142   0.301   0.317   2.186 -1.8123 -0.3603  1.8670
19217TIP3    H279143   0.406   0.415   2.232  0.3822 -1.2736 -1.0244
19218TIP3   OH279144   4.801   5.422   2.658 -0.0350  0.2935 -0.2007
19218TIP3    H179145   4.868   5.476   2.616 -0.2171  1.1193  0.5523
19218TIP3    H279146   4.844   5.339   2.676  0.5749  0.5723 -0.3712
19219TIP3   OH279147   3.734   1.671  16.682  0.2555 -0.3361 -0.7070
19219TIP3    H179148   3.668   1.706  16.742  1.2428 -1.5814  1.1891
19219TIP3    H279149   3.727   1.576  16.691  1.5078 -0.5022 -1.3241
19220TIP3   OH279150   4.542   6.118  13.950  0.5139  0.3689  0.1594
19220TIP3    H179151   4.581   6.077  14.027 -0.2302  1.8932  1.3634
19220TIP3    H279152   4.577   6.207  13.950 -1.2076  1.0533 -0.0212
19221TIP3   OH279153   0.226   4.419   5.540 -0.0370  0.1783  0.2791
19221TIP3    H179154   0.254   4.463   5.621  0.9497  0.1992 -0.0804
19221TIP3    H279155   0.291   4.352   5.525  0.7105  1.2592 -1.4160
19222TIP3   OH279156   3.830   5.912   3.663 -0.6277 -0.0526  0.0345
19222TIP3    H179157   3.737   5.908   3.684 -0.2065 -1.2621  1.7546
19222TIP3    H279158   3.840   5.853   3.588 -1.1991 -0.1606  0.0423
19223TIP3   OH279159   5.589   1.052  12.487 -0.2065  0.4917  0.2198
19223TIP3    H179160   5.510   1.054  12.541 -0.6711  2.5305 -0.4759
19223TIP3    H279161   5.574   0.980  12.426  0.0397 -1.4047  2.3303
19224TIP3   OH279162   4.476   2.695  16.260 -0.3164  0.2068  0.0322
19224TIP3    H179163   4.431   2.695  16.175  1.2215  0.1602 -0.8040
19224TIP3    H279164   4.426   2.758  16.313 -1.7516 -0.3277 -0.6395
19225TIP3   OH279165   5.745   2.540  15.530 -0.3386 -0.3417 -0.4424
19225TIP3    H179166   5.738   2.567  15.438 -0.2769  0.2878 -0.2638
19225TIP3    H279167   5.724   2.619  15.580  0.5508 -0.4315  0.0799
19226TIP3   OH279168   4.444   0.987  13.693  0.0802 -0.8291  0.2678
19226TIP3    H179169   4.421   0.961  13.782  0.9731 -1.8048  0.2109
19226TIP3    H279170   4.515   0.928  13.667  1.5471  1.0708 -0.1771
19227TIP3   OH279171   6.163   5.508   4.843 -0.3992 -0.8569 -0.0992
19227TIP3    H179172   6.120   5.587   4.810  0.6072 -0.2017  0.1087
19227TIP3    H279173   6.190   5.461   4.764  0.0142 -0.4122 -0.2285
19228TIP3   OH279174   5.439   2.546   0.675 -0.0044  0.3288  0.2796
19228TIP3    H179175   5.518   2.580   0.718  1.0070  1.7387 -2.5049
19228TIP3    H279176   5.368   2.602   0.707  0.4217  0.2156  1.4426
19229TIP3   OH279177   5.321   2.604  14.066  0.1815  0.2928  0.4621
19229TIP3    H179178   5.333   2.539  14.135  0.2427 -0.0204  0.1578
19229TIP3    H279179   5.273   2.557  13.997 -1.1388  0.9938  0.8806
19230TIP3   OH279180   0.396   1.169   0.988 -0.2883  0.0715 -0.7966
19230TIP3    H179181   0.324   1.165   0.925 -0.0838 -1.5578 -0.9273
19230TIP3    H279182   0.416   1.078   1.009  0.8363  0.5432  0.2793
19231TIP3   OH279183   6.209   0.615   3.257 -0.5584 -0.4232 -0.3923
19231TIP3    H179184   6.301   0.642   3.257 -0.4878 -0.6481 -1.6218
19231TIP3    H279185   6.161   0.694   3.230 -0.9519  0.3513  2.3599
19232TIP3   OH279186   3.093   0.856   4.897  0.5238 -0.7836 -0.5298
19232TIP3    H179187   3.047   0.790   4.845  0.8692  0.8468 -2.9944
19232TIP3    H279188   3.185   0.829   4.894  0.7661  0.1785 -2.1525
19233TIP3   OH279189   2.402   3.536   0.889 -0.3162 -0.5597  0.0077
19233TIP3    H179190   2.365   3.518   0.975 -1.6519 -0.1860 -0.4752
19233TIP3    H279191   2.439   3.452   0.860 -0.2962 -0.8015  0.7349
19234TIP3   OH279192   0.979   1.119  16.680 -0.0576 -0.0386  0.5210
19234TIP3    H179193   0.984   1.029  16.648 -0.8481  0.0573  0.1114
19234TIP3    H279194   0.969   1.110  16.775  3.1114 -0.3109  0.8779
19235TIP3   OH279195   5.445   1.541  13.607  0.9265 -0.0269  0.0702
19235TIP3    H179196   5.378   1.536  13.539 -0.7051  2.0629  1.4796
19235TIP3    H279197   5.473   1.450  13.620  1.0604 -0.5036 -3.1274
19236TIP3   OH279198   1.944   1.966  12.257 -0.3312  0.5139 -0.4458
19236TIP3    H179199   2.022   1.938  12.209  0.8470  1.6845  0.7441
19236TIP3    H279200   1.912   2.043  12.210  1.1222  1.9716  0.8948
19237TIP3   OH279201   5.066   3.432   6.283 -0.0473 -0.2635 -0.4319
19237TIP3    H179202   5.103   3.432   6.372  0.5917  1.0792 -0.6846
19237TIP3    H279203   5.142   3.416   6.226  0.1214  2.0985 -0.9294
19238TIP3   OH279204   3.326   3.068   3.122  0.1460 -0.6734  0.1077
19238TIP3    H179205   3.274   3.115   3.057  1.3735  0.1533 -0.3063
19238TIP3    H279206   3.352   3.137   3.184  1.3042 -0.9582 -0.0662
19239TIP3   OH279207   3.751   1.497   4.702 -0.5338 -0.0811  0.4318
19239TIP3    H179208   3.803   1.438   4.756  2.0849 -0.1408 -2.0575
19239TIP3    H279209   3.784   1.584   4.723  0.1381 -0.0638 -0.6692
19240TIP3   OH279210   3.013   4.114   5.848 -0.1499 -0.2600  0.2884
19240TIP3    H179211   3.037   4.083   5.935 -1.6192 -3.7853 -0.4910
19240TIP3    H279212   2.918   4.109   5.845 -0.3375  2.5074 -0.6382
19241TIP3   OH279213   4.633   0.629  13.230 -0.7318  0.2065 -0.6431
19241TIP3    H179214   4.623   0.652  13.137 -1.6593 -1.4969 -0.9896
19241TIP3    H279215   4.654   0.535  13.229 -0.7626  0.1722  0.8736
19242TIP3   OH279216   5.866   0.898  11.310  0.5242  0.8449 -0.2961
19242TIP3    H179217   5.945   0.951  11.312  0.4013  1.2080 -3.1200
19242TIP3    H279218   5.871   0.850  11.228 -1.9995  0.5819 -0.3559
19243TIP3   OH279219   2.629   3.805  11.391 -0.2712  0.2120  0.3791
19243TIP3    H179220   2.704   3.747  11.402 -1.7456 -1.3920  2.3055
19243TIP3    H279221   2.657   3.868  11.325  1.4393 -2.5609 -1.6548
19244TIP3   OH279222   5.526   2.282  14.464  0.1288  0.2446  0.9691
19244TIP3    H179223   5.555   2.262  14.375 -1.2774  0.9937  0.3233
19244TIP3    H279224   5.598   2.330  14.503  0.3035  0.9225 -0.1631
19245TIP3   OH279225   0.027   3.357  16.143  0.6254 -0.3368 -0.1679
19245TIP3    H179226  -0.053   3.324  16.183 -1.2955  1.4337 -2.4164
19245TIP3    H279227   0.059   3.423  16.204  0.3879 -1.0120  0.7069
19246TIP3   OH279228   5.078   0.150   1.453  0.1058  0.1551 -0.0722
19246TIP3    H179229   4.985   0.131   1.452 -0.2763  1.9259  0.5449
19246TIP3    H279230   5.092   0.199   1.534  1.9985 -2.1288  1.0766
19247TIP3   OH279231   6.412   2.712   4.898 -0.0439 -0.0268  0.1836
19247TIP3    H179232   6.430   2.632   4.849 -0.8484  0.0468 -0.2562
19247TIP3    H279233   6.366   2.682   4.976 -0.6138  0.0233 -0.1273
19248TIP3   OH279234   5.164   3.724   0.928  0.6212  0.3667 -0.0515
19248TIP3    H179235   5.139   3.812   0.901  0.7221 -0.0496 -1.5632
19248TIP3    H279236   5.125   3.667   0.862  2.3950 -0.5569 -0.3289
19249TIP3   OH279237   2.455   3.601  14.357 -0.4925  0.0754 -0.3677
19249TIP3    H179238   2.398   3.676  14.376 -0.3738 -0.1325  0.8309
19249TIP3    H279239   2.542   3.639  14.348 -0.1079 -0.1229  2.1409
19250TIP3   OH279240   1.246   5.818  15.583 -0.0464 -0.1296 -0.1839
19250TIP3    H179241   1.248   5.798  15.489 -0.4917  0.3742 -0.3000
19250TIP3    H279242   1.179   5.760  15.618 -0.2733  0.0758 -0.2725
19251TIP3   OH279243   5.760   6.374  12.060 -0.0426  0.1601  0.1870
19251TIP3    H179244   5.695   6.427  12.107  0.2201  0.7384 -0.0994
19251TIP3    H279245   5.802   6.435  12.000 -0.0169 -0.4635 -0.4346
19252TIP3   OH279246   0.386   4.335   5.044 -0.4890  0.8474 -0.4814
19252TIP3    H179247   0.461   4.306   5.096 -2.1782 -1.1298  0.9747
19252TIP3    H279248   0.397   4.429   5.035  1.1476  0.8578  1.3690
19253TIP3   OH279249   3.194   5.150  15.676  0.8422  0.4487 -0.6959
19253TIP3    H179250   3.187   5.119  15.766 -0.3666  1.2810 -0.4904
19253TIP3    H279251   3.275   5.200  15.674  0.7751  0.5934 -0.0105
19254TIP3   OH279252   0.959   0.399   4.279 -0.2642 -0.1004  0.0323
19254TIP3    H179253   0.992   0.314   4.249  0.1779 -0.2282  0.8869
19254TIP3    H279254   0.987   0.405   4.370  1.1216  1.6917 -0.5032
19255TIP3   OH279255   0.021   0.091   4.147  0.1648 -0.4645  0.2084
19255TIP3    H179256   0.058   0.051   4.068  0.3414 -0.8541  0.4916
19255TIP3    H279257   0.087   0.077   4.214  0.0200 -0.1136  0.4257
19256TIP3   OH279258   3.436   6.799  14.238  0.3917 -0.0130  0.2844
19256TIP3    H179259   3.443   6.839  14.325 -1.0647  0.0172  0.4006
19256TIP3    H279260   3.436   6.705  14.255 -0.8871 -0.0037  0.4236
19257TIP3   OH279261   0.828   6.477  16.380 -0.4026 -0.2897  0.5069
19257TIP3    H179262   0.845   6.566  16.348 -1.2798 -0.2917  0.0108
19257TIP3    H279263   0.911   6.431  16.369  0.1625  0.5676  1.0922
19258TIP3   OH279264   1.649   6.141   4.360  0.3289  0.4780 -0.0119
19258TIP3    H179265   1.560   6.106   4.370  0.7353 -0.5316  0.1536
19258TIP3    H279266   1.706   6.064   4.371  1.1907  0.9997 -0.7954
19259TIP3   OH279267   5.809   3.802   2.622 -0.3228  0.6263 -0.2470
19259TIP3    H179268   5.875   3.849   2.570  0.0462  0.7669  0.3481
19259TIP3    H279269   5.792   3.859   2.697 -1.3950  0.7624 -0.5796
19260TIP3   OH279270   1.112   1.653   6.907 -0.3133  0.1841  0.3958
19260TIP3    H179271   1.098   1.589   6.977 -2.0912  0.9254  0.7452
19260TIP3    H279272   1.039   1.638   6.846  2.0752 -1.5091 -2.1417
19261TIP3   OH279273   3.791   1.544   5.441  0.3110  0.2688 -1.2568
19261TIP3    H179274   3.848   1.496   5.501 -1.1562  1.1785  0.9295
19261TIP3    H279275   3.820   1.517   5.354  1.9828 -1.6835 -0.1491
19262TIP3   OH279276   4.301   4.433  11.450 -0.1731  0.4373 -0.2873
19262TIP3    H179277   4.357   4.381  11.392 -1.0747  0.8341 -1.5267
19262TIP3    H279278   4.316   4.396  11.537  0.2957 -0.9463 -0.9396
19263TIP3   OH279279   4.674   2.124   4.483  0.3542  0.2804  0.7665
19263TIP3    H179280   4.665   2.030   4.470  0.2834  0.4683 -0.6677
19263TIP3    H279281   4.733   2.132   4.558 -1.3434 -0.8991  2.2636
19264TIP3   OH279282   4.027   6.332  11.158 -0.1393 -0.2436  0.2099
19264TIP3    H179283   3.978   6.309  11.079  0.4941  0.4460 -0.3797
19264TIP3    H279284   4.071   6.413  11.136  2.4412 -1.5991  0.2401
19265TIP3   OH279285   1.369   4.911  11.152  0.4272 -0.4895 -0.5890
19265TIP3    H179286   1.433   4.966  11.198  0.8576 -0.8158 -0.7960
19265TIP3    H279287   1.404   4.903  11.063  0.4950 -1.2993 -0.4958
19266TIP3   OH279288   1.575   1.805  13.450 -0.2525  0.4959  0.7703
19266TIP3    H179289   1.525   1.756  13.384 -1.9274  0.3697  2.1019
19266TIP3    H279290   1.662   1.765  13.449 -0.7583 -0.6085 -0.1844
19267TIP3   OH279291   0.002   5.748   5.097  0.0674  0.6985  0.2482
19267TIP3    H179292  -0.058   5.738   5.023 -0.3880  3.2728  0.1945
19267TIP3    H279293  -0.041   5.702   5.169 -0.3874 -0.2452 -0.6093
19268TIP3   OH279294   5.397   0.897   3.041  0.3133  1.1580  0.0221
19268TIP3    H179295   5.416   0.947   3.121 -1.3919 -0.9817  1.8292
19268TIP3    H279296   5.343   0.956   2.989  0.3211  2.1056  1.0644
19269TIP3   OH279297   6.687   3.151  14.904 -0.0739 -0.1195 -0.3907
19269TIP3    H179298   6.686   3.074  14.847  0.6736 -1.1062  0.8970
19269TIP3    H279299   6.675   3.116  14.993  0.0375  1.2700  0.1913
19270TIP3   OH279300   0.293   2.061  14.588  0.4703  0.1656 -0.5229
19270TIP3    H179301   0.376   2.109  14.586  0.8349 -0.3552  1.3648
19270TIP3    H279302   0.276   2.047  14.681 -1.0212 -0.9683 -0.9570
19271TIP3   OH279303   1.174   6.323  14.373  0.1944  0.1599 -0.0127
19271TIP3    H179304   1.216   6.406  14.392  2.5778 -1.0566  0.1937
19271TIP3    H279305   1.175   6.276  14.457 -1.6393  0.1150  0.0065
19272TIP3   OH279306   0.911   2.246  13.148  0.1673  0.2053  0.6394
19272TIP3    H179307   0.961   2.170  13.117 -1.6757 -0.6582 -0.2496
19272TIP3    H279308   0.883   2.291  13.069 -0.7554  0.5090  1.1300
19273TIP3   OH279309   2.820   3.750  13.491 -0.4217 -0.2007  0.5092
19273TIP3    H179310   2.810   3.660  13.462 -1.9257  0.7404 -2.0299
19273TIP3    H279311   2.763   3.757  13.568 -0.5712 -1.3226  0.5040
19274TIP3   OH279312   4.415   2.207  17.017 -0.0670  0.1093 -0.2403
19274TIP3    H179313   4.331   2.243  16.988 -0.3579  0.3254  0.8483
19274TIP3    H279314   4.421   2.122  16.973  1.0111  1.7768 -3.4926
19275TIP3   OH279315   2.876   4.087  11.622 -0.2003  0.5033 -0.3341
19275TIP3    H179316   2.789   4.052  11.603  0.3743 -1.2175  0.1074
19275TIP3    H279317   2.880   4.091  11.718  0.7751 -0.9706 -0.2931
19276TIP3   OH279318   4.915   2.131   2.195  0.4181 -0.5809  0.3596
19276TIP3    H179319   4.982   2.177   2.145  0.6582 -2.2180 -0.8886
19276TIP3    H279320   4.834   2.178   2.175  0.5028 -1.2188 -1.6477
19277TIP3   OH279321   5.392   5.341  15.278  0.1806  0.1662 -0.1427
19277TIP3    H179322   5.395   5.428  15.318 -0.5115 -0.0197  0.3327
19277TIP3    H279323   5.480   5.328  15.242  0.8369  0.3414  1.3358
19278TIP3   OH279324   0.156   1.305  13.812  0.3741 -0.3499  0.2737
19278TIP3    H179325   0.118   1.263  13.889  0.9636 -0.3307  0.5838
19278TIP3    H279326   0.247   1.273  13.810  0.8347  0.9288  0.5231
19279TIP3   OH279327   4.684   0.290  17.068  0.0764 -0.2489  0.3538
19279TIP3    H179328   4.602   0.257  17.105 -0.3125 -0.6334 -0.8223
19279TIP3    H279329   4.688   0.382  17.097 -1.3899  0.1343 -0.6124
19280TIP3   OH279330   2.828   0.565   0.801  0.1928  0.3524  0.0413
19280TIP3    H179331   2.875   0.482   0.811 -0.8458  0.0074  2.4180
19280TIP3    H279332   2.880   0.628   0.851 -0.8052  0.3829  1.0613
19281TIP3   OH279333   6.483   3.951   2.061 -0.0934 -0.2118 -0.0612
19281TIP3    H179334   6.562   3.942   2.113  0.2350  0.0237 -0.5209
19281TIP3    H279335   6.509   4.005   1.986 -0.1262 -1.9989 -1.3851
19282TIP3   OH279336   4.428   5.224   2.139 -0.5521  0.3797 -0.3469
19282TIP3    H179337   4.385   5.140   2.151  0.4169 -0.5521 -3.0854
19282TIP3    H279338   4.431   5.262   2.227  1.0280 -3.4199  1.3412
19283TIP3   OH279339   2.630   5.284  16.577  0.4234 -0.3464  0.5296
19283TIP3    H179340   2.575   5.270  16.500 -0.2175 -1.6670  1.2095
19283TIP3    H279341   2.633   5.379  16.589 -0.7501 -0.2207 -0.1881
19284TIP3   OH279342   2.345   0.206  11.701 -0.0825 -0.0816  0.4777
19284TIP3    H179343   2.283   0.210  11.628 -0.0689 -2.0610  0.3235
19284TIP3    H279344   2.405   0.279  11.686  1.3235 -1.8048 -2.8309
19285TIP3   OH279345   3.870   1.593  12.811  0.2845  0.0313  0.2303
19285TIP3    H179346   3.901   1.683  12.801 -1.0033  0.5227  0.5506
19285TIP3    H279347   3.941   1.548  12.855  0.8705  0.9420  0.2393
19286TIP3   OH279348   0.232   2.891  13.296  0.2193 -0.3578  0.2094
19286TIP3    H179349   0.152   2.866  13.342  1.8587 -2.1360  2.2692
19286TIP3    H279350   0.238   2.831  13.222 -1.7509  1.6345 -1.6261
19287TIP3   OH279351   4.909   6.006   2.931 -0.0865  0.1030  0.1140
19287TIP3    H179352   4.889   5.915   2.910 -1.4646  0.3807  0.1482
19287TIP3    H279353   4.999   6.019   2.902 -0.2710 -0.9540 -0.9405
19288TIP3   OH279354   4.978   0.384  10.455 -0.3367 -0.1203 -0.3404
19288TIP3    H179355   5.054   0.441  10.462 -0.5037 -0.0041  0.5925
19288TIP3    H279356   5.015   0.295  10.453 -0.1541 -0.0462 -0.2474
19289TIP3   OH279357   2.139   1.315   0.985  0.1427  0.3936  1.0159
19289TIP3    H179358   2.214   1.370   0.959 -1.8750  1.4504 -3.0582
19289TIP3    H279359   2.145   1.239   0.927 -1.9198  0.5235  0.6042
19290TIP3   OH279360   0.009   6.620  15.888  0.0380  0.0578 -0.1137
19290TIP3    H179361   0.052   6.658  15.811  1.0161 -0.5323  0.1304
19290TIP3    H279362   0.060   6.653  15.962  0.6314 -1.3613  0.1242
19291TIP3   OH279363   5.203   0.936   4.050  0.1732 -0.0361  0.3023
19291TIP3    H179364   5.142   1.009   4.044 -1.0502 -1.1711 -2.0574
19291TIP3    H279365   5.151   0.864   4.087  0.6701 -0.3941  0.3170
19292TIP3   OH279366   5.618   6.771   0.768  0.5446 -0.5503  0.0202
19292TIP3    H179367   5.580   6.732   0.689  1.0219 -0.0466 -0.4641
19292TIP3    H279368   5.697   6.719   0.785 -0.0530 -1.2452  0.7050
19293TIP3   OH279369   0.243   6.149  14.387  0.4669 -0.2080  0.2198
19293TIP3    H179370   0.176   6.215  14.367  1.0355 -0.1342 -1.5422
19293TIP3    H279371   0.302   6.152  14.312  0.9288 -2.1902  0.4782
19294TIP3   OH279372   0.093   0.596   1.253 -0.2837  0.4049 -0.4675
19294TIP3    H179373   0.009   0.598   1.208 -0.9361 -0.0714  0.7058
19294TIP3    H279374   0.093   0.514   1.301  1.0059  0.2382 -0.7324
19295TIP3   OH279375   1.335   6.080   3.571 -0.3765  0.4858  0.1156
19295TIP3    H179376   1.367   6.085   3.660 -1.1760 -0.1318  0.4482
19295TIP3    H279377   1.372   5.999   3.536 -1.0386  0.0916  0.3000
19296TIP3   OH279378   6.050   2.757  14.296 -0.5608 -0.1407  0.0857
19296TIP3    H179379   5.966   2.753  14.250  0.0752  1.8954 -1.3095
19296TIP3    H279380   6.098   2.827  14.252  2.5498 -2.3783 -0.2500
19297TIP3   OH279381   2.749   2.741   2.727  0.4580 -0.0118  0.0902
19297TIP3    H179382   2.818   2.799   2.761 -1.4623  1.6349  1.3129
19297TIP3    H279383   2.671   2.796   2.725 -1.3078 -2.4319  0.7539
19298TIP3   OH279384   1.477   1.831   0.711 -0.0117  0.0408 -0.5102
19298TIP3    H179385   1.468   1.902   0.647  0.0136  0.5680  0.0660
19298TIP3    H279386   1.554   1.782   0.682  2.2071  2.4251  1.1420
19299TIP3   OH279387   3.880   1.612   2.733  0.1684  0.1987 -0.3553
19299TIP3    H179388   3.818   1.550   2.694  0.9641 -0.1364 -1.0895
19299TIP3    H279389   3.962   1.597   2.687  0.4306  1.6566 -0.3924
19300TIP3   OH279390   0.186   2.254   0.475  0.1544  0.8102 -0.4893
19300TIP3    H179391   0.163   2.163   0.454 -1.8198  0.7762  1.6210
19300TIP3    H279392   0.255   2.247   0.541  0.0800  0.8590 -0.4069
19301TIP3   OH279393   2.900   5.259   4.309 -0.3741  0.1741  0.6512
19301TIP3    H179394   2.930   5.172   4.335  0.2943  0.3717  0.5570
19301TIP3    H279395   2.976   5.299   4.267 -0.9949  0.4003 -0.2871
19302TIP3   OH279396   6.599   0.049   2.638 -0.2427 -0.0872  0.1564
19302TIP3    H179397   6.553  -0.015   2.583  0.1794 -0.1253 -0.1586
19302TIP3    H279398   6.621   0.001   2.718  2.8571 -1.3026 -1.3358
19303TIP3   OH279399   2.792   6.471  11.220 -1.0293 -0.3614  0.2929
19303TIP3    H179400   2.776   6.558  11.257  1.1975  0.0215  0.4387
19303TIP3    H279401   2.815   6.488  11.129  0.0256 -0.7420  0.4834
19304TIP3   OH279402   6.351   1.122  12.071  0.4243 -0.9602 -0.2449
19304TIP3    H179403   6.287   1.193  12.068 -0.7773 -2.0543 -1.2006
19304TIP3    H279404   6.436   1.166  12.073 -0.3465  0.5456  2.6830
19305TIP3   OH279405   0.208   4.000  14.851 -0.1075 -0.6042  0.1423
19305TIP3    H179406   0.194   3.928  14.913  0.5768  0.4178  1.4922
19305TIP3    H279407   0.129   4.054  14.858  0.3172 -0.0548  0.7131
19306TIP3   OH279408   4.235   1.546   0.612 -0.7334  0.2073 -0.2902
19306TIP3    H179409   4.188   1.540   0.529 -0.8461 -1.1070 -0.1401
19306TIP3    H279410   4.274   1.633   0.611 -3.6028  1.5333 -0.1885
19307TIP3   OH279411   1.606   5.682   5.618 -0.3147  0.2018 -0.1411
19307TIP3    H179412   1.594   5.771   5.585 -0.1179 -0.1158 -1.0716
19307TIP3    H279413   1.700   5.665   5.606 -1.0445 -1.6760 -3.9454
19308TIP3   OH279414   2.286   3.100   2.657  0.1458 -0.2146 -0.4952
19308TIP3    H179415   2.223   3.033   2.631  1.1288 -1.3184 -0.0838
19308TIP3    H279416   2.297   3.154   2.579 -2.7168  1.1750 -0.0417
19309TIP3   OH279417   1.343   3.838   6.639  0.7078  0.1857  0.1062
19309TIP3    H179418   1.324   3.920   6.684 -1.1689 -1.2721  2.0377
19309TIP3    H279419   1.406   3.862   6.571  3.0901  2.5718  3.0331
19310TIP3   OH279420   0.001   0.538   3.423  0.0845 -0.1604  0.4253
19310TIP3    H179421   0.021   0.445   3.428  0.6470 -0.0690 -0.1325
19310TIP3    H279422  -0.095   0.542   3.433  0.2893 -0.6047  2.7541
19311TIP3   OH279423   2.010   5.385  16.215  0.4930  0.4731  0.0068
19311TIP3    H179424   2.082   5.408  16.274 -0.2098 -2.0955  1.9564
19311TIP3    H279425   1.952   5.462  16.218  2.0523  1.6748  0.1078
19312TIP3   OH279426   5.458   1.284  13.915  0.0019 -0.0066  0.1420
19312TIP3    H179427   5.421   1.266  13.829 -1.3940 -0.6698  0.8640
19312TIP3    H279428   5.551   1.299  13.899  0.0561 -1.7529 -1.2701
19313TIP3   OH279429   3.162   0.104   3.270  0.0353  0.3768  0.7884
19313TIP3    H179430   3.257   0.101   3.279  0.0363 -0.0973  0.6046
19313TIP3    H279431   3.131   0.024   3.311 -0.2454  0.2431  0.3177
19314TIP3   OH279432   5.893   4.940   2.837 -0.6083 -0.3665  0.3287
19314TIP3    H179433   5.931   5.027   2.824  0.0541 -0.8456 -1.0486
19314TIP3    H279434   5.900   4.925   2.931  1.3960  0.1160  0.2819
19315TIP3   OH279435   3.675   6.588   4.852 -0.6411  0.2505  0.1260
19315TIP3    H179436   3.628   6.632   4.781  1.4417  1.1695 -0.7277
19315TIP3    H279437   3.715   6.512   4.811 -1.4485 -0.5908  0.8758
19316TIP3   OH279438   2.472   0.909  15.007  0.1385 -0.0127  0.4012
19316TIP3    H179439   2.541   0.866  14.957 -1.4478 -0.7992 -1.1974
19316TIP3    H279440   2.417   0.838  15.039 -0.0678  0.6056  1.4558
19317TIP3   OH279441   6.599   3.890  14.967 -0.0498 -0.5584  0.7465
19317TIP3    H179442   6.561   3.807  14.997  0.2547 -1.4435 -1.2685
19317TIP3    H279443   6.555   3.907  14.884  0.9601  0.5598  0.4441
19318TIP3   OH279444   3.313   3.108   4.894 -0.4566  0.1400 -0.2422
19318TIP3    H179445   3.330   3.190   4.940  1.2776 -0.3024 -0.0796
19318TIP3    H279446   3.341   3.123   4.804  0.8767 -0.5978  0.0324
19319TIP3   OH279447   3.562   1.090  15.017 -0.2123  0.0601  0.6033
19319TIP3    H179448   3.476   1.084  14.975  1.9630  0.4385 -4.1976
19319TIP3    H279449   3.553   1.037  15.096 -3.9446 -2.5907 -1.4186
19320TIP3   OH279450   1.684   0.869   3.515  0.1762 -0.4094  0.4836
19320TIP3    H179451   1.768   0.889   3.556  0.3599  0.3882 -0.2623
19320TIP3    H279452   1.704   0.863   3.422 -0.3724 -1.4554  0.4315
19321TIP3   OH279453   5.211   0.584  16.041  0.3372 -0.1012  0.3388
19321TIP3    H179454   5.195   0.490  16.034  1.2423 -0.4213  2.4181
19321TIP3    H279455   5.306   0.592  16.042  0.2836  0.9619 -1.1978
19322TIP3   OH279456   4.547   4.178   3.359  0.2436  0.1168 -0.6358
19322TIP3    H179457   4.641   4.190   3.352  0.4130 -1.3420 -0.9753
19322TIP3    H279458   4.509   4.259   3.323  1.3489  0.7707 -0.3445
19323TIP3   OH279459   5.856   3.559   5.912 -0.4305  0.2156 -0.0031
19323TIP3    H179460   5.845   3.639   5.963 -0.2437 -0.2118  0.7039
19323TIP3    H279461   5.848   3.488   5.976  0.3425 -0.3048 -0.4781
19324TIP3   OH279462   4.676   0.447  11.716 -0.2396 -0.1013  0.0537
19324TIP3    H179463   4.764   0.457  11.753 -0.5948  1.9209  0.4115
19324TIP3    H279464   4.673   0.511  11.645 -1.3178 -0.4198 -0.1885
19325TIP3   OH279465   5.005   5.571   5.232 -0.0593 -0.0003  0.6480
19325TIP3    H179466   5.065   5.629   5.186  0.3667  0.7206  2.0780
19325TIP3    H279467   5.059   5.530   5.300 -0.7631 -0.7679  0.7616
19326TIP3   OH279468   0.703   6.263  13.682 -0.4823  0.2747 -0.0070
19326TIP3    H179469   0.614   6.299  13.682 -0.8174 -0.5151 -1.4568
19326TIP3    H279470   0.760   6.339  13.682 -1.1290  0.7991  2.5923
19327TIP3   OH279471   6.421   3.604   5.969  0.1264 -0.3484 -0.2267
19327TIP3    H179472   6.408   3.695   5.996  0.0714 -1.0878  2.3818
19327TIP3    H279473   6.355   3.589   5.902 -0.9138  1.0920  0.4500
19328TIP3   OH279474   2.175   2.634   3.033 -0.1471  0.3292  0.1717
19328TIP3    H179475   2.103   2.579   3.002  0.1794  1.0858 -2.0315
19328TIP3    H279476   2.134   2.721   3.044  0.5118  0.8897 -1.6117
19329TIP3   OH279477   4.609   5.914  16.408  0.8545 -0.3859 -0.4405
19329TIP3    H179478   4.662   5.884  16.334  0.1372 -2.8134  0.0052
19329TIP3    H279479   4.645   6.000  16.429  2.4008 -0.5379 -2.3093
19330TIP3   OH279480   3.519   3.637  13.924  0.3498 -0.5334 -0.2482
19330TIP3    H179481   3.504   3.546  13.897  2.8256 -0.6867 -1.2419
19330TIP3    H279482   3.552   3.630  14.013  0.3927 -0.6067 -0.2691
19331TIP3   OH279483   5.447   1.292   4.681 -0.1612  0.0217 -0.3802
19331TIP3    H179484   5.412   1.333   4.760 -0.8422  0.1531 -0.7399
19331TIP3    H279485   5.537   1.322   4.675 -0.7912  1.8587 -0.9020
19332TIP3   OH279486   1.795   2.706   3.154  0.0755  0.0025 -0.4479
19332TIP3    H179487   1.796   2.653   3.075 -1.6350  0.5955 -0.8973
19332TIP3    H279488   1.877   2.685   3.199  0.4879 -1.2533 -1.7637
19333TIP3   OH279489   3.214   0.819   1.658 -0.3478  0.1108  0.2142
19333TIP3    H179490   3.206   0.847   1.749 -1.0598  0.2713  0.1079
19333TIP3    H279491   3.124   0.797   1.631 -0.1135 -0.1574 -0.3778
19334TIP3   OH279492   1.298   1.762   4.811  0.2258 -0.1882  0.4444
19334TIP3    H179493   1.264   1.850   4.828  0.8129  0.1137  0.0752
19334TIP3    H279494   1.244   1.704   4.865 -0.7482  0.3063  0.0189
19335TIP3   OH279495   3.811   2.040   0.352 -0.1865 -0.8414  1.2692
19335TIP3    H179496   3.740   1.975   0.350  0.3704 -1.4406  0.8361
19335TIP3    H279497   3.773   2.115   0.397 -1.2397 -0.9936  0.6464
19336TIP3   OH279498   3.215   4.882  11.857  0.0665  0.0370 -0.3326
19336TIP3    H179499   3.222   4.969  11.897  0.2260  0.5418 -1.4379
19336TIP3    H279500   3.171   4.829  11.923 -0.7910  1.1762  0.0326
19337TIP3   OH279501   4.429   1.567  12.028  0.0105  0.3061 -0.4137
19337TIP3    H179502   4.352   1.565  12.085  0.6776 -1.2112  0.4695
19337TIP3    H279503   4.405   1.513  11.953  0.5820 -1.0670  0.3744
19338TIP3   OH279504   0.893   0.565   4.640 -0.4578  0.1883  0.0675
19338TIP3    H179505   0.932   0.635   4.691 -0.4126  1.1502 -1.2615
19338TIP3    H279506   0.806   0.597   4.617  0.1693  0.5290 -1.9484
19339TIP3   OH279507   0.140   6.219  16.948  0.0899  0.2783 -0.0626
19339TIP3    H179508   0.230   6.246  16.930  0.3671 -1.4217 -1.2849
19339TIP3    H279509   0.099   6.297  16.988  2.4833  0.5862  1.8873
19340TIP3   OH279510   2.455   4.684  13.657  0.4465 -0.0546 -0.0921
19340TIP3    H179511   2.390   4.696  13.726 -0.1428  1.5446 -0.8900
19340TIP3    H279512   2.409   4.635  13.589  1.2225 -2.2186  0.8751
19341TIP3   OH279513   3.615   6.047  13.847 -0.2286  0.1223  0.0111
19341TIP3    H179514   3.522   6.066  13.831 -0.0755  0.7697 -0.0871
19341TIP3    H279515   3.620   5.951  13.843 -0.8083  0.1089 -0.4573
19342TIP3   OH279516   2.650   3.165   5.588 -0.1268  0.0213 -0.1952
19342TIP3    H179517   2.657   3.070   5.598  3.3612  0.1756 -0.5726
19342TIP3    H279518   2.647   3.198   5.678  1.7013 -0.2998  0.0036
19343TIP3   OH279519   4.869   3.928  17.109  0.1539  0.0746 -0.2606
19343TIP3    H179520   4.960   3.928  17.141  0.4287  2.8391 -0.9621
19343TIP3    H279521   4.871   3.983  17.031 -2.2941  0.8918  0.2222
19344TIP3   OH279522   5.650   2.266   3.832  0.1032  0.8111  0.1706
19344TIP3    H179523   5.697   2.228   3.906  0.3696 -1.7610 -1.2680
19344TIP3    H279524   5.717   2.317   3.785  0.5987  0.1621  0.1653
19345TIP3   OH279525   1.450   5.244   3.006  0.2380  0.3467 -0.2246
19345TIP3    H179526   1.416   5.189   2.935  0.2959  1.3791 -1.0649
19345TIP3    H279527   1.377   5.301   3.030  0.5648  0.7656 -0.2205
19346TIP3   OH279528   1.735   4.145   4.103  0.4377 -0.9922 -0.1734
19346TIP3    H179529   1.777   4.202   4.039 -0.0390 -1.5347 -0.9691
19346TIP3    H279530   1.641   4.159   4.091  0.3490 -0.7776  0.6984
19347TIP3   OH279531   4.939   6.597   2.858  0.1081  0.2060 -0.2345
19347TIP3    H179532   4.858   6.612   2.908 -0.1605  0.3457 -0.7053
19347TIP3    H279533   4.992   6.675   2.874  0.7403 -0.5092  1.1981
19348TIP3   OH279534   6.735   0.215  12.779 -0.1909 -0.0945  0.0094
19348TIP3    H179535   6.642   0.238  12.772 -0.1452 -0.4219 -2.3865
19348TIP3    H279536   6.735   0.130  12.822 -0.9178  0.3760  0.9746
19349TIP3   OH279537   6.484   0.628   1.676  0.5194  0.2302 -0.1731
19349TIP3    H179538   6.563   0.595   1.633  0.8363  0.4314  0.2471
19349TIP3    H279539   6.413   0.572   1.643  1.0462 -0.8517  0.4904
19350TIP3   OH279540   0.323   5.480  16.231 -0.3267 -0.0633 -0.6032
19350TIP3    H179541   0.272   5.561  16.233  0.1328  0.2413 -1.0770
19350TIP3    H279542   0.283   5.425  16.299  0.7199  1.3795  1.2200
19351TIP3   OH279543   1.971   2.994  14.917  0.0036 -0.4510 -0.0223
19351TIP3    H179544   2.055   3.036  14.899 -0.2696 -0.0696 -0.4103
19351TIP3    H279545   1.986   2.945  14.998  0.6942 -0.6488 -0.2640
19352TIP3   OH279546   0.304   5.061  16.697 -0.2132  0.0765 -0.6110
19352TIP3    H179547   0.335   5.011  16.621 -1.8145 -0.7140 -0.7698
19352TIP3    H279548   0.229   5.010  16.730  0.0014  0.8073  1.0440
19353TIP3   OH279549   5.242   5.002  14.407 -0.3028 -0.1777 -0.4625
19353TIP3    H179550   5.328   4.995  14.365  0.1194  0.7569  0.2313
19353TIP3    H279551   5.207   5.086  14.376 -0.4930 -0.0408  0.1101
19354TIP3   OH279552   0.973   3.670   5.526  0.1194 -0.3242 -0.0115
19354TIP3    H179553   1.019   3.586   5.534  1.8235  0.2527 -3.0467
19354TIP3    H279554   0.914   3.658   5.451  0.8822  1.4024 -0.9127
19355TIP3   OH279555   1.413   2.445  12.282 -0.1306  0.0992  0.2597
19355TIP3    H179556   1.438   2.422  12.192 -1.1184  1.5153 -0.3933
19355TIP3    H279557   1.427   2.539  12.288  0.4701 -0.0679  1.7857
19356TIP3   OH279558   2.586   5.885   1.429 -0.0264  0.4162  0.0246
19356TIP3    H179559   2.511   5.939   1.454 -0.0360  1.3776 -1.9205
19356TIP3    H279560   2.595   5.900   1.334  2.0103 -0.4330  0.0608
19357TIP3   OH279561   0.285   3.078   0.762 -0.0459 -0.1852 -0.1031
19357TIP3    H179562   0.217   3.135   0.725 -0.8117  0.4177  2.1150
19357TIP3    H279563   0.239   2.998   0.785  0.6065 -0.9052 -1.3074
19358TIP3   OH279564   4.627   0.837   1.438  0.0742  0.1817  0.2447
19358TIP3    H179565   4.573   0.833   1.359 -0.2703  0.8518  0.4457
19358TIP3    H279566   4.636   0.930   1.457 -0.7758 -0.0060  1.6368
19359TIP3   OH279567   5.398   3.332  11.331  0.0481 -0.6750  0.1228
19359TIP3    H179568   5.327   3.308  11.271 -0.9863  0.2711  0.9562
19359TIP3    H279569   5.357   3.389  11.395  1.9913  1.5582 -0.5522
19360TIP3   OH279570   5.538   4.821  11.245  0.0752  0.6759  0.2039
19360TIP3    H179571   5.613   4.832  11.304  0.1289  0.9928  0.0728
19360TIP3    H279572   5.475   4.771  11.297 -0.0448  1.3139  0.6746
19361TIP3   OH279573   5.549   4.463   2.721  0.5387 -0.0612  0.3066
19361TIP3    H179574   5.638   4.449   2.689  0.0703 -0.8556 -0.6810
19361TIP3    H279575   5.497   4.394   2.678 -0.2589 -0.6093  2.1015
19362TIP3   OH279576   2.427   4.844  16.190  0.3480 -0.3454  0.0668
19362TIP3    H179577   2.509   4.891  16.175  0.0243  0.0296 -0.5131
19362TIP3    H279578   2.386   4.889  16.264  0.4737 -0.2798  0.0986
19363TIP3   OH279579   2.210   4.533  15.233 -0.4889 -0.2137 -0.3041
19363TIP3    H179580   2.277   4.600  15.217  0.8223 -1.3200  0.4501
19363TIP3    H279581   2.180   4.507  15.146 -2.1734  2.4977 -0.5804
19364TIP3   OH279582   4.585   4.867  14.185 -0.6317  0.4642 -0.2036
19364TIP3    H179583   4.537   4.923  14.124 -0.6839  0.5022 -0.1278
19364TIP3    H279584   4.608   4.925  14.257  1.1389  0.8990 -1.0825
19365TIP3   OH279585   1.707   2.775  16.020  0.3613 -0.2951  0.0673
19365TIP3    H179586   1.738   2.834  16.089  1.0286  0.7017 -1.0684
19365TIP3    H279587   1.719   2.824  15.939 -1.6176 -0.9686 -0.6631
19366TIP3   OH279588   3.576   6.557   1.610 -0.4779  0.8387 -0.4328
19366TIP3    H179589   3.625   6.522   1.685  0.8728  1.0467 -1.2104
19366TIP3    H279590   3.555   6.481   1.557  0.2591  0.9233 -0.8393
19367TIP3   OH279591   4.320   4.962  10.639  0.8648 -0.5500 -0.4815
19367TIP3    H179592   4.233   5.000  10.649  0.6536 -0.3473 -2.7563
19367TIP3    H279593   4.330   4.903  10.713 -1.1066 -0.3729 -0.0612
19368TIP3   OH279594   5.426   6.672  17.197  0.0257  0.0358 -0.4069
19368TIP3    H179595   5.347   6.619  17.189 -1.4722  2.4080 -2.1853
19368TIP3    H279596   5.483   6.641  17.128  0.5014 -1.3825  0.5971
19369TIP3   OH279597   3.217   4.438   5.292  0.3123  0.2762 -0.0375
19369TIP3    H179598   3.193   4.402   5.378  0.0981  1.6122  0.4739
19369TIP3    H279599   3.155   4.509   5.277  0.6177  0.3322 -1.1122
19370TIP3   OH279600   5.633   0.740  14.351  0.1096  0.1149 -0.2188
19370TIP3    H179601   5.720   0.726  14.389  1.4046  2.1717 -2.3034
19370TIP3    H279602   5.592   0.654  14.353  2.1622 -0.8844  0.8416
19371TIP3   OH279603   2.930   2.047   3.625 -0.1747  0.4474 -0.0310
19371TIP3    H179604   2.835   2.041   3.615 -0.1902  2.9165 -1.6729
19371TIP3    H279605   2.942   2.081   3.714 -0.8506  0.8428 -0.0861
19372TIP3   OH279606   0.570   6.084  16.804 -0.2566  0.4003  0.0035
19372TIP3    H179607   0.507   6.156  16.818 -0.0216  0.6809 -0.3954
19372TIP3    H279608   0.515   6.007  16.790 -0.5111  0.3799  1.0594
19373TIP3   OH279609   2.557   1.546  14.662  0.4843  0.2103 -0.1959
19373TIP3    H179610   2.544   1.640  14.645  1.7855  0.5403  0.5878
19373TIP3    H279611   2.484   1.522  14.719  0.6553  0.9594  0.3462
19374TIP3   OH279612   1.636   4.434   5.092  0.3183 -0.8831 -0.4655
19374TIP3    H179613   1.687   4.393   5.022  1.7755  1.3333 -0.7446
19374TIP3    H279614   1.625   4.525   5.064  0.0072 -0.2344  1.6871
19375TIP3   OH279615   3.465   0.947   2.915 -0.2802  0.1745 -0.0543
19375TIP3    H179616   3.513   0.878   2.869 -0.7124  0.7279 -1.3403
19375TIP3    H279617   3.396   0.974   2.855 -0.1623  1.6922  0.4541
19376TIP3   OH279618   3.870   3.659   3.615 -0.0566 -0.0272  0.1041
19376TIP3    H179619   3.784   3.702   3.608 -0.0693 -0.1980 -0.8836
19376TIP3    H279620   3.902   3.684   3.701 -1.5080 -0.7032  0.8678
19377TIP3   OH279621   1.777   0.475  14.119 -0.1417  0.3246 -0.2714
19377TIP3    H179622   1.826   0.557  14.128 -1.2760  0.9660  0.2759
19377TIP3    H279623   1.758   0.469  14.025 -1.1989  1.4039 -0.1512
19378TIP3   OH279624   5.116   5.301  12.514  0.5428  0.1625 -0.0482
19378TIP3    H179625   5.160   5.384  12.494 -0.9786  1.1474  0.6365
19378TIP3    H279626   5.071   5.317  12.597  1.6570 -1.9107  1.0079
19379TIP3   OH279627   5.032   1.278   1.341  0.8601  0.6179  0.0128
19379TIP3    H179628   4.976   1.276   1.418  0.9668 -0.3549  0.0679
19379TIP3    H279629   4.981   1.327   1.276  0.3136  0.5036  0.3507
19380TIP3   OH279630   5.595   2.378  13.505  0.3276 -0.0573 -0.5733
19380TIP3    H179631   5.568   2.288  13.486  0.3818  0.0517 -1.1623
19380TIP3    H279632   5.643   2.371  13.588  0.9026 -0.6697 -0.9544
19381TIP3   OH279633   0.269   4.765   3.499  0.5512  0.3829  0.0086
19381TIP3    H179634   0.228   4.782   3.414  0.8459  1.8038  0.1471
19381TIP3    H279635   0.355   4.730   3.477 -0.0229 -0.8848 -0.2746
19382TIP3   OH279636   3.348   1.005  12.182  0.6157  0.4313  0.6869
19382TIP3    H179637   3.345   1.071  12.251  0.2000 -0.0817  1.1577
19382TIP3    H279638   3.373   0.925  12.227  0.2072  0.0676  0.2627
19383TIP3   OH279639   0.557   1.926  16.222  0.0806 -0.0729 -0.2325
19383TIP3    H179640   0.611   2.004  16.233  0.6368 -0.7175  1.8477
19383TIP3    H279641   0.610   1.867  16.168  0.2342  0.4362 -0.6360
19384TIP3   OH279642   0.301   5.572  15.282 -0.0361  0.3195 -0.8249
19384TIP3    H179643   0.348   5.650  15.312  1.7610 -0.9860 -0.1754
19384TIP3    H279644   0.313   5.572  15.187 -0.7718  1.2865 -0.9269
19385TIP3   OH279645   4.046   0.991   5.442  0.0568 -0.0693  0.2549
19385TIP3    H179646   3.992   0.916   5.469 -0.3451  0.3418  0.6175
19385TIP3    H279647   4.135   0.956   5.437  0.1618 -0.1510  2.2352
19386TIP3   OH279648   5.991   1.659  17.095 -0.0331 -0.4785  0.6074
19386TIP3    H179649   5.963   1.738  17.141 -0.2392 -0.5062  0.5322
19386TIP3    H279650   5.949   1.588  17.143  0.4396 -0.5665  0.8873
19387TIP3   OH279651   3.517   0.737  16.012 -0.2657 -1.2150  0.1085
19387TIP3    H179652   3.584   0.766  15.950  0.8786  0.0010  1.8586
19387TIP3    H279653   3.436   0.779  15.982  0.1975 -0.9806 -0.8006
19388TIP3   OH279654   0.095   1.938  16.457  0.2792 -0.4247 -0.1257
19388TIP3    H179655   0.012   1.906  16.421 -0.1911  0.3940  0.2431
19388TIP3    H279656   0.155   1.937  16.382  0.2053 -1.9022 -0.1964
19389TIP3   OH279657   4.691   6.308  16.706 -0.3403  0.1067 -0.2626
19389TIP3    H179658   4.596   6.309  16.698 -0.3418  0.4857 -0.2266
19389TIP3    H279659   4.712   6.391  16.749 -0.0488 -0.3128  0.4083
19390TIP3   OH279660   0.981   2.593   0.281 -0.6339  0.3167 -0.1053
19390TIP3    H179661   1.041   2.525   0.252  0.6170  0.3474  2.3343
19390TIP3    H279662   0.991   2.663   0.216  0.6889 -0.3814 -0.6720
19391TIP3   OH279663   5.760   2.614   0.051 -0.0013  0.0567 -0.3473
19391TIP3    H179664   5.851   2.604   0.023  0.5928  1.1759  1.1238
19391TIP3    H279665   5.731   2.525   0.070  1.9123 -0.0348  2.4947
19392TIP3   OH279666   2.963   4.649   2.519 -0.0557 -0.5374  0.0062
19392TIP3    H179667   3.034   4.671   2.578  1.6076  1.7760 -2.7263
19392TIP3    H279668   2.886   4.693   2.555  0.4795 -0.8103  1.4928
19393TIP3   OH279669   5.360   6.308   1.163  0.0781 -0.2142 -0.2491
19393TIP3    H179670   5.357   6.389   1.111 -1.5165  0.8524  1.4561
19393TIP3    H279671   5.433   6.320   1.223  0.8104 -0.7116 -1.0219
19394TIP3   OH279672   4.472   0.157   3.976  0.3427 -0.7251 -0.3056
19394TIP3    H179673   4.482   0.230   3.914 -0.7953 -0.4336 -0.1459
19394TIP3    H279674   4.562   0.137   4.003  0.7005  0.3816 -0.6343
19395TIP3   OH279675   2.083   0.955   6.623 -0.3713 -0.1153 -0.1522
19395TIP3    H179676   2.142   1.024   6.592 -0.5180 -0.3511 -0.9458
19395TIP3    H279677   2.005   1.002   6.653 -0.7678  0.0251 -1.3628
19396TIP3   OH279678   2.969   0.379  17.180  0.5858 -0.0387  0.3091
19396TIP3    H179679   3.050   0.424  17.200  0.3631  1.2856 -1.6588
19396TIP3    H279680   2.900   0.441  17.203  0.1875 -0.5043  0.3913
19397TIP3   OH279681   2.099   0.978   0.591 -0.3465 -0.0860  0.9193
19397TIP3    H179682   2.010   0.985   0.558  0.3889  1.1208 -0.9431
19397TIP3    H279683   2.125   0.888   0.573 -0.2551  0.3146 -1.1539
19398TIP3   OH279684   6.177   6.164  16.980  0.2044 -0.4028  0.1104
19398TIP3    H179685   6.163   6.194  17.069 -2.1988  1.2475 -0.7714
19398TIP3    H279686   6.091   6.168  16.939  1.0200 -2.3484 -1.9342
19399TIP3   OH279687   2.190   4.095   1.317 -0.4245  0.1222 -0.0205
19399TIP3    H179688   2.101   4.065   1.299 -0.0821  0.2520 -2.0515
19399TIP3    H279689   2.210   4.060   1.403 -1.8817 -1.2348 -0.2061
19400TIP3   OH279690   5.401   3.236  12.400 -0.3919 -0.4137  0.0706
19400TIP3    H179691   5.385   3.195  12.315 -0.7474  0.0444 -0.0874
19400TIP3    H279692   5.459   3.176  12.446  1.0055  0.0528 -1.0655
19401TIP3   OH279693   6.540   3.289   2.359  0.1027 -0.3397 -0.1897
19401TIP3    H179694   6.530   3.207   2.309  1.7496  0.2944 -1.6088
19401TIP3    H279695   6.633   3.310   2.351  0.0126  0.7908  1.6012
19402TIP3   OH279696   0.481   6.389   6.372 -0.0808  0.3739 -0.3462
19402TIP3    H179697   0.487   6.460   6.309  2.0326  0.3149 -0.2619
19402TIP3    H279698   0.454   6.313   6.320  2.1417  0.2059 -1.3053
19403TIP3   OH279699   5.916   5.593   3.752  0.0845  0.7895  0.2301
19403TIP3    H179700   5.957   5.544   3.824 -1.4949 -2.4244 -0.9635
19403TIP3    H279701   5.823   5.591   3.772 -0.3364  0.1458 -1.7064
19404TIP3   OH279702   1.243   6.671   3.002 -0.3821 -0.0325 -0.3565
19404TIP3    H179703   1.309   6.683   2.935  0.9595 -0.4041  0.8667
19404TIP3    H279704   1.179   6.611   2.963  0.6749 -0.6911 -1.0829
19405TIP3   OH279705   0.258   2.822  13.005 -0.3303 -0.4458  0.2698
19405TIP3    H179706   0.340   2.775  13.019  0.3758  1.3171  2.3187
19405TIP3    H279707   0.210   2.768  12.943  1.4998 -2.5815  0.6459
19406TIP3   OH279708   5.435   4.221  12.735 -0.0052  1.1036  0.3870
19406TIP3    H179709   5.419   4.219  12.640 -2.5218 -0.5954  0.8104
19406TIP3    H279710   5.504   4.156  12.748 -1.5130 -0.6072  0.0155
19407TIP3   OH279711   3.721   5.190  16.534 -0.4044 -0.0839  1.0694
19407TIP3    H179712   3.802   5.155  16.496 -0.9808  0.8477 -1.0974
19407TIP3    H279713   3.673   5.113  16.564  0.1534 -0.8374  0.0467
19408TIP3   OH279714   6.364   5.834   4.764  0.2057  0.2542  0.1157
19408TIP3    H179715   6.310   5.852   4.841  0.4701  1.8782 -0.0745
19408TIP3    H279716   6.314   5.869   4.690  0.9946  0.7680 -0.1861
19409TIP3   OH279717   3.043   2.795  14.915 -0.0044 -0.4665 -0.2879
19409TIP3    H179718   2.974   2.862  14.916  0.4997  0.0806 -1.3372
19409TIP3    H279719   3.055   2.774  14.822 -0.6285 -2.5170  0.0755
19410TIP3   OH279720   6.239   1.666  16.997 -0.2660  0.6206 -0.1158
19410TIP3    H179721   6.156   1.663  17.045 -0.9337 -1.8745 -1.3112
19410TIP3    H279722   6.217   1.707  16.914 -0.2954 -0.0456 -0.4342
19411TIP3   OH279723   6.599   6.305   2.901 -0.0936 -0.0694  0.1362
19411TIP3    H179724   6.595   6.326   2.994  2.3072  1.6156 -0.0889
19411TIP3    H279725   6.577   6.212   2.896  0.8283 -0.4519  2.5109
19412TIP3   OH279726   1.744   6.767  11.180 -0.1617  0.5425 -0.4361
19412TIP3    H179727   1.778   6.853  11.156  1.4375  0.0656  0.0072
19412TIP3    H279728   1.818   6.724  11.224 -0.9408 -1.0447 -0.6433
19413TIP3   OH279729   1.241   4.213   3.503  0.0872 -1.3051 -0.0591
19413TIP3    H179730   1.290   4.175   3.430  0.7179 -0.4869 -0.0650
19413TIP3    H279731   1.197   4.289   3.465 -1.3513 -2.1421 -0.1000
19414TIP3   OH279732   2.462   4.007  14.511  0.5262 -0.2391 -0.2374
19414TIP3    H179733   2.422   3.930  14.470 -0.3066  0.2513 -0.3557
19414TIP3    H279734   2.550   4.011  14.474 -0.7373  1.1212 -3.2322
19415TIP3   OH279735   5.603   5.523   2.583  0.1252 -0.1012  0.2580
19415TIP3    H179736   5.578   5.609   2.549  0.9327  0.7623  1.8001
19415TIP3    H279737   5.530   5.495   2.637  0.4001  0.1960  0.7862
19416TIP3   OH279738   2.837   2.198   4.454 -0.3162 -0.3573 -0.0932
19416TIP3    H179739   2.846   2.208   4.549 -1.6088 -0.0661  0.0031
19416TIP3    H279740   2.802   2.110   4.443  0.5233 -0.6641 -0.3472
19417TIP3   OH279741   3.373   0.123   3.027  0.3950 -0.3155  0.3946
19417TIP3    H179742   3.307   0.061   2.998 -0.5743  1.4637 -1.3924
19417TIP3    H279743   3.422   0.145   2.947 -1.0102  3.1600  0.3671
19418TIP3   OH279744   0.023   2.602  14.041 -0.1913  0.5103  0.6475
19418TIP3    H179745  -0.047   2.561  14.092  1.1966 -0.2273  2.0138
19418TIP3    H279746  -0.022   2.663  13.983 -1.9426  0.2246  1.6581
19419TIP3   OH279747   6.653   3.829  13.955 -0.4377 -0.1173  0.0165
19419TIP3    H179748   6.603   3.757  13.992 -0.1565 -0.5184 -0.3679
19419TIP3    H279749   6.611   3.908  13.989 -0.4925 -0.4684  0.7674
19420TIP3   OH279750   3.838   5.709   4.070  0.4063 -0.1742 -0.3357
19420TIP3    H179751   3.918   5.760   4.077  0.0810  0.5252 -1.6329
19420TIP3    H279752   3.868   5.618   4.071  1.1440  0.0671 -0.0056
19421TIP3   OH279753   5.297   2.589  11.444  0.3933  0.5797 -0.4848
19421TIP3    H179754   5.285   2.495  11.459  1.9106  0.6499  1.4357
19421TIP3    H279755   5.340   2.594  11.358  1.2862 -0.5742 -0.1285
19422TIP3   OH279756   2.881   3.030   4.007 -0.0182 -0.4041 -0.1256
19422TIP3    H179757   2.844   3.111   3.974  0.4776  0.4009  1.2740
19422TIP3    H279758   2.968   3.025   3.966  1.0379  1.1457  1.8495
19423TIP3   OH279759   4.865   6.321   2.667 -0.0232  0.5515  0.0289
19423TIP3    H179760   4.804   6.391   2.643 -1.3603 -1.1264 -1.6570
19423TIP3    H279761   4.951   6.363   2.666 -0.8510  2.2854 -0.4697
19424TIP3   OH279762   0.019   2.813   3.427  0.2267 -0.8543  0.3327
19424TIP3    H179763  -0.061   2.761   3.432 -1.0449  1.1494  1.6793
19424TIP3    H279764   0.030   2.848   3.515  2.1276 -0.4176 -0.0575
19425TIP3   OH279765   6.289   2.053   4.001  0.3379 -0.1866 -0.1720
19425TIP3    H179766   6.290   1.974   3.947 -0.6856 -0.5240  0.2779
19425TIP3    H279767   6.370   2.099   3.979  0.1611 -0.5514 -1.6397
19426TIP3   OH279768   3.668   2.759  11.044 -0.6727 -0.1497 -0.1121
19426TIP3    H179769   3.674   2.685  11.104 -0.9869  1.0108  1.3701
19426TIP3    H279770   3.703   2.726  10.961  0.3470 -1.5749  0.8782
19427TIP3   OH279771   1.509   0.673   0.610 -0.1236 -0.0644 -0.1928
19427TIP3    H179772   1.469   0.697   0.527 -0.8986  0.3266  0.2871
19427TIP3    H279773   1.447   0.703   0.676 -0.2168 -1.7238  0.4914
19428TIP3   OH279774   5.595   3.030   1.884 -0.1246  0.0440  0.4403
19428TIP3    H179775   5.518   2.974   1.894 -0.1763 -0.0374 -0.3681
19428TIP3    H279776   5.569   3.096   1.820  0.4864 -0.0002  0.1403
19429TIP3   OH279777   4.745   2.405   6.223 -0.3056 -0.6274  0.2333
19429TIP3    H179778   4.750   2.417   6.128 -1.9647 -2.1625 -0.0773
19429TIP3    H279779   4.807   2.334   6.242 -0.0225 -0.3650  0.2890
19430TIP3   OH279780   1.155   5.979  14.167 -0.6159  0.6879 -0.2527
19430TIP3    H179781   1.126   5.888  14.176 -1.4412  0.9196 -0.5582
19430TIP3    H279782   1.215   5.992  14.241  0.8282 -0.6105 -1.1678
19431TIP3   OH279783   1.220   6.059   0.436  0.2829  0.4306 -0.0529
19431TIP3    H179784   1.157   6.123   0.403 -0.2084 -0.2359 -0.4428
19431TIP3    H279785   1.234   6.083   0.527 -0.8652  0.3275  0.1515
19432TIP3   OH279786   2.118   5.099  15.171 -0.7310 -0.4970 -0.7339
19432TIP3    H179787   2.115   5.150  15.090  0.0018  0.3847 -0.2132
19432TIP3    H279788   2.152   5.014  15.144 -1.1830 -0.4484 -1.4701
19433TIP3   OH279789   4.490   4.165  13.783  0.3764 -0.4579  0.1257
19433TIP3    H179790   4.459   4.247  13.743  1.6746 -0.7715 -1.5759
19433TIP3    H279791   4.421   4.102  13.763 -0.2043 -0.0005  0.6582
19434TIP3   OH279792   4.384   0.252  15.496 -0.2340  0.2224 -0.1362
19434TIP3    H179793   4.347   0.169  15.527 -0.0229 -0.1330 -0.8340
19434TIP3    H279794   4.478   0.238  15.497 -0.2464 -0.0381 -1.6088
19435TIP3   OH279795   1.630   4.106  17.165 -0.0209  0.0968 -0.4320
19435TIP3    H179796   1.655   4.044  17.233 -0.1485 -0.4571 -0.8889
19435TIP3    H279797   1.707   4.114  17.109 -0.5448 -0.8777 -1.2919
19436TIP3   OH279798   5.540   4.623   3.527  0.5534 -0.1224 -0.0009
19436TIP3    H179799   5.630   4.590   3.530  0.9351  0.9168  0.4979
19436TIP3    H279800   5.485   4.545   3.523  1.4494 -0.7915  0.6632
19437TIP3   OH279801   3.243   5.195  15.260 -0.2591  0.3125  0.0449
19437TIP3    H179802   3.319   5.196  15.319  0.3201 -2.4025 -0.6185
19437TIP3    H279803   3.185   5.128  15.297 -0.0668 -1.1335 -2.2142
19438TIP3   OH279804   1.851   4.794   0.788 -0.1647  0.0726 -0.5948
19438TIP3    H179805   1.909   4.866   0.762  0.9654  0.2104  2.1648
19438TIP3    H279806   1.784   4.792   0.720  1.2799  2.0154 -2.1322
19439TIP3   OH279807   4.376   2.059   2.388 -0.1172 -0.5284  0.1925
19439TIP3    H179808   4.408   2.139   2.431  0.1876 -1.2581  1.3232
19439TIP3    H279809   4.424   2.057   2.305  1.2394 -0.5108  0.9696
19440TIP3   OH279810   4.795   0.797   1.658  0.2370 -0.2184  0.1574
19440TIP3    H179811   4.797   0.715   1.707 -0.1718 -1.3125 -1.6056
19440TIP3    H279812   4.747   0.777   1.578 -1.0204  2.0900  0.2720
19441TIP3   OH279813   4.826   0.071   1.155  0.3756  0.3668 -0.1153
19441TIP3    H179814   4.823   0.098   1.063  2.2685  1.0008 -0.0260
19441TIP3    H279815   4.919   0.051   1.170  0.4372  2.1526  2.1862
19442TIP3   OH279816   4.956   2.992  16.160  0.5230  0.3573  0.6221
19442TIP3    H179817   4.967   3.087  16.152 -0.6003  0.3386 -1.2061
19442TIP3    H279818   4.924   2.964  16.075  0.2783 -1.5964  1.3417
19443TIP3   OH279819   3.130   0.827   0.353 -0.3546 -0.6043  0.4825
19443TIP3    H179820   3.129   0.733   0.336 -0.8611 -0.5421  0.1554
19443TIP3    H279821   3.205   0.840   0.411  1.5247 -0.7937 -1.8243
19444TIP3   OH279822   5.690   2.852  13.929 -0.4393 -0.2496  0.4898
19444TIP3    H179823   5.747   2.784  13.892 -0.2898  0.0895  0.0921
19444TIP3    H279824   5.732   2.934  13.904  0.9365  0.0087  3.3249
19445TIP3   OH279825   5.381   0.232  16.686  0.3124 -0.1303  0.3614
19445TIP3    H179826   5.475   0.217  16.673  0.0119 -1.5959 -0.1756
19445TIP3    H279827   5.365   0.203  16.776  0.7341  1.9868  1.1561
19446TIP3   OH279828   5.658   2.002   4.469  0.2193  0.2111 -0.0023
19446TIP3    H179829   5.620   2.089   4.472  0.0583  0.1232  0.5270
19446TIP3    H279830   5.714   1.997   4.547  2.6262  0.9432 -1.6188
19447TIP3   OH279831   2.253   2.852   1.416 -0.0454 -0.5971 -0.2068
19447TIP3    H179832   2.161   2.863   1.393 -0.0210 -1.4573 -0.7426
19447TIP3    H279833   2.263   2.759   1.433  0.9514 -0.6896 -1.2004
19448TIP3   OH279834   2.957   3.509   0.006  0.8492  0.0637  0.5620
19448TIP3    H179835   2.953   3.481   0.098  1.4519 -0.8096  0.3262
19448TIP3    H279836   2.924   3.434  -0.043 -0.7251  1.0192  0.1451
19449TIP3   OH279837   1.977   1.187   2.355  0.1688 -0.8055 -0.2320
19449TIP3    H179838   2.069   1.214   2.355  0.2250 -0.9832 -0.5113
19449TIP3    H279839   1.933   1.251   2.409  0.0487  0.7396 -2.1098
19450TIP3   OH279840   0.718   4.406  17.140  0.0698  0.3786  0.6551
19450TIP3    H179841   0.789   4.370  17.194 -1.0602  0.7247  2.4339
19450TIP3    H279842   0.740   4.380  17.051  2.1726  0.0517  1.2377
19451TIP3   OH279843   1.437   6.799   4.929 -1.1613  0.1730  0.3198
19451TIP3    H179844   1.507   6.736   4.944 -0.9176  0.6341  1.1228
19451TIP3    H279845   1.465   6.849   4.853 -0.4373  0.6264  0.8889
19452TIP3   OH279846   1.403   0.407   4.883  0.0690  0.3523  0.4168
19452TIP3    H179847   1.448   0.459   4.949 -0.2721  0.2925  0.7031
19452TIP3    H279848   1.315   0.444   4.879 -0.1869 -0.2095  0.6464
19453TIP3   OH279849   4.091   3.689  13.575 -0.5062  0.1423 -0.6134
19453TIP3    H179850   4.133   3.773  13.593  0.6866 -0.2804 -1.3805
19453TIP3    H279851   3.999   3.712  13.558 -0.3211  1.2190 -0.2315
19454TIP3   OH279852   6.001   0.059   4.715  0.6974  0.3651 -0.2759
19454TIP3    H179853   5.945   0.126   4.677  0.4284 -0.1755 -0.8408
19454TIP3    H279854   6.084   0.068   4.668 -0.1101 -1.3059 -2.1108
19455TIP3   OH279855   0.179   1.668  15.581  0.2318  0.1806  0.3032
19455TIP3    H179856   0.097   1.658  15.532 -0.5102  2.2831  1.0263
19455TIP3    H279857   0.240   1.706  15.518 -0.3556  1.7192  0.6288
19456TIP3   OH279858   1.825   3.565   1.073  1.1031  0.4069  0.3700
19456TIP3    H179859   1.746   3.596   1.118 -0.1160 -2.0261  0.0078
19456TIP3    H279860   1.815   3.596   0.983  0.2163 -0.4265  0.1671
19457TIP3   OH279861   0.813   4.652   2.153 -0.3866  0.3322 -0.3149
19457TIP3    H179862   0.818   4.563   2.117  0.1750  0.6503 -1.0221
19457TIP3    H279863   0.840   4.709   2.081 -2.6667  1.2373 -0.4919
19458TIP3   OH279864   0.410   0.766   2.985 -0.1330  0.2994 -0.1092
19458TIP3    H179865   0.467   0.813   3.046  0.8097 -0.2959 -0.5248
19458TIP3    H279866   0.470   0.722   2.925 -1.0168 -0.7536 -0.2377
19459TIP3   OH279867   2.534   4.953  14.412 -0.3362  0.4923  0.2104
19459TIP3    H179868   2.570   5.013  14.347  0.8844 -1.3071 -0.7960
19459TIP3    H279869   2.457   4.916  14.371  0.3994 -0.5981 -0.2069
19460TIP3   OH279870   1.608   6.512   5.598 -0.0064 -0.2964 -0.7416
19460TIP3    H179871   1.620   6.511   5.693  0.8155  0.2596 -0.8290
19460TIP3    H279872   1.574   6.599   5.579  0.7959 -0.0460 -1.0576
19461TIP3   OH279873   6.306   1.836  16.015 -0.0694  0.4739 -0.6894
19461TIP3    H179874   6.279   1.777  16.086  0.3337 -0.2799 -1.1592
19461TIP3    H279875   6.269   1.797  15.936  0.0724  0.9347 -0.9867
19462TIP3   OH279876   4.455   1.679  14.322  0.3609 -0.0354  0.2467
19462TIP3    H179877   4.478   1.714  14.407  0.4650  0.2765  0.0891
19462TIP3    H279878   4.369   1.638  14.335  1.0486 -1.3105  0.8619
19463TIP3   OH279879   2.521   6.317   2.882  0.8163  0.2733  0.4135
19463TIP3    H179880   2.435   6.275   2.881  0.1866  1.5160  1.0481
19463TIP3    H279881   2.565   6.281   2.958  0.4787  0.3514  0.6491
19464TIP3   OH279882   2.402   4.939  17.244 -0.2542  0.4852  0.5217
19464TIP3    H179883   2.468   4.871  17.232 -0.8406 -0.4727  2.5373
19464TIP3    H279884   2.320   4.892  17.259 -1.1392  1.6584 -0.4288
19465TIP3   OH279885   1.887   1.725   2.210 -0.2525  0.0844  0.6235
19465TIP3    H179886   1.903   1.814   2.178  1.1134  0.1840  1.5140
19465TIP3    H279887   1.975   1.687   2.219 -0.6998 -0.5847  2.3572
19466TIP3   OH279888   3.955   0.904   0.144  0.4917 -0.1774  0.1021
19466TIP3    H179889   3.945   0.901   0.049  0.7255 -0.7880  0.0967
19466TIP3    H279890   4.007   0.982   0.160  0.7545 -0.2716 -0.2958
19467TIP3   OH279891   1.388   1.793   5.415 -0.3787  0.1606 -0.4814
19467TIP3    H179892   1.293   1.798   5.422 -0.2678  0.4546  0.8394
19467TIP3    H279893   1.420   1.868   5.465  0.5788 -0.4707 -0.1368
19468TIP3   OH279894   3.414   2.155   3.513  0.5263 -0.2983 -0.4162
19468TIP3    H179895   3.410   2.060   3.516  0.3840 -0.3520 -1.8366
19468TIP3    H279896   3.322   2.182   3.504  0.3927  0.0635  1.8623
19469TIP3   OH279897   1.387   0.043   3.190 -0.0916  0.5236 -0.3945
19469TIP3    H179898   1.357  -0.024   3.128  2.7871 -0.0461 -1.2338
19469TIP3    H279899   1.329   0.033   3.265 -1.1254 -1.4544 -1.3980
19470TIP3   OH279900   5.757   1.261   5.300 -0.6780 -0.7298  0.4045
19470TIP3    H179901   5.835   1.289   5.348 -1.8643  3.1275  0.2593
19470TIP3    H279902   5.688   1.257   5.367 -1.1066 -0.8259 -0.0411
19471TIP3   OH279903   1.541   4.460  15.498 -0.2762  0.3380  0.3408
19471TIP3    H179904   1.524   4.500  15.583 -2.6201  0.5305 -0.1840
19471TIP3    H279905   1.491   4.377  15.501  0.0341  0.1153 -0.6497
19472TIP3   OH279906   5.699   4.033   2.434  0.3948 -0.3794  0.6034
19472TIP3    H179907   5.652   4.034   2.351  0.1345  1.9336  0.7429
19472TIP3    H279908   5.784   3.992   2.414  1.0065  1.7090 -1.1933
19473TIP3   OH279909   6.421   2.795  13.669 -0.3846  0.3023 -0.0952
19473TIP3    H179910   6.463   2.838  13.595  2.5583 -1.3894  0.4875
19473TIP3    H279911   6.328   2.809  13.656  0.1368  1.0757 -3.4510
19474TIP3   OH279912   2.715   4.281  14.937 -0.0056 -0.4151  0.2833
19474TIP3    H179913   2.796   4.232  14.946  0.6990  0.5676 -0.6559
19474TIP3    H279914   2.647   4.220  14.964  0.9760 -1.5020  0.3060
19475TIP3   OH279915   1.667   5.182   0.567  0.5620 -0.5604 -0.3628
19475TIP3    H179916   1.671   5.092   0.536  1.8151 -0.9397  0.8499
19475TIP3    H279917   1.734   5.187   0.635 -0.7783  0.7898  0.8872
19476TIP3   OH279918   1.590   2.031   3.313 -0.3646 -0.4942 -0.1483
19476TIP3    H179919   1.679   2.042   3.346 -1.1731  0.6965  1.6845
19476TIP3    H279920   1.545   1.982   3.382 -2.2490  2.5671  0.8587
19477TIP3   OH279921   5.555   6.276   2.172  0.0697  0.1940 -0.2590
19477TIP3    H179922   5.633   6.272   2.227 -0.0879 -0.4137 -0.0778
19477TIP3    H279923   5.583   6.326   2.095  1.7561 -3.1720 -1.9576
19478TIP3   OH279924   5.336   2.195   2.219  0.0290 -0.2372 -0.3977
19478TIP3    H179925   5.270   2.155   2.163 -0.9676  2.1083 -0.9710
19478TIP3    H279926   5.288   2.218   2.299  0.5386 -0.0201 -0.1565
19479TIP3   OH279927   5.803   3.955  16.684 -0.3765  0.0077 -0.3087
19479TIP3    H179928   5.873   4.000  16.636 -0.7464  0.5564 -0.3277
19479TIP3    H279929   5.850   3.904  16.750  0.2661 -2.2399 -2.4364
19480TIP3   OH279930   0.414   4.597   5.028  0.0749 -0.1110 -0.2182
19480TIP3    H179931   0.367   4.677   5.050 -0.5845 -1.0581  1.9664
19480TIP3    H279932   0.504   4.625   5.011 -0.0030  1.0270  1.1751
19481TIP3   OH279933   5.985   6.247   4.625  0.2697  0.8763 -0.0586
19481TIP3    H179934   5.902   6.210   4.597  0.8327  0.9927 -1.9687
19481TIP3    H279935   5.962   6.326   4.673 -0.7434  0.6613 -0.1948
19482TIP3   OH279936   0.537   4.493   3.737 -0.6893  0.3721 -0.4209
19482TIP3    H179937   0.607   4.555   3.714 -1.9290  1.4273 -1.4093
19482TIP3    H279938   0.523   4.442   3.657 -0.2208 -0.6817  0.1521
19483TIP3   OH279939   5.195   5.755   3.112  0.0322 -0.4756 -0.0960
19483TIP3    H179940   5.141   5.676   3.116 -1.9658  0.8705  0.1879
19483TIP3    H279941   5.253   5.747   3.188 -0.9140 -1.1377  0.5789
19484TIP3   OH279942   5.821   2.202  10.847  0.0743  0.6894  0.1976
19484TIP3    H179943   5.777   2.212  10.931  0.4813  0.1999  0.4705
19484TIP3    H279944   5.896   2.261  10.853 -1.0197  2.2002 -0.6049
19485TIP3   OH279945   2.463   1.827  13.072  0.2068  0.3659 -0.3103
19485TIP3    H179946   2.443   1.775  12.994 -1.1924 -0.9809  0.9120
19485TIP3    H279947   2.397   1.800  13.136  0.4303  2.5121  0.8726
19486TIP3   OH279948   6.252   3.100  12.757  0.3021  0.3279 -0.1331
19486TIP3    H179949   6.304   3.133  12.684  0.6788  0.7925  0.3397
19486TIP3    H279950   6.312   3.044  12.805 -0.1442 -0.5126 -0.5583
19487TIP3   OH279951   4.870   1.514   4.438 -0.8033 -0.0904  0.0116
19487TIP3    H179952   4.946   1.515   4.496 -0.8364  0.1218  0.0510
19487TIP3    H279953   4.845   1.422   4.432  0.4076 -0.3614 -1.2292
19488TIP3   OH279954   4.748   4.465   2.043 -0.5352  0.5813  0.5942
19488TIP3    H179955   4.730   4.402   2.113  0.7344  0.5557  0.9065
19488TIP3    H279956   4.675   4.453   1.981  0.1489 -1.8216  0.1976
19489TIP3   OH279957   2.890   6.181   1.299  0.0621 -0.1046  0.2030
19489TIP3    H179958   2.842   6.244   1.355  0.0817  0.1100 -0.0234
19489TIP3    H279959   2.965   6.231   1.267  0.1573 -0.2914  0.1422
19490TIP3   OH279960   1.590   2.007   0.166  0.0287  0.2852  0.1403
19490TIP3    H179961   1.667   2.060   0.146 -0.3757  0.8623  0.0636
19490TIP3    H279962   1.580   1.949   0.091 -0.7387  1.5621 -0.7790
19491TIP3   OH279963   1.628   5.372   5.682 -0.8378  0.0032 -0.2934
19491TIP3    H179964   1.712   5.349   5.643 -1.3064 -0.6684 -0.9089
19491TIP3    H279965   1.650   5.434   5.751  0.1857 -0.3588 -0.2926
19492TIP3   OH279966   0.313   4.052  12.342  0.1159  0.3626 -0.4426
19492TIP3    H179967   0.293   4.142  12.368  1.6762  0.0134  2.1821
19492TIP3    H279968   0.229   4.015  12.315 -0.2807  3.0717 -3.2146
19493TIP3   OH279969   0.485   4.182  14.214  0.1757  0.2358  0.4971
19493TIP3    H179970   0.486   4.264  14.164  1.4097  0.0705  0.2346
19493TIP3    H279971   0.573   4.147  14.204 -0.3795 -1.1834  0.5266
19494TIP3   OH279972   3.173   2.757  16.817  1.1215  0.4813  0.2558
19494TIP3    H179973   3.220   2.836  16.844  1.0278  0.8747 -0.7196
19494TIP3    H279974   3.172   2.761  16.722  0.6208 -0.4141  0.2210
19495TIP3   OH279975   1.165   5.787   0.373 -0.0287  0.9114  0.2660
19495TIP3    H179976   1.131   5.716   0.428  0.5656  1.2083  1.0369
19495TIP3    H279977   1.090   5.844   0.358 -0.2539  0.7009  0.5785
19496TIP3   OH279978   6.576   5.867  14.252  0.6260 -0.0541  0.4501
19496TIP3    H179979   6.647   5.908  14.303  0.3002  0.2847  0.6318
19496TIP3    H279980   6.565   5.925  14.177  2.7300 -1.8076 -1.2731
19497TIP3   OH279981   4.633   2.697   2.337 -0.0007  0.2385  0.3881
19497TIP3    H179982   4.686   2.718   2.260  0.0021  1.2297  0.6524
19497TIP3    H279983   4.542   2.702   2.305  0.0299 -0.8523  0.0881
19498TIP3   OH279984   6.723   6.503   3.568 -0.3079 -0.2579 -0.9710
19498TIP3    H179985   6.777   6.517   3.646 -0.8537 -1.1265 -0.4361
19498TIP3    H279986   6.705   6.592   3.536  0.6821  0.0706 -0.6427
19499TIP3   OH279987   2.004   6.479   4.209  0.3736  0.6457  0.0079
19499TIP3    H179988   1.983   6.386   4.197 -0.7940  0.8294  0.6099
19499TIP3    H279989   1.922   6.520   4.235  0.4156  2.2163 -2.1844
19500TIP3   OH279990   1.472   1.071  17.139  0.0234  0.5075 -0.6495
19500TIP3    H179991   1.562   1.060  17.107  0.8255  2.5347  0.8153
19500TIP3    H279992   1.481   1.072  17.235 -1.6288  0.1958 -0.4862
19501TIP3   OH279993   0.696   2.417   6.926  0.4064 -1.0470 -0.1056
19501TIP3    H179994   0.763   2.429   6.859 -0.8142 -0.1869 -1.1782
19501TIP3    H279995   0.657   2.504   6.938 -2.2025 -1.9991 -1.2937
19502TIP3   OH279996   3.328   2.094  10.692  0.5925 -0.3055  0.3271
19502TIP3    H179997   3.348   2.009  10.651 -2.5339 -0.0975 -1.7602
19502TIP3    H279998   3.368   2.158  10.632 -1.3732 -0.1273 -0.8200
19503TIP3   OH279999   2.898   0.824   5.232 -0.3134  0.0407  0.0957
19503TIP3    H180000   2.980   0.796   5.272 -1.9101 -0.0359  3.5235
19503TIP3    H280001   2.863   0.745   5.190 -0.9931 -1.2930  2.9822
19504TIP3   OH280002   6.682   0.880  14.192  0.1330 -0.3989  0.0546
19504TIP3    H180003   6.710   0.837  14.273 -1.6313 -0.1972  0.8056
19504TIP3    H280004   6.666   0.971  14.217 -0.8503 -0.4305 -0.3966
19505TIP3   OH280005   0.193   5.221  15.155 -0.3816  0.2258 -0.1223
19505TIP3    H180006   0.116   5.251  15.204 -0.2984 -2.4867  1.7584
19505TIP3    H280007   0.159   5.153  15.096  0.5853 -1.2138  0.9449
19506TIP3   OH280008   0.053   5.351  12.591  0.4526  0.1679 -0.0814
19506TIP3    H180009   0.053   5.272  12.645  0.7236  0.0934 -0.1863
19506TIP3    H280010   0.090   5.419  12.648  0.7427  0.0887 -0.1692
19507TIP3   OH280011   5.569   1.017   2.013 -0.0001 -0.1345  0.1135
19507TIP3    H180012   5.579   0.925   2.039  1.8662  0.3394  1.1488
19507TIP3    H280013   5.624   1.065   2.075 -0.4297  1.6202 -0.8560
19508TIP3   OH280014   0.912   1.836   1.837 -0.3919 -0.0172  0.2146
19508TIP3    H180015   0.892   1.761   1.894  0.5933 -0.7475 -0.3748
19508TIP3    H280016   1.002   1.860   1.860 -1.0974  1.7515  1.2177
19509TIP3   OH280017   5.403   2.319   3.946  0.0475 -0.5796 -0.2246
19509TIP3    H180018   5.322   2.282   3.912 -1.1772  1.7398  0.0165
19509TIP3    H280019   5.472   2.276   3.896 -1.3081 -2.6664 -0.3587
19510TIP3   OH280020   0.690   4.817   4.587  0.2395 -0.3847 -1.2499
19510TIP3    H180021   0.704   4.744   4.649 -0.6147 -0.1738 -0.8077
19510TIP3    H280022   0.777   4.831   4.549  1.3384  0.9933  1.5716
19511TIP3   OH280023   1.962   5.914   0.967  0.1077  0.5047 -0.4246
19511TIP3    H180024   2.033   5.872   1.016 -1.4595 -0.7923  0.7785
19511TIP3    H280025   1.963   5.870   0.882 -0.9048 -1.3753  0.4941
19512TIP3   OH280026   5.061   3.050   5.167  0.0794 -0.0214  0.9505
19512TIP3    H180027   5.060   3.098   5.250  0.6781  0.3144  0.7740
19512TIP3    H280028   5.085   3.116   5.102  0.4290 -0.4584  0.6308
19513TIP3   OH280029   3.240   3.969  15.239  0.2088 -0.2527 -0.3853
19513TIP3    H180030   3.309   3.923  15.193  0.6937 -0.5216  0.5902
19513TIP3    H280031   3.284   4.039  15.287 -0.1467 -0.5648  0.4245
19514TIP3   OH280032   6.576   4.064  17.112  0.0335  0.1644 -0.3098
19514TIP3    H180033   6.613   4.132  17.055 -0.2634  0.8207  0.2644
19514TIP3    H280034   6.518   4.112  17.170 -0.0256 -0.5686  0.2358
19515TIP3   OH280035   4.199   5.067  14.384 -0.2669  0.0267 -0.4908
19515TIP3    H180036   4.187   5.038  14.474  4.0360  1.0208  0.5176
19515TIP3    H280037   4.199   4.987  14.332 -0.2018 -0.7875  0.7449
19516TIP3   OH280038   3.033   3.859   4.804  0.3206 -0.0711  0.4522
19516TIP3    H180039   2.962   3.829   4.861 -0.7375 -0.6778 -1.1424
19516TIP3    H280040   2.997   3.934   4.758  1.9406  1.8438  2.1884
19517TIP3   OH280041   2.583   1.778  11.747 -0.2413 -0.2883 -0.3036
19517TIP3    H180042   2.524   1.712  11.783 -0.7352  0.3327  0.0535
19517TIP3    H280043   2.561   1.858  11.796 -0.0394  0.2692 -1.1077
19518TIP3   OH280044   3.599   0.742   3.081  0.4915  0.6173  0.2975
19518TIP3    H180045   3.514   0.782   3.063  0.3996 -0.5692 -2.0200
19518TIP3    H280046   3.593   0.714   3.172 -1.7940  0.0834  0.0094
19519TIP3   OH280047   1.862   0.457   5.093  0.1034  0.4016 -0.0349
19519TIP3    H180048   1.852   0.366   5.121 -1.1043  0.4933 -0.1482
19519TIP3    H280049   1.937   0.489   5.144  0.3825 -0.5687  0.1944
19520TIP3   OH280050   5.653   5.512   2.273  0.3974  0.3443 -0.1423
19520TIP3    H180051   5.576   5.465   2.240 -1.2234  0.9012  2.7127
19520TIP3    H280052   5.665   5.479   2.362  3.1201  0.7459 -0.3112
19521TIP3   OH280053   6.506   3.817   3.059 -0.8334 -0.5127  0.4026
19521TIP3    H180054   6.425   3.829   3.108 -0.5233  3.3482  0.1525
19521TIP3    H280055   6.489   3.859   2.974  1.2440 -0.1044  0.1549
19522TIP3   OH280056   1.287   0.661  13.162  0.2783 -0.4926  0.0228
19522TIP3    H180057   1.366   0.608  13.160  0.7416  0.2296 -1.3019
19522TIP3    H280058   1.255   0.660  13.072 -1.8850 -1.7521  0.7713
19523TIP3   OH280059   1.481   6.303   1.004  0.2205  0.3002  0.2095
19523TIP3    H180060   1.526   6.375   1.050  0.0617  0.3972  0.2141
19523TIP3    H280061   1.388   6.323   1.014  0.1271 -0.7948  1.6410
19524TIP3   OH280062   2.234   0.082  16.718  0.1920 -0.5006  0.8913
19524TIP3    H180063   2.158   0.136  16.742  1.1687  0.0648  2.8414
19524TIP3    H280064   2.280   0.134  16.652 -2.4409 -1.9850 -2.2118
19525TIP3   OH280065   6.163   2.564   3.054 -0.0934  0.5376  0.1480
19525TIP3    H180066   6.147   2.573   3.148  0.5299  0.7658  0.2371
19525TIP3    H280067   6.101   2.625   3.013  0.3683  1.2389  0.4710
19526TIP3   OH280068   0.772   5.139   6.259 -0.8526 -0.2073 -0.8189
19526TIP3    H180069   0.790   5.233   6.251 -0.4045 -0.3603 -1.7284
19526TIP3    H280070   0.676   5.134   6.262 -0.8475  0.3737  0.7087
19527TIP3   OH280071   5.595   2.250   2.016 -0.4345 -0.5080 -0.0141
19527TIP3    H180072   5.531   2.179   2.009 -1.1061  0.2880 -2.6794
19527TIP3    H280073   5.557   2.310   2.080 -0.0337 -2.3210  1.9995
19528TIP3   OH280074   0.708   6.497  11.764  0.0449  0.7216  0.1619
19528TIP3    H180075   0.637   6.450  11.807 -0.1823  0.6206 -0.3229
19528TIP3    H280076   0.665   6.571  11.722  0.4891  1.7507  1.4891
19529TIP3   OH280077   1.291   4.528   0.227  0.5251  0.2264  0.1466
19529TIP3    H180078   1.308   4.453   0.284  1.1356 -0.9117 -1.4944
19529TIP3    H280079   1.236   4.494   0.157  1.5097  1.0943 -1.0813
19530TIP3   OH280080   0.012   0.341   0.705 -0.0670  0.0088 -0.1484
19530TIP3    H180081   0.098   0.343   0.663  0.3487  1.2713  0.7443
19530TIP3    H280082  -0.021   0.253   0.688  1.4323 -0.5057 -0.4457
19531TIP3   OH280083   5.441   6.675   3.699 -0.0747  0.0506 -0.4935
19531TIP3    H180084   5.369   6.627   3.740  0.0787  0.7723  0.6430
19531TIP3    H280085   5.442   6.759   3.744  1.6499 -0.0513 -0.3275
19532TIP3   OH280086   5.285   1.904  12.539  0.6859  0.6607 -0.0257
19532TIP3    H180087   5.193   1.883  12.525  0.9667  0.5149 -1.7630
19532TIP3    H280088   5.318   1.929  12.452  2.3797  0.3192  0.4932
19533TIP3   OH280089   2.814   2.723  16.299 -0.4278  0.2190 -0.0992
19533TIP3    H180090   2.819   2.667  16.377  0.7633  1.5585  0.8113
19533TIP3    H280091   2.855   2.671  16.229 -2.0230 -1.2156  0.0119
19534TIP3   OH280092   0.972   2.661  15.850  0.1669 -0.6677 -0.3201
19534TIP3    H180093   0.887   2.705  15.837  0.9868  1.0869  0.0552
19534TIP3    H280094   0.968   2.630  15.940 -0.0336 -0.4661 -0.2557
19535TIP3   OH280095   1.985   4.277   4.702  0.2372 -0.2867  0.1303
19535TIP3    H180096   1.938   4.196   4.682  1.1870 -0.4569 -1.4590
19535TIP3    H280097   2.032   4.258   4.783 -0.8025 -0.7935  0.6175
19536TIP3   OH280098   2.534   4.535   4.134 -0.2272  0.1630 -0.8941
19536TIP3    H180099   2.591   4.467   4.170  0.1222  1.2234  0.6047
19536TIP3    H280100   2.542   4.608   4.195 -1.9444  0.9248 -1.5473
19537TIP3   OH280101   1.467   4.611  14.763 -0.3498 -0.4520 -0.0949
19537TIP3    H180102   1.526   4.685  14.777  0.7985 -1.3594 -0.0690
19537TIP3    H280103   1.438   4.586  14.851 -1.8830  0.8605 -0.1971
19538TIP3   OH280104   6.817   5.259   0.842 -0.1903 -0.2178 -0.2296
19538TIP3    H180105   6.898   5.216   0.815  1.0913  0.8161  1.7844
19538TIP3    H280106   6.772   5.193   0.895 -0.9548 -0.9898 -1.8195
19539TIP3   OH280107   0.987   6.588   3.706  0.0460  0.2135 -0.1564
19539TIP3    H180108   0.913   6.590   3.645  0.5979 -1.5542 -0.9079
19539TIP3    H280109   1.048   6.654   3.671 -0.1935  0.0985 -0.7973
19540TIP3   OH280110   2.394   4.393  12.561  0.3119 -0.0301 -0.1789
19540TIP3    H180111   2.398   4.480  12.599 -2.7809 -0.7028  1.8041
19540TIP3    H280112   2.366   4.408  12.471  0.0182  1.0133  0.0787
19541TIP3   OH280113   3.686   4.146  14.110 -0.1156 -0.0109 -0.1175
19541TIP3    H180114   3.715   4.070  14.060  0.0122  0.6243 -1.0357
19541TIP3    H280115   3.739   4.144  14.190  1.4741  0.3213 -1.1165
19542TIP3   OH280116   0.225   3.691  16.591 -0.4799  0.5909 -0.1147
19542TIP3    H180117   0.172   3.711  16.514 -0.8903  0.2002  0.0668
19542TIP3    H280118   0.284   3.622  16.562 -0.9903  0.0745  0.0677
19543TIP3   OH280119   1.581   0.066   5.604 -0.5639  0.0671 -0.1394
19543TIP3    H180120   1.619   0.134   5.547  1.4629 -0.2789  0.7529
19543TIP3    H280121   1.572  -0.010   5.546  2.7874 -0.7096  0.2701
19544TIP3   OH280122   3.463   5.162  15.421 -0.1122  0.1747 -0.6935
19544TIP3    H180123   3.541   5.213  15.440 -0.4545  0.6327 -0.4992
19544TIP3    H280124   3.489   5.071  15.436  0.7285  0.2158 -1.8032
19545TIP3   OH280125   1.100   3.211  12.222  0.4119 -0.1688  0.9231
19545TIP3    H180126   1.007   3.235  12.218  0.1370 -1.1546  1.2105
19545TIP3    H280127   1.123   3.223  12.314  0.2401 -1.1146  1.0914
19546TIP3   OH280128   0.888   3.375   3.600  0.1895  0.1749 -0.3801
19546TIP3    H180129   0.933   3.391   3.683  0.7457  0.3877 -0.7138
19546TIP3    H280130   0.957   3.341   3.543 -1.4475 -6.4097  1.1323
19547TIP3   OH280131   5.343   1.770  12.051  0.0392  0.1182 -0.0339
19547TIP3    H180132   5.420   1.825  12.058  0.7195 -0.3531 -3.2204
19547TIP3    H280133   5.377   1.681  12.042 -0.8263 -0.0604 -1.7945
19548TIP3   OH280134   0.106   0.267  12.587 -0.2618 -0.2225  0.1108
19548TIP3    H180135   0.031   0.247  12.644 -0.5691 -1.3912 -0.6917
19548TIP3    H280136   0.108   0.195  12.524  1.1423  0.1555 -0.2828
19549TIP3   OH280137   6.460   1.812  10.447  0.5120 -0.1593  0.6503
19549TIP3    H180138   6.480   1.888  10.501  0.9399 -1.8920  3.0178
19549TIP3    H280139   6.540   1.797  10.396  1.2082 -0.3113  1.7695
19550TIP3   OH280140   2.067   2.057  13.859 -0.2753  0.7008  0.0128
19550TIP3    H180141   2.111   2.005  13.792 -1.5512 -0.7399  0.2647
19550TIP3    H280142   2.086   2.148  13.836  0.2269  0.1821 -1.6470
19551TIP3   OH280143   0.119   3.316   5.694  0.6150  0.2876 -0.7721
19551TIP3    H180144   0.157   3.385   5.639  3.1066  0.3024  0.8737
19551TIP3    H280145   0.193   3.258   5.714 -1.1293 -2.0420 -0.9007
19552TIP3   OH280146   0.192   4.373   2.262  0.1521 -0.2749  0.6538
19552TIP3    H180147   0.241   4.451   2.287 -0.5011 -0.2827  2.0211
19552TIP3    H280148   0.149   4.345   2.343  0.9080 -2.4273  0.3308
19553TIP3   OH280149   6.759   1.660  14.812 -0.6658  0.2350 -0.1139
19553TIP3    H180150   6.725   1.575  14.787  2.1151 -0.9469 -0.0883
19553TIP3    H280151   6.835   1.673  14.755  0.1323  1.7809  1.2689
19554TIP3   OH280152   6.286   0.810  17.135 -0.3694  0.6311 -0.0555
19554TIP3    H180153   6.373   0.845  17.112 -0.6186  1.5908  0.4786
19554TIP3    H280154   6.293   0.788  17.228 -1.4522  2.9882  0.6049
19555TIP3   OH280155   1.708   1.844  15.327 -0.4874  0.2871  0.3298
19555TIP3    H180156   1.665   1.923  15.359 -2.1200 -0.4303 -0.0097
19555TIP3    H280157   1.785   1.875  15.280 -0.6736  1.6200  0.9053
19556TIP3   OH280158   4.580   3.071   0.047 -0.6409 -0.8251 -0.1143
19556TIP3    H180159   4.581   3.032  -0.041  2.4959 -0.6349 -0.2209
19556TIP3    H280160   4.596   2.997   0.106  0.5953 -0.4691  0.0172
19557TIP3   OH280161   3.768   0.764  13.176 -0.1608  0.1795  0.1366
19557TIP3    H180162   3.815   0.790  13.097  1.5667  0.0772  1.1003
19557TIP3    H280163   3.828   0.786  13.248 -1.7530  0.3995  1.4287
19558TIP3   OH280164   5.364   0.382  17.005  0.0537 -0.9481  0.3386
19558TIP3    H180165   5.386   0.445  17.074  2.2190  1.1659 -2.1744
19558TIP3    H280166   5.443   0.328  16.997 -0.6703 -2.0089  0.3848
19559TIP3   OH280167   0.736   1.390  12.461  0.1356 -0.3282 -0.4869
19559TIP3    H180168   0.650   1.401  12.420  0.1321  0.7812 -0.2013
19559TIP3    H280169   0.793   1.360  12.391 -0.1290  0.4583 -1.0376
19560TIP3   OH280170   2.436   6.569  11.687 -0.0794  0.0334  0.5823
19560TIP3    H180171   2.500   6.550  11.756  1.3243  1.9520 -0.1523
19560TIP3    H280172   2.459   6.657  11.656 -3.4537  1.0177  0.6990
19561TIP3   OH280173   2.480   3.790  11.013 -0.0603 -0.2226 -0.5817
19561TIP3    H180174   2.551   3.844  11.047  2.2419 -3.9522  0.8673
19561TIP3    H280175   2.421   3.779  11.088 -1.0217  0.9848 -1.1408
19562TIP3   OH280176   5.226   3.226  11.147  0.2694 -0.3237 -0.3002
19562TIP3    H180177   5.190   3.153  11.098  0.3432  0.3969 -1.4587
19562TIP3    H280178   5.187   3.304  11.107  0.0845  0.2708  0.9956
19563TIP3   OH280179   6.565   1.161  13.761 -0.5302  0.0588  0.1111
19563TIP3    H180180   6.564   1.152  13.856 -0.4821  1.9814  0.3186
19563TIP3    H280181   6.475   1.184  13.738 -0.8196 -1.5484 -0.4580
19564TIP3   OH280182   1.399   5.653  14.201 -0.3307 -0.7217 -0.0685
19564TIP3    H180183   1.433   5.619  14.284  1.0990 -0.6846 -0.6162
19564TIP3    H280184   1.390   5.576  14.146  1.4872 -0.4371 -0.8157
19565TIP3   OH280185   5.789   4.901   0.046 -0.3842 -0.2269  0.2175
19565TIP3    H180186   5.884   4.901   0.060 -0.1049 -1.7678 -1.5273
19565TIP3    H280187   5.754   4.853   0.122  0.1512  0.9989  1.2540
19566TIP3   OH280188   6.503   0.158   3.522  0.3851  0.1535  0.3349
19566TIP3    H180189   6.434   0.181   3.460 -1.2658 -0.9761  1.6852
19566TIP3    H280190   6.518   0.239   3.572 -0.5357  0.1937  0.5560
19567TIP3   OH280191   2.966   1.092   3.268 -0.7511  0.0626  0.1630
19567TIP3    H180192   3.011   1.142   3.337 -2.4881  0.0064  1.3761
19567TIP3    H280193   3.031   1.083   3.199  0.8077  0.7615  1.4944
19568TIP3   OH280194   6.497   0.007   0.203 -0.2619 -0.1633  0.1235
19568TIP3    H180195   6.431   0.022   0.135 -0.2189  1.0041  0.3259
19568TIP3    H280196   6.526  -0.083   0.189 -1.2794 -0.4004 -0.5083
19569TIP3   OH280197   1.075   2.352   3.435  0.8889  0.3627  0.0749
19569TIP3    H180198   0.985   2.350   3.467  0.2094  2.5976 -1.5935
19569TIP3    H280199   1.067   2.343   3.340  2.4685 -0.1456 -0.0185
19570TIP3   OH280200   0.177   6.063  17.282  0.0415 -0.0915  0.0611
19570TIP3    H180201   0.187   6.092  17.373  1.0430 -1.2656  0.3392
19570TIP3    H280202   0.117   5.989  17.287  0.2811 -0.3050 -0.1995
19571TIP3   OH280203   4.294   5.500  14.156 -0.0838 -0.2040 -0.1143
19571TIP3    H180204   4.257   5.566  14.215 -0.6220  1.4265 -2.2162
19571TIP3    H280205   4.261   5.417  14.189 -3.6710  1.0029 -0.4368
19572TIP3   OH280206   6.393   5.588  16.731 -0.1094 -0.1700 -0.2072
19572TIP3    H180207   6.356   5.579  16.819  0.7471  1.1911  0.3070
19572TIP3    H280208   6.369   5.676  16.704 -0.0543 -0.4524 -1.2018
19573TIP3   OH280209   5.049   4.244   4.382  0.1983 -0.0053 -0.0703
19573TIP3    H180210   5.144   4.246   4.391  0.2953 -1.4000 -0.7125
19573TIP3    H280211   5.027   4.327   4.341  1.2953 -0.3355 -1.3477
19574TIP3   OH280212   2.876   5.911  15.398  0.0497 -0.3239 -0.3444
19574TIP3    H180213   2.898   5.868  15.481 -0.2561 -1.1520 -0.6899
19574TIP3    H280214   2.815   5.981  15.422  2.1151  1.2481  0.4808
19575TIP3   OH280215   2.210   2.139   3.099  0.3621 -0.3461 -0.2204
19575TIP3    H180216   2.274   2.114   3.032 -0.0122 -3.1747  0.3974
19575TIP3    H280217   2.254   2.122   3.182  0.5777  2.5065  0.2935
19576TIP3   OH280218   6.050   4.855   3.899  0.7559 -0.0453 -0.3364
19576TIP3    H180219   5.969   4.870   3.851  0.0874 -0.2300  0.7296
19576TIP3    H280220   6.044   4.765   3.930 -0.1028  0.9374  2.4995
19577TIP3   OH280221   1.608   3.851  15.910 -0.1656 -0.2506  0.4662
19577TIP3    H180222   1.696   3.880  15.889  1.3012 -3.7882  1.3921
19577TIP3    H280223   1.595   3.773  15.856 -2.8716  0.3278  0.1590
19578TIP3   OH280224   0.727   2.040   6.691  0.3724  0.3417 -0.4029
19578TIP3    H180225   0.772   1.956   6.684 -0.7431 -0.2502 -0.5082
19578TIP3    H280226   0.791   2.104   6.659  1.4705 -0.3782  0.3346
19579TIP3   OH280227   1.239   2.072  12.770  0.0290 -0.5592  0.0901
19579TIP3    H180228   1.310   2.115  12.817  2.1444 -0.6819 -2.8637
19579TIP3    H280229   1.281   2.001  12.721 -2.5639 -2.4689  0.4557
19580TIP3   OH280230   2.864   1.177   1.369 -0.0754 -0.2237 -0.0763
19580TIP3    H180231   2.912   1.168   1.452  0.3408 -0.6212 -0.3545
19580TIP3    H280232   2.787   1.122   1.381 -0.8661  1.0347  0.6638
19581TIP3   OH280233   0.607   1.573  14.036 -0.1600 -0.8281 -0.3242
19581TIP3    H180234   0.650   1.656  14.013  0.1797 -0.7034  0.7184
19581TIP3    H280235   0.516   1.598  14.053  0.2995 -0.3741  1.6037
19582TIP3   OH280236   1.909   2.090   1.638  0.6568 -0.0358  0.4688
19582TIP3    H180237   1.925   2.025   1.570 -4.1734  0.6586 -1.5887
19582TIP3    H280238   1.879   2.039   1.714 -2.5068 -0.3426 -0.9288
19583TIP3   OH280239   2.845   4.756   1.584  0.5111  1.0209  0.2217
19583TIP3    H180240   2.852   4.703   1.663 -0.3626 -0.3067 -0.5765
19583TIP3    H280241   2.800   4.836   1.613  0.6034  0.7415  1.1550
19584TIP3   OH280242   4.526   1.453   5.998  0.2142  0.3241 -0.9094
19584TIP3    H180243   4.477   1.405   6.066  1.9774  1.6605  1.3724
19584TIP3    H280244   4.598   1.395   5.975  0.5690  0.5619 -0.4101
19585TIP3   OH280245   2.363   6.537   1.362  0.5470 -0.4262  0.2519
19585TIP3    H180246   2.381   6.445   1.343 -0.7798 -0.6988  0.3025
19585TIP3    H280247   2.320   6.536   1.447 -0.0633  0.1807 -0.0463
19586TIP3   OH280248   0.595   6.212   5.776  0.2242  0.0262  0.0456
19586TIP3    H180249   0.565   6.250   5.858 -0.6157 -1.5673  0.5005
19586TIP3    H280250   0.634   6.285   5.728 -1.7524  1.5354  0.6785
19587TIP3   OH280251   2.664   5.400   5.243  0.0995 -0.1214 -0.3566
19587TIP3    H180252   2.744   5.352   5.262 -0.1131 -1.0547 -1.7868
19587TIP3    H280253   2.678   5.486   5.282 -0.0815 -1.7589  3.5097
19588TIP3   OH280254   3.572   2.837  10.770 -0.3781 -0.5010  0.1187
19588TIP3    H180255   3.595   2.919  10.726 -0.1506 -1.5100 -1.7060
19588TIP3    H280256   3.657   2.798  10.792 -0.4898 -0.0971  1.3064
19589TIP3   OH280257   4.347   3.813  12.434  0.4588 -0.3471  0.4264
19589TIP3    H180258   4.259   3.823  12.397 -0.1483 -0.8923  1.7110
19589TIP3    H280259   4.391   3.754  12.373  0.5834  1.4670 -1.2874
19590TIP3   OH280260   6.768   5.832  16.365 -0.0261 -0.5196  0.3115
19590TIP3    H180261   6.697   5.815  16.303 -0.4300  0.5888  0.4730
19590TIP3    H280262   6.735   5.802  16.449  0.3357 -1.5640  0.0900
19591TIP3   OH280263   1.854   0.462   2.271 -0.5535 -0.0879  0.0615
19591TIP3    H180264   1.843   0.549   2.234 -1.9782 -0.1574  0.2751
19591TIP3    H280265   1.772   0.417   2.251 -0.1016 -1.1480  0.5450
19592TIP3   OH280266   0.433   3.573  16.961 -0.7634 -0.4009 -0.0422
19592TIP3    H180267   0.377   3.631  17.013  1.7384  0.8276  1.3292
19592TIP3    H280268   0.383   3.491  16.956 -2.4953  0.5083  1.5488
19593TIP3   OH280269   1.643   3.464   1.317 -0.0349  0.0934 -0.0662
19593TIP3    H180270   1.588   3.437   1.390 -0.1489 -2.4344 -1.0230
19593TIP3    H280271   1.590   3.526   1.267 -0.3809  0.9469  1.3516
19594TIP3   OH280272   4.553   6.567   1.284 -0.6182 -0.1155 -0.1834
19594TIP3    H180273   4.640   6.591   1.318 -1.7328  1.2019  1.8368
19594TIP3    H280274   4.572   6.505   1.214  1.9751  0.2581  0.1053
19595TIP3   OH280275   0.153   2.802  14.841  0.1038  0.3109  0.0299
19595TIP3    H180276   0.160   2.897  14.841 -1.7967  0.4819  1.6543
19595TIP3    H280277   0.092   2.782  14.770 -1.4122  0.5064  1.2459
19596TIP3   OH280278   5.241   2.602   4.260  0.1672  0.1921  0.3519
19596TIP3    H180279   5.286   2.676   4.301 -0.6462  0.6415  0.4424
19596TIP3    H280280   5.308   2.560   4.207  0.7046  0.8413  0.5062
19597TIP3   OH280281   0.267   0.255   2.465  0.3314  0.2349  0.0072
19597TIP3    H180282   0.186   0.295   2.433  0.3359 -0.2524 -0.6245
19597TIP3    H280283   0.337   0.308   2.427  0.3245 -0.0119 -0.3604
19598TIP3   OH280284   3.806   0.072   1.270  0.2465 -0.0654  0.0069
19598TIP3    H180285   3.748   0.062   1.346  2.5905 -1.5592  1.6626
19598TIP3    H280286   3.746   0.087   1.197 -2.2426 -1.3329  1.6837
19599TIP3   OH280287   4.084   3.796   5.332 -0.4352 -0.3330  0.6568
19599TIP3    H180288   4.161   3.771   5.281  0.3008  0.7833  1.1922
19599TIP3    H280289   4.013   3.799   5.268  0.4072  0.6713 -0.2542
19600TIP3   OH280290   2.882   5.945  14.517 -0.1048 -0.7814 -0.6404
19600TIP3    H180291   2.824   5.877  14.482 -0.3087 -0.0441 -1.7573
19600TIP3    H280292   2.831   6.026  14.513 -0.0838 -0.6391  1.2659
19601TIP3   OH280293   6.323   2.094  13.996 -0.4598 -0.4358 -0.2527
19601TIP3    H180294   6.274   2.126  13.920  1.5574 -0.6017 -1.6639
19601TIP3    H280295   6.295   2.150  14.069 -0.4162  1.4995 -1.6994
19602TIP3   OH280296   5.809   3.044   5.473  0.0781 -0.2676  0.0682
19602TIP3    H180297   5.829   3.104   5.402  0.6397 -1.1292 -0.5131
19602TIP3    H280298   5.887   3.046   5.529 -0.7604  1.1780  1.2244
19603TIP3   OH280299   4.547   0.923  11.997 -0.4441  0.1846  0.2415
19603TIP3    H180300   4.581   0.946  12.084 -0.5948 -1.5033  0.7583
19603TIP3    H280301   4.606   0.853  11.966 -0.8733  0.2211 -0.6811
19604TIP3   OH280302   6.522   0.964   4.281  0.0486  0.0004  0.2088
19604TIP3    H180303   6.550   1.035   4.338  0.0126 -0.9243  1.4043
19604TIP3    H280304   6.587   0.961   4.211  1.8503 -0.8297  1.8724
19605TIP3   OH280305   0.707   5.867   6.477 -0.1662 -0.1611 -0.4050
19605TIP3    H180306   0.763   5.796   6.445  0.5444 -0.1380  0.7441
19605TIP3    H280307   0.692   5.846   6.569  0.0196  1.1513 -0.0622
19606TIP3   OH280308   1.383   5.800  15.834 -0.5407 -0.3014  0.3331
19606TIP3    H180309   1.436   5.753  15.770 -0.8175 -0.6304  0.3433
19606TIP3    H280310   1.345   5.874  15.786 -1.2872 -0.9317 -0.0508
19607TIP3   OH280311   6.029   0.710  15.213  0.4534 -0.1655  0.2147
19607TIP3    H180312   6.094   0.743  15.275  0.2224 -0.2166  0.4846
19607TIP3    H280313   5.950   0.761  15.232  0.5764  0.2852 -0.4924
19608TIP3   OH280314   3.341   1.681  10.725 -0.3681 -0.5631  0.0143
19608TIP3    H180315   3.245   1.679  10.732 -0.4115 -0.6670 -0.6317
19608TIP3    H280316   3.367   1.591  10.746 -0.5544 -1.0758 -1.8778
19609TIP3   OH280317   1.500   3.898  12.049 -0.2995 -0.2448  0.0944
19609TIP3    H180318   1.526   3.807  12.032  0.1854  0.1975 -1.6369
19609TIP3    H280319   1.582   3.943  12.067 -0.4191  0.0568 -0.1082
19610TIP3   OH280320   5.584   2.050   0.067  0.1169 -0.2940 -0.0490
19610TIP3    H180321   5.505   2.050   0.012 -2.2262  1.0028  3.1351
19610TIP3    H280322   5.570   1.978   0.128  1.6341 -0.3129  0.2892
19611TIP3   OH280323   3.731   5.154  12.584 -0.3454 -0.0203  0.3021
19611TIP3    H180324   3.747   5.112  12.500 -1.0437 -1.1740  0.7431
19611TIP3    H280325   3.647   5.199  12.572  0.2076  0.9395 -0.0416
19612TIP3   OH280326   0.584   6.445  12.514  0.0102  0.4500 -0.5024
19612TIP3    H180327   0.591   6.431  12.420  1.1772 -0.6460 -0.2788
19612TIP3    H280328   0.621   6.533  12.528  2.5306 -0.5247 -0.7639
19613TIP3   OH280329   4.518   0.071   3.108  0.4238  0.1358  0.2287
19613TIP3    H180330   4.483  -0.002   3.160  1.2473  0.6640  1.5614
19613TIP3    H280331   4.612   0.052   3.102  0.2257 -0.2948 -1.7108
19614TIP3   OH280332   2.535   1.002  10.737 -0.7371  0.3986 -0.0485
19614TIP3    H180333   2.445   1.008  10.770 -1.3329 -0.2302 -1.5287
19614TIP3    H280334   2.526   0.968  10.648  0.9732  0.3140 -0.2064
19615TIP3   OH280335   6.321   0.143  13.658 -0.0824  0.1309 -0.2130
19615TIP3    H180336   6.279   0.224  13.627  2.2948  1.4610 -0.1069
19615TIP3    H280337   6.370   0.111  13.582  0.9740  0.1544  0.4498
19616TIP3   OH280338   1.870   2.658  13.552 -0.0236  0.0346  0.3645
19616TIP3    H180339   1.950   2.710  13.556  1.5690 -2.2487 -0.5169
19616TIP3    H280340   1.888   2.582  13.608 -0.6699 -1.6578 -1.6617
19617TIP3   OH280341   2.348   3.591   3.307  0.3803 -0.4545 -0.1999
19617TIP3    H180342   2.403   3.595   3.229  0.6803  0.0353  0.0283
19617TIP3    H280343   2.331   3.683   3.329 -0.2064 -0.5997 -0.0397
19618TIP3   OH280344   6.565   0.824  11.442  0.2607  0.1566  0.4467
19618TIP3    H180345   6.471   0.811  11.426  0.5472 -0.2798 -0.9574
19618TIP3    H280346   6.580   0.916  11.422  0.2170  0.1067  0.1744
19619TIP3   OH280347   1.358   3.179  15.664  0.3256  0.3061  0.1851
19619TIP3    H180348   1.305   3.100  15.654  0.2013  0.3226  0.6987
19619TIP3    H280349   1.418   3.178  15.590 -0.4186  0.2982 -0.4196
19620TIP3   OH280350   1.750   5.314   6.103  0.2721  0.0891  0.2110
19620TIP3    H180351   1.766   5.233   6.055  2.4227  0.5653  0.0969
19620TIP3    H280352   1.805   5.379   6.060 -0.9849  1.4858  0.6803
19621TIP3   OH280353   2.979   5.123   1.507 -0.8671  0.4386 -0.1214
19621TIP3    H180354   3.074   5.117   1.499 -1.0164 -1.2249 -0.8605
19621TIP3    H280355   2.960   5.084   1.592 -0.8235  1.7035  0.4879
19622TIP3   OH280356   1.648   0.117  12.727  0.0277  0.7438  0.2784
19622TIP3    H180357   1.558   0.093  12.749 -0.1347  1.7851  0.7839
19622TIP3    H280358   1.688   0.143  12.810  0.4043  1.5122 -0.1317
19623TIP3   OH280359   5.997   2.753   2.918 -0.1779 -0.1832 -0.1932
19623TIP3    H180360   5.985   2.846   2.899 -1.8589 -0.1686  0.8669
19623TIP3    H280361   5.950   2.707   2.849 -0.3229 -0.2330 -0.0614
19624TIP3   OH280362   6.720   2.818   3.029  0.1180  0.0176  0.2699
19624TIP3    H180363   6.683   2.902   3.002 -0.7258 -0.8555 -1.3160
19624TIP3    H280364   6.646   2.770   3.065 -0.0591 -1.2092 -1.6560
19625TIP3   OH280365   1.039   0.330   4.548  0.5533 -0.5571  0.4569
19625TIP3    H180366   1.126   0.368   4.538  0.8603 -1.5871 -0.9522
19625TIP3    H280367   0.994   0.387   4.610  1.2856  1.6011 -0.9516
19626TIP3   OH280368   3.421   5.514   5.030 -0.0146 -0.3759 -0.2243
19626TIP3    H180369   3.450   5.557   4.950  0.5650  0.2396  0.3179
19626TIP3    H280370   3.410   5.422   5.005 -1.7823  0.1446 -1.5323
19627TIP3   OH280371   0.027   5.340   1.438 -0.6810 -0.2028  0.0998
19627TIP3    H180372   0.053   5.345   1.346  1.1257 -0.8343  0.5662
19627TIP3    H280373   0.048   5.250   1.464 -1.2205 -0.0386  1.1208
19628TIP3   OH280374   3.644   3.145   5.978  0.0762  0.1626  0.4302
19628TIP3    H180375   3.591   3.174   5.904  0.5342  0.0086  0.0342
19628TIP3    H280376   3.583   3.141   6.051 -0.2787  0.8075  0.1790
19629TIP3   OH280377   0.928   5.474  10.782  0.0731 -0.6005  0.5885
19629TIP3    H180378   0.898   5.537  10.716  0.2095 -0.1811  0.9270
19629TIP3    H280379   0.971   5.406  10.731  1.2676  0.3326  0.3261
19630TIP3   OH280380   5.874   4.313   3.004  0.2949 -0.4757 -0.0123
19630TIP3    H180381   5.871   4.402   3.038 -0.9982 -0.1246 -0.9992
19630TIP3    H280382   5.914   4.321   2.917 -0.8669 -0.6849 -0.5807
19631TIP3   OH280383   6.438   0.404  16.326 -0.0549  0.2390 -0.1495
19631TIP3    H180384   6.454   0.379  16.417  0.6724 -0.8348 -0.5693
19631TIP3    H280385   6.359   0.458  16.330 -2.4492 -3.1755  0.6296
19632TIP3   OH280386   5.090   6.558   5.210  0.3816 -0.3994  0.4054
19632TIP3    H180387   5.171   6.556   5.260  0.5886 -0.8944  0.0557
19632TIP3    H280388   5.060   6.467   5.209 -0.4780 -0.1297  1.0134
19633TIP3   OH280389   4.962   2.787   2.348 -0.1079  0.0411  0.4820
19633TIP3    H180390   4.989   2.832   2.268 -1.5015 -0.3338 -0.2115
19633TIP3    H280391   5.021   2.712   2.355  0.1586  0.2014 -0.0828
19634TIP3   OH280392   1.989   5.815   0.722 -0.1320  0.1623  0.3589
19634TIP3    H180393   1.925   5.824   0.652  0.6561 -0.4930 -0.4633
19634TIP3    H280394   2.061   5.873   0.697  0.8174 -1.2031 -0.1634
19635TIP3   OH280395   2.315   4.107  12.796  0.1244  0.0771  0.5063
19635TIP3    H180396   2.229   4.149  12.804  0.3345  0.3655  1.3868
19635TIP3    H280397   2.312   4.035  12.859  0.9448  0.8177  1.4111
19636TIP3   OH280398   6.080   5.204   0.028 -0.2246 -0.6906  0.0023
19636TIP3    H180399   6.125   5.215   0.111 -0.2082  0.8874 -0.2077
19636TIP3    H280400   6.150   5.212  -0.038 -0.5342  0.0136 -0.2456
19637TIP3   OH280401   6.191   3.343  12.866  0.1971  0.7267  0.3858
19637TIP3    H180402   6.209   3.317  12.957  2.0466  1.0029  0.1081
19637TIP3    H280403   6.220   3.268  12.814  2.1910  1.8563 -0.1808
19638TIP3   OH280404   0.539   1.202   5.596 -0.2070 -0.4503 -0.0427
19638TIP3    H180405   0.483   1.163   5.529 -0.5856  0.9557 -0.5646
19638TIP3    H280406   0.531   1.296   5.582  0.9148 -0.1843  1.0079
19639TIP3   OH280407   5.814   4.800  11.888  0.5888  0.1219 -0.0640
19639TIP3    H180408   5.884   4.742  11.856  0.1544 -0.0631 -0.6863
19639TIP3    H280409   5.771   4.832  11.809 -0.6405 -0.5145  0.3315
19640TIP3   OH280410   6.762   1.042  14.893  0.1509  0.0148 -0.0103
19640TIP3    H180411   6.744   1.071  14.982  3.1413 -2.6272  1.5411
19640TIP3    H280412   6.828   1.105  14.861 -0.2147  0.3868 -0.0432
19641TIP3   OH280413   4.190   2.428   6.408 -0.7423 -0.1580 -0.1543
19641TIP3    H180414   4.137   2.504   6.432 -2.1961 -0.6975 -1.5671
19641TIP3    H280415   4.248   2.415   6.483 -1.1202  1.7556  0.5130
19642TIP3   OH280416   4.173   3.263  16.487  0.8169 -0.1018  0.5176
19642TIP3    H180417   4.235   3.267  16.414  1.8989 -0.4948  1.4075
19642TIP3    H280418   4.202   3.189  16.540 -0.9102 -0.8156  0.5083
19643TIP3   OH280419   5.683   3.732   2.256 -0.1710  0.0511 -0.0726
19643TIP3    H180420   5.670   3.785   2.177  0.4641 -1.8177 -1.4681
19643TIP3    H280421   5.777   3.739   2.274 -0.1155 -0.4629 -0.1665
19644TIP3   OH280422   4.561   0.045  15.752 -0.0603 -0.2355  0.2385
19644TIP3    H180423   4.467   0.052  15.768 -0.0923 -1.0814  0.4860
19644TIP3    H280424   4.598   0.123  15.792 -0.3875 -1.1743  2.4254
19645TIP3   OH280425   5.496   3.042  13.602 -0.0849  0.3051  0.0976
19645TIP3    H180426   5.508   2.947  13.611 -0.3639  0.3107  0.5925
19645TIP3    H280427   5.403   3.056  13.623 -0.1334  0.6457 -0.3332
19646TIP3   OH280428   1.146   6.455  11.452 -0.3631 -0.0752 -0.5377
19646TIP3    H180429   1.100   6.374  11.472  0.1262 -0.6984 -1.8695
19646TIP3    H280430   1.118   6.516  11.520 -0.7287 -1.3598  0.4784
19647TIP3   OH280431   4.543   3.706   6.396 -0.1071 -0.0635  0.6283
19647TIP3    H180432   4.541   3.708   6.300  0.7976  1.5418  0.6258
19647TIP3    H280433   4.595   3.629   6.416  0.8443  0.3455 -0.2081
19648TIP3   OH280434   0.462   3.699  11.352 -0.3643 -0.0066  0.3420
19648TIP3    H180435   0.510   3.693  11.269 -1.0604 -2.4286  0.0676
19648TIP3    H280436   0.529   3.719  11.417  0.9298 -2.3341 -0.1916
19649TIP3   OH280437   6.381   2.140  11.767 -0.0936 -0.1497  0.2938
19649TIP3    H180438   6.293   2.123  11.733 -0.8392 -0.9247  2.5553
19649TIP3    H280439   6.369   2.213  11.828  0.9556  0.2067  0.0788
19650TIP3   OH280440   2.135   6.286  16.840 -0.1380  0.1625  0.0006
19650TIP3    H180441   2.224   6.288  16.803  0.0778  2.4200  0.5508
19650TIP3    H280442   2.078   6.303  16.766 -0.0861 -0.8099 -0.2672
19651TIP3   OH280443   6.672   4.596   2.325 -0.0397  0.2176 -0.1370
19651TIP3    H180444   6.717   4.630   2.248  1.8659  0.5026  1.0627
19651TIP3    H280445   6.587   4.641   2.325 -0.7292 -0.9903 -2.9143
19652TIP3   OH280446   4.681   0.946   2.906  0.1650 -0.1561  0.0243
19652TIP3    H180447   4.727   1.003   2.844  0.3290  1.0684  1.2471
19652TIP3    H280448   4.743   0.876   2.926  1.2021  1.0310  1.0326
19653TIP3   OH280449   2.759   1.803   1.197  0.2046 -1.2721  0.2307
19653TIP3    H180450   2.733   1.770   1.111  1.4418 -2.0136  0.1291
19653TIP3    H280451   2.680   1.796   1.250 -1.2436  1.3353 -1.4379
19654TIP3   OH280452   1.576   5.827   4.295  0.0508  0.3910 -0.8408
19654TIP3    H180453   1.523   5.896   4.334  2.3174  1.4935  0.3733
19654TIP3    H280454   1.638   5.873   4.239 -0.6471 -0.9174 -2.7398
19655TIP3   OH280455   4.172   0.835  16.560 -0.4111  0.7257  0.3721
19655TIP3    H180456   4.211   0.919  16.534 -1.2119  1.0259  0.1172
19655TIP3    H280457   4.145   0.795  16.477  1.6991 -0.6687  0.3133
19656TIP3   OH280458   4.938   3.350  13.765  0.1790 -0.2792 -0.1481
19656TIP3    H180459   5.029   3.344  13.794  0.4210 -0.1935 -0.8849
19656TIP3    H280460   4.897   3.271  13.800  0.0894  0.5678  1.7186
19657TIP3   OH280461   4.069   5.887   5.144  0.2868  0.1855  0.0261
19657TIP3    H180462   4.028   5.973   5.149  1.8147  0.9650 -0.4318
19657TIP3    H280463   4.067   5.853   5.234  0.8111  1.2560  0.4489
19658TIP3   OH280464   6.172   3.488   3.411  0.1323  0.7038 -0.6710
19658TIP3    H180465   6.206   3.575   3.433  1.5710 -0.0939  0.2553
19658TIP3    H280466   6.203   3.431   3.481 -0.2595 -0.6955 -1.6203
19659TIP3   OH280467   0.509   6.082  16.025  0.0107  0.0486  0.1920
19659TIP3    H180468   0.589   6.128  16.050  0.5015 -1.2634  1.1233
19659TIP3    H280469   0.529   6.047  15.938 -0.3463  1.5220 -0.4886
19660TIP3   OH280470   0.643   6.349   1.403 -0.2833  0.0702 -0.2904
19660TIP3    H180471   0.647   6.445   1.397  3.4482 -0.0768 -1.4449
19660TIP3    H280472   0.699   6.327   1.477 -1.6316 -1.2231  0.3749
19661TIP3   OH280473   0.319   3.121   5.639 -0.6882  0.0950 -0.4780
19661TIP3    H180474   0.394   3.165   5.599  1.1600 -1.6678  0.9577
19661TIP3    H280475   0.356   3.043   5.681 -3.4709 -1.3771 -0.6187
19662TIP3   OH280476   2.404   6.047  16.581  0.0149 -0.4243 -0.0956
19662TIP3    H180477   2.361   6.131  16.590  0.0070 -0.5104  0.6456
19662TIP3    H280478   2.483   6.066  16.530 -0.0947 -0.0089 -0.1103
19663TIP3   OH280479   0.301   3.307   6.241 -0.1194  0.3220 -0.0243
19663TIP3    H180480   0.235   3.253   6.283 -0.0337  0.2635  0.0364
19663TIP3    H280481   0.335   3.363   6.311  0.2655 -0.0152  0.0630
19664TIP3   OH280482   5.864   1.405  12.999 -0.5216 -0.1200  0.0081
19664TIP3    H180483   5.819   1.321  12.997 -1.6101  0.3944  1.5721
19664TIP3    H280484   5.908   1.411  12.914  1.1708 -3.1203  0.5836
19665TIP3   OH280485   0.733   4.317  16.874  0.2481 -0.6691  0.4324
19665TIP3    H180486   0.814   4.348  16.834 -0.5425  0.0217 -0.6502
19665TIP3    H280487   0.673   4.305  16.800 -1.0215  0.0074  1.3548
19666TIP3   OH280488   3.512   4.366   0.230  0.7746  0.1719 -0.4917
19666TIP3    H180489   3.565   4.389   0.154 -0.6980  1.4052 -1.1877
19666TIP3    H280490   3.430   4.333   0.193  0.4690 -0.2603  0.5507
19667TIP3   OH280491   2.181   4.196   5.556 -0.0543  0.1738 -0.5746
19667TIP3    H180492   2.235   4.161   5.484 -1.0822  0.6763 -1.6091
19667TIP3    H280493   2.244   4.237   5.615  0.7020  0.8991 -1.8440
19668TIP3   OH280494   2.188   4.851  15.790 -0.3165  0.1857  0.3377
19668TIP3    H180495   2.108   4.884  15.749  0.0516 -1.5868 -1.8871
19668TIP3    H280496   2.259   4.899  15.746 -0.0379  0.3151  0.9135
19669TIP3   OH280497   5.460   0.824  15.112 -0.3511  0.0822 -0.0177
19669TIP3    H180498   5.514   0.745  15.110  0.5539  0.7076 -0.4803
19669TIP3    H280499   5.495   0.874  15.185  0.7623  1.2221 -1.3022
19670TIP3   OH280500   4.085   2.498   3.987 -0.0440 -0.3521 -0.0827
19670TIP3    H180501   4.065   2.589   4.009 -1.5974 -0.9269  0.9979
19670TIP3    H280502   4.107   2.457   4.071  0.9402 -0.9144 -0.6045
19671TIP3   OH280503   3.361   2.953   4.343  0.3527  0.1275  0.1430
19671TIP3    H180504   3.269   2.953   4.318  0.8249  0.3845 -1.6147
19671TIP3    H280505   3.406   2.911   4.270  1.9275  2.1691 -0.0948
19672TIP3   OH280506   0.009   5.989   3.077  0.3174 -0.0369  0.5306
19672TIP3    H180507  -0.013   5.994   2.983 -0.7887  0.4115  0.7988
19672TIP3    H280508   0.061   6.067   3.094  0.4277 -0.0619  0.3102
19673TIP3   OH280509   0.845   1.299  16.931  0.4791 -0.7322  0.5856
19673TIP3    H180510   0.825   1.212  16.895 -0.1723  0.0699 -1.0672
19673TIP3    H280511   0.905   1.282  17.003  0.3474 -2.5604  0.2997
19674TIP3   OH280512   3.164   4.105  13.978 -0.1808 -0.8795  0.1953
19674TIP3    H180513   3.243   4.123  14.029  0.5439 -1.9518 -0.5090
19674TIP3    H280514   3.145   4.187  13.933  2.1002 -1.3196 -1.6869
19675TIP3   OH280515   1.005   2.998   1.074  0.4394  0.0575 -0.2197
19675TIP3    H180516   0.934   3.031   1.018 -0.6345  0.6140  1.4494
19675TIP3    H280517   1.026   2.912   1.037 -1.8075 -0.5587 -0.1077
19676TIP3   OH280518   1.335   6.427  11.753  0.1279  0.0286  0.3703
19676TIP3    H180519   1.353   6.471  11.837 -1.0016  1.1227  0.0615
19676TIP3    H280520   1.259   6.372  11.771  0.1814 -0.1023  0.1906
19677TIP3   OH280521   6.136   6.123   0.594  0.3890  0.6963  0.4019
19677TIP3    H180522   6.099   6.212   0.595 -1.5166 -0.0827  3.0569
19677TIP3    H280523   6.087   6.076   0.661  2.0151 -2.1351 -0.3423
19678TIP3   OH280524   1.508   5.297  14.378  0.1223 -0.7590  0.5538
19678TIP3    H180525   1.561   5.334  14.308  2.7476 -1.1836  2.2479
19678TIP3    H280526   1.459   5.371  14.414 -0.2109 -0.3064 -0.7991
19679TIP3   OH280527   4.639   3.422   6.439 -0.3854 -0.4114 -0.1338
19679TIP3    H180528   4.689   3.464   6.509 -1.9780  2.1638 -0.4483
19679TIP3    H280529   4.665   3.330   6.442  1.2108  0.0727  2.3831
19680TIP3   OH280530   3.951   4.979   2.680  0.3079 -0.6577  0.3754
19680TIP3    H180531   4.035   4.934   2.681  0.2797 -0.7265 -0.1958
19680TIP3    H280532   3.941   5.013   2.768  0.1968 -2.0044  0.8939
19681TIP3   OH280533   4.262   5.107  12.410 -0.4197  0.0977  0.3851
19681TIP3    H180534   4.349   5.089  12.373 -0.2170  0.3163  0.7610
19681TIP3    H280535   4.262   5.063  12.495 -1.0897 -0.8911 -0.1047
19682TIP3   OH280536   2.058   1.165  11.919  0.1271 -0.5777 -0.4552
19682TIP3    H180537   2.051   1.250  11.961  1.5134 -0.8043  0.2750
19682TIP3    H280538   1.986   1.163  11.856 -1.3537  0.1665  1.2013
19683TIP3   OH280539   1.820   1.801  14.009  0.0899  0.6513 -0.6760
19683TIP3    H180540   1.820   1.810  13.914  0.9726  0.3006 -0.7143
19683TIP3    H280541   1.898   1.749  14.029 -0.4629  0.1257  0.1866
19684TIP3   OH280542   0.573   0.789  17.136 -0.1358 -0.7480 -0.1749
19684TIP3    H180543   0.656   0.827  17.164  0.2682 -0.8038 -1.2589
19684TIP3    H280544   0.507   0.855  17.158  0.2894 -0.3910  0.0214
19685TIP3   OH280545   3.481   4.764   5.616  0.0577 -0.6017  0.2344
19685TIP3    H180546   3.386   4.773   5.613 -0.0868 -2.2359 -0.6110
19685TIP3    H280547   3.497   4.700   5.685  0.5257 -0.6263  0.1062
19686TIP3   OH280548   4.008   2.742  16.154 -0.2369  0.4502  0.2703
19686TIP3    H180549   4.026   2.836  16.148 -1.7905  0.6609 -1.4438
19686TIP3    H280550   4.025   2.708  16.067  0.0888 -0.8232  0.8265
19687TIP3   OH280551   4.947   3.069  17.003  0.1183  0.0385  0.2657
19687TIP3    H180552   4.959   2.983  17.041  0.3004  0.6827  1.6915
19687TIP3    H280553   4.852   3.081  16.999  0.0979  0.3194  1.3639
19688TIP3   OH280554   4.208   3.491  16.849  0.0280  0.3141  0.2994
19688TIP3    H180555   4.174   3.567  16.802 -0.9445 -1.0895 -1.3038
19688TIP3    H280556   4.303   3.500  16.841 -0.1034  0.2896 -1.6889
19689TIP3   OH280557   2.399   5.064  10.614  0.2958 -0.1841  0.1150
19689TIP3    H180558   2.348   5.054  10.695 -0.7872 -1.5581 -0.7159
19689TIP3    H280559   2.364   5.143  10.574  0.4389  0.1865  0.7144
19690TIP3   OH280560   3.223   0.005  15.737  0.1070 -0.1034 -0.0096
19690TIP3    H180561   3.266   0.089  15.750  1.0007 -0.6070  0.3509
19690TIP3    H280562   3.178   0.014  15.654 -0.3898  0.9720  0.3640
19691TIP3   OH280563   5.738   5.746   3.461  0.0699  0.3517 -0.4535
19691TIP3    H180564   5.688   5.665   3.450  0.7272 -0.1181 -0.0478
19691TIP3    H280565   5.675   5.816   3.446 -0.5370 -0.2405 -0.6674
19692TIP3   OH280566   4.321   5.516  13.598  1.0437  0.4189 -0.3480
19692TIP3    H180567   4.417   5.519  13.592  1.0192 -1.1435 -1.8717
19692TIP3    H280568   4.302   5.431  13.638  0.2824  0.6680 -0.1710
19693TIP3   OH280569   3.055   0.017   2.443 -0.1350  0.1836 -0.5194
19693TIP3    H180570   2.996   0.066   2.385 -2.6135 -0.9106  0.9970
19693TIP3    H280571   3.083  -0.058   2.390 -1.2517 -0.0568 -0.7840
19694TIP3   OH280572   3.825   2.745  14.774 -0.3840 -0.4962 -0.1963
19694TIP3    H180573   3.775   2.671  14.808 -0.1783 -0.0066  1.1677
19694TIP3    H280574   3.780   2.768  14.692 -1.4155 -1.1066  0.1869
19695TIP3   OH280575   3.473   2.056   1.437 -0.9170  0.0365 -0.0594
19695TIP3    H180576   3.484   2.091   1.348 -0.2327  0.8799  0.3422
19695TIP3    H280577   3.514   2.122   1.493  1.6433 -2.0590  0.6191
19696TIP3   OH280578   0.096   2.137   2.924  0.1831  0.1745  0.0825
19696TIP3    H180579   0.082   2.226   2.892 -0.5793  0.2742  0.6716
19696TIP3    H280580   0.062   2.081   2.854  0.2677  0.3597 -0.1058
19697TIP3   OH280581   0.110   1.432   3.595  0.6944  0.1042 -0.2555
19697TIP3    H180582   0.015   1.444   3.595  0.5293 -1.0939 -0.1143
19697TIP3    H280583   0.126   1.367   3.664  1.4302 -0.9044 -1.3471
19698TIP3   OH280584   6.581   6.519  13.653 -0.3832  0.2595  0.2779
19698TIP3    H180585   6.608   6.447  13.595  1.4060 -0.4143  1.8848
19698TIP3    H280586   6.503   6.555  13.611  0.3407 -0.7761 -2.0802
19699TIP3   OH280587   1.937   3.830  13.037 -0.3182 -0.0905 -0.3698
19699TIP3    H180588   1.886   3.763  13.082 -1.7132  0.3438 -1.2453
19699TIP3    H280589   1.962   3.891  13.105 -1.2042 -0.1813  0.0497
19700TIP3   OH280590   3.136   3.056   1.234 -0.0522 -0.2578  0.0114
19700TIP3    H180591   3.064   3.062   1.297 -0.0784  1.5102 -0.1693
19700TIP3    H280592   3.173   2.969   1.248 -2.0029 -1.0689  0.3421
19701TIP3   OH280593   2.666   3.850  15.774 -0.2667 -0.5439 -0.0023
19701TIP3    H180594   2.637   3.910  15.842  1.3035  0.6254 -0.3289
19701TIP3    H280595   2.730   3.900  15.724  0.8076 -2.3575 -0.5006
19702TIP3   OH280596   6.403   0.712  15.521 -0.2821  0.3231 -0.1060
19702TIP3    H180597   6.476   0.668  15.477  0.9783  0.1171  2.1411
19702TIP3    H280598   6.444   0.775  15.580 -1.8239 -1.0536  2.5462
19703TIP3   OH280599   6.080   5.737   4.379 -0.4705 -0.0649  0.1865
19703TIP3    H180600   6.061   5.828   4.404  0.0357  0.4289 -1.1651
19703TIP3    H280601   6.038   5.684   4.446 -0.3321  1.1892  1.2761
19704TIP3   OH280602   1.733   0.301   5.509  0.3538  0.0999 -0.0516
19704TIP3    H180603   1.813   0.276   5.556  0.3374  1.4021  0.6918
19704TIP3    H280604   1.740   0.396   5.498 -0.5268  0.0557 -1.0509
19705TIP3   OH280605   6.625   5.761   1.101  0.4219  0.4501  0.2901
19705TIP3    H180606   6.644   5.790   1.012  1.3288 -0.9895  0.0008
19705TIP3    H280607   6.639   5.666   1.099 -1.2182  0.1701  1.5385
19706TIP3   OH280608   0.914   3.622  10.344  0.1398 -0.7681 -0.2117
19706TIP3    H180609   0.918   3.645  10.437  0.6951 -2.3580  0.1640
19706TIP3    H280610   0.835   3.665  10.312 -0.7521 -1.2665  1.2904
19707TIP3   OH280611   3.704   3.462   4.757 -0.1879  0.2590  0.0800
19707TIP3    H180612   3.758   3.540   4.744 -0.7367  0.5832 -0.2466
19707TIP3    H280613   3.762   3.400   4.802  0.4131  0.6569 -0.1474
19708TIP3   OH280614   4.433   2.352   3.893  0.5903  0.3521 -0.1552
19708TIP3    H180615   4.473   2.407   3.826  1.2333  1.8914  1.4383
19708TIP3    H280616   4.400   2.414   3.958 -1.9681 -1.0225 -0.1116
19709TIP3   OH280617   5.635   4.505   0.724 -0.3588  0.4900 -0.5478
19709TIP3    H180618   5.727   4.523   0.742  0.1724  0.5296 -3.0939
19709TIP3    H280619   5.624   4.412   0.747  0.3437  0.4535 -0.3549
19710TIP3   OH280620   3.452   1.094   3.923 -0.5922  0.1195 -0.3166
19710TIP3    H180621   3.538   1.104   3.882  1.0811 -1.0310  2.7762
19710TIP3    H280622   3.413   1.018   3.879 -0.1615  0.8047 -1.9105
19711TIP3   OH280623   4.735   1.687  14.575  0.6734  0.9792 -0.3955
19711TIP3    H180624   4.761   1.772  14.611  0.3633  0.9606 -0.1257
19711TIP3    H280625   4.642   1.680  14.595  0.6641  0.6425 -0.5556
19712TIP3   OH280626   6.596   5.769   4.921 -0.2745 -0.0171  0.0309
19712TIP3    H180627   6.554   5.689   4.954 -0.5326  0.1044 -0.0046
19712TIP3    H280628   6.532   5.807   4.861  1.0692 -1.4465 -2.3977
19713TIP3   OH280629   0.980   0.879  16.575 -0.7806  0.5708 -0.6301
19713TIP3    H180630   1.061   0.884  16.524  0.7560  1.0197  1.7854
19713TIP3    H280631   0.955   0.787  16.572 -0.9871  0.6765 -2.5789
19714TIP3   OH280632   1.324   1.772   2.964  0.5038 -0.2788 -0.0820
19714TIP3    H180633   1.387   1.819   2.910 -0.1844  1.7409  0.7894
19714TIP3    H280634   1.341   1.803   3.053 -2.1228  0.8672  0.0898
19715TIP3   OH280635   3.532   2.032   2.252 -0.4432  0.2039 -0.3627
19715TIP3    H180636   3.548   2.076   2.169 -1.4834  0.7316 -0.2864
19715TIP3    H280637   3.497   1.946   2.227 -1.0808  0.4935 -0.4611
19716TIP3   OH280638   5.480   2.835   4.628  0.1145 -0.3257 -0.1441
19716TIP3    H180639   5.550   2.875   4.577 -1.1798  0.6520 -1.1593
19716TIP3    H280640   5.498   2.861   4.718  1.0330 -0.0628 -0.3989
19717TIP3   OH280641   5.098   1.664   3.232 -0.1394 -0.2241  0.4758
19717TIP3    H180642   5.081   1.610   3.154 -1.5387  0.7099  0.1140
19717TIP3    H280643   5.154   1.735   3.199  0.6495 -0.7397  0.6853
19718TIP3   OH280644   0.088   4.585  13.710 -0.3566  0.0880 -0.1241
19718TIP3    H180645   0.064   4.522  13.642  0.5752 -0.5222  0.0997
19718TIP3    H280646   0.184   4.582  13.712 -0.1527  3.3088 -1.7815
19719TIP3   OH280647   2.999   1.552  16.391  0.2093 -0.4791 -0.2150
19719TIP3    H180648   2.945   1.631  16.395  0.4241 -0.3215 -0.3876
19719TIP3    H280649   3.085   1.580  16.421  0.2074 -0.7193  0.0093
19720TIP3   OH280650   0.049   0.251   1.633 -0.2265  0.8734  0.5518
19720TIP3    H180651  -0.019   0.189   1.660  0.3107  0.5230  1.1202
19720TIP3    H280652   0.096   0.205   1.563 -0.1226  0.8181  0.6562
19721TIP3   OH280653   6.325   1.832  11.393 -0.6925  0.1743  0.1354
19721TIP3    H180654   6.337   1.890  11.318  1.2399  1.5609  1.4641
19721TIP3    H280655   6.412   1.821  11.430 -1.6438 -0.1901  2.3991
19722TIP3   OH280656   1.114   5.573  13.025 -0.2099 -0.3269 -0.3316
19722TIP3    H180657   1.046   5.595  12.961 -0.8754 -2.4947 -0.3922
19722TIP3    H280658   1.194   5.610  12.987 -1.0681  0.7929 -1.0809
19723TIP3   OH280659   5.700   6.268  11.712 -0.4342  0.0183 -0.4688
19723TIP3    H180660   5.621   6.258  11.658 -0.7287 -0.1433 -0.0099
19723TIP3    H280661   5.698   6.360  11.738  0.7273  0.5942 -2.2998
19724TIP3   OH280662   3.280   2.233  17.243 -0.4262  0.4874 -0.4846
19724TIP3    H180663   3.319   2.205  17.160  0.9630 -1.1716  0.6886
19724TIP3    H280664   3.210   2.170  17.260 -0.3942  0.5349 -0.1673
19725TIP3   OH280665   0.814   0.101  11.179  0.1764  0.0021  0.9348
19725TIP3    H180666   0.821   0.021  11.127  0.8625  0.6369  0.0365
19725TIP3    H280667   0.754   0.078  11.250 -1.5307 -0.5925 -0.6616
19726TIP3   OH280668   4.928   0.846  15.315  0.2329 -0.1574 -0.0850
19726TIP3    H180669   4.919   0.785  15.242  0.2676 -1.2471  0.8042
19726TIP3    H280670   4.857   0.822  15.375 -0.7947  1.7637 -0.4835
19727TIP3   OH280671   4.476   1.298  15.830  0.2634 -0.2941  0.9053
19727TIP3    H180672   4.560   1.262  15.859  0.9593  0.5068 -0.0798
19727TIP3    H280673   4.410   1.244  15.873  1.2853 -1.7054  0.7245
19728TIP3   OH280674   1.857   0.537   3.176 -0.3052 -0.6004 -0.2689
19728TIP3    H180675   1.824   0.532   3.266 -0.1971  0.9608 -0.1331
19728TIP3    H280676   1.778   0.537   3.122 -0.4517  0.5750 -0.0653
19729TIP3   OH280677   4.734   1.918  11.437 -0.1144  0.2581  0.0407
19729TIP3    H180678   4.781   1.865  11.502 -0.9315  0.2529  0.6348
19729TIP3    H280679   4.794   1.990  11.418  0.7505 -0.5325 -0.3099
19730TIP3   OH280680   0.822   0.572   3.989 -0.2490  0.0984 -0.1460
19730TIP3    H180681   0.744   0.619   4.020  0.4264  1.1694 -0.0713
19730TIP3    H280682   0.801   0.480   4.004 -1.9114  0.3027 -1.0502
19731TIP3   OH280683   1.609   4.107   1.482 -0.3356 -0.1978  0.3506
19731TIP3    H180684   1.560   4.130   1.403  2.0540 -0.3478 -1.2407
19731TIP3    H280685   1.573   4.023   1.510 -2.6344  0.8643  0.6544
19732TIP3   OH280686   0.278   2.774   2.462  0.3284 -0.0518  0.1384
19732TIP3    H180687   0.365   2.736   2.450 -0.1007 -0.7105 -0.9297
19732TIP3    H280688   0.279   2.808   2.552  1.9114  0.5577 -0.1025
19733TIP3   OH280689   5.680   3.023  12.921  0.4706 -0.8206  0.4316
19733TIP3    H180690   5.766   3.036  12.880  0.3941  0.0100  0.5261
19733TIP3    H280691   5.625   2.986  12.852 -0.0121  1.7211 -0.6109
19734TIP3   OH280692   3.217   3.235   2.926  0.0517 -0.4098 -0.0052
19734TIP3    H180693   3.182   3.206   2.842  0.9155 -0.6714 -0.2820
19734TIP3    H280694   3.179   3.322   2.939  0.3903 -0.1080 -0.9664
19735TIP3   OH280695   6.505   2.950   2.595 -0.0454 -0.5504 -0.0543
19735TIP3    H180696   6.476   2.954   2.504 -0.2710  0.8288  0.0764
19735TIP3    H280697   6.601   2.954   2.590 -0.0606 -0.4177 -0.2279
19736TIP3   OH280698   5.756   2.355  14.596  0.3981 -0.1554 -0.6802
19736TIP3    H180699   5.821   2.286  14.612  0.6255  0.0201 -0.8318
19736TIP3    H280700   5.743   2.396  14.682  1.4226  0.6161 -0.8807
19737TIP3   OH280701   6.159   4.943   6.053  0.2620  0.0471  0.1862
19737TIP3    H180702   6.193   5.019   6.101 -1.6347  0.7273  0.5029
19737TIP3    H280703   6.165   4.871   6.115 -0.3056  0.5023  0.7855
19738TIP3   OH280704   1.908   5.506  12.822 -0.1615 -0.2145  0.5245
19738TIP3    H180705   1.915   5.416  12.855 -1.6409 -0.1006  1.2094
19738TIP3    H280706   1.965   5.557  12.879 -0.6850 -0.4443  1.2627
19739TIP3   OH280707   4.824   1.553   5.033 -0.1558 -0.3446 -0.2868
19739TIP3    H180708   4.835   1.509   4.948  1.3736  0.8977 -0.7509
19739TIP3    H280709   4.913   1.572   5.061 -0.7176  0.4079  1.0059
19740TIP3   OH280710   1.668   4.686   4.713  0.2609 -0.1003  0.1856
19740TIP3    H180711   1.666   4.751   4.643 -1.1459 -0.1288  0.1879
19740TIP3    H280712   1.751   4.640   4.701  2.0129  2.7515  1.1726
19741TIP3   OH280713   2.625   1.673  15.036 -0.3427 -0.0017 -0.7587
19741TIP3    H180714   2.618   1.719  15.120 -0.6338 -0.8725 -0.3055
19741TIP3    H280715   2.544   1.696  14.990  0.1633  1.0971 -1.1247
19742TIP3   OH280716   6.595   5.087   1.499 -0.3969  0.1138 -0.4415
19742TIP3    H180717   6.689   5.100   1.512 -0.4487 -0.8445  1.0823
19742TIP3    H280718   6.561   5.074   1.588 -2.2762  2.3661 -0.8030
19743TIP3   OH280719   0.529   3.563   0.523 -0.2771 -0.2171  0.5118
19743TIP3    H180720   0.569   3.568   0.437 -1.8828 -1.0211 -0.2992
19743TIP3    H280721   0.570   3.488   0.565  0.8630  0.4690  0.6541
19744TIP3   OH280722   5.040   3.738  12.284  0.3617 -0.8850 -0.2339
19744TIP3    H180723   4.996   3.689  12.353 -0.0671  2.2347  1.8022
19744TIP3    H280724   5.109   3.786  12.329 -0.0727  1.3888 -1.8998
19745TIP3   OH280725   1.461   3.144  17.102  0.8697  0.3765  0.1350
19745TIP3    H180726   1.441   3.129  17.194 -0.6361 -0.7578 -0.3680
19745TIP3    H280727   1.533   3.083  17.082 -1.5845 -2.4269 -0.4839
19746TIP3   OH280728   4.115   2.654  11.500  0.1843 -0.0568  0.5149
19746TIP3    H180729   4.157   2.595  11.563  0.3969  0.5703  0.9657
19746TIP3    H280730   4.027   2.666  11.536  0.8618  1.6957  1.6526
19747TIP3   OH280731   1.520   5.707   2.719  0.7973 -0.1961  0.3018
19747TIP3    H180732   1.533   5.737   2.809  0.6995 -1.2242  0.6693
19747TIP3    H280733   1.607   5.708   2.680  0.5684  2.2137 -0.2403
19748TIP3   OH280734   4.046   0.276  13.638  0.0200  0.3284 -0.2675
19748TIP3    H180735   4.130   0.247  13.602 -0.5494 -0.0651 -1.2898
19748TIP3    H280736   3.994   0.197  13.645  0.1123  0.4008  1.4389
19749TIP3   OH280737   4.877   1.935  14.658 -0.1333  0.2967  0.1699
19749TIP3    H180738   4.862   1.998  14.729  0.3532  0.4548  0.1368
19749TIP3    H280739   4.962   1.961  14.622  0.0262 -0.3321  0.0990
19750TIP3   OH280740   2.580   5.324  13.191 -0.2586 -0.0896 -0.0937
19750TIP3    H180741   2.489   5.342  13.214  0.1570 -1.0746  2.5445
19750TIP3    H280742   2.631   5.369  13.259  1.1371 -1.1984 -0.3856
19751TIP3   OH280743   2.329   4.825   6.036 -0.0477  0.6567  0.0932
19751TIP3    H180744   2.266   4.872   5.982  1.8572  1.6108 -1.3423
19751TIP3    H280745   2.402   4.886   6.048  0.2220 -0.0646  2.5303
19752TIP3   OH280746   4.587   3.784   3.315 -0.2681 -0.0939  0.3742
19752TIP3    H180747   4.514   3.757   3.370 -0.7659  0.1044 -0.1861
19752TIP3    H280748   4.559   3.865   3.274  0.7109  0.5863  1.0200
19753TIP3   OH280749   1.997   5.289   1.277  0.2711  0.2070 -0.0611
19753TIP3    H180750   2.081   5.270   1.321 -0.6308 -0.8476  1.2663
19753TIP3    H280751   1.932   5.245   1.332 -0.9303 -0.9763 -2.3856
19754TIP3   OH280752   0.462   3.461   5.294  0.0465 -0.4655  0.5791
19754TIP3    H180753   0.436   3.536   5.241  0.2633 -1.3444 -0.7802
19754TIP3    H280754   0.428   3.385   5.247 -2.2722 -1.1296  3.1387
19755TIP3   OH280755   2.115   4.921   4.955 -0.2019  0.2748 -0.2498
19755TIP3    H180756   2.105   5.005   5.000 -0.6010  1.2672 -2.1255
19755TIP3    H280757   2.081   4.937   4.867  0.0277 -1.7727 -0.7408
19756TIP3   OH280758   5.994   4.570   1.061  0.1937  0.2130 -0.0143
19756TIP3    H180759   5.954   4.513   0.996  0.8246 -0.5292  0.2348
19756TIP3    H280760   5.976   4.659   1.030 -1.7667 -0.0847  0.1677
19757TIP3   OH280761   4.825   6.228  17.281  0.4057 -0.5511  0.6401
19757TIP3    H180762   4.897   6.290  17.286  1.0963 -1.3399  0.4513
19757TIP3    H280763   4.804   6.208  17.372 -1.8212  2.2499  0.8265
19758TIP3   OH280764   3.700   3.973   6.049  0.5264 -0.2923 -0.1732
19758TIP3    H180765   3.731   3.886   6.023 -2.1643 -1.2311 -0.4004
19758TIP3    H280766   3.650   4.005   5.974 -1.1400  0.0849  1.0638
19759TIP3   OH280767   0.805   6.574   6.323 -0.2508  0.0202 -0.4231
19759TIP3    H180768   0.799   6.641   6.391 -0.4972  0.5587 -0.9649
19759TIP3    H280769   0.714   6.552   6.303 -0.1561 -1.4915  0.7232
19760TIP3   OH280770   3.342   5.533   2.014 -0.6300  0.2233  0.2332
19760TIP3    H180771   3.417   5.476   2.032 -0.2714  0.5272 -0.2876
19760TIP3    H280772   3.343   5.544   1.919 -1.9440 -0.5920  0.1109
19761TIP3   OH280773   4.717   6.197   3.727  0.3168 -0.0427  0.7170
19761TIP3    H180774   4.735   6.269   3.788  1.8954  0.3166 -0.1318
19761TIP3    H280775   4.799   6.185   3.680  0.0193 -2.3125  0.7312
19762TIP3   OH280776   0.242   0.161   1.881  0.3809 -0.3421  0.3022
19762TIP3    H180777   0.299   0.174   1.957  1.1994  0.9267 -0.5004
19762TIP3    H280778   0.256   0.240   1.828 -0.5833 -0.9711 -0.8991
19763TIP3   OH280779   4.527   0.229  11.561  0.3835 -0.1577 -0.1368
19763TIP3    H180780   4.520   0.182  11.644 -1.4408  0.9595  0.3642
19763TIP3    H280781   4.606   0.193  11.520 -0.3117 -2.7908  0.7479
19764TIP3   OH280782   4.906   1.040   0.073  0.0963 -0.0010  0.5886
19764TIP3    H180783   4.902   1.043   0.168  0.8992  1.9293  0.5805
19764TIP3    H280784   4.988   0.993   0.054 -0.0357 -0.3349  0.8421
19765TIP3   OH280785   6.033   2.859  16.831 -1.1629 -0.0101  0.1464
19765TIP3    H180786   6.005   2.798  16.898 -0.7504  0.6465  0.9206
19765TIP3    H280787   5.992   2.827  16.750  0.3140 -2.2355  0.2295
19766TIP3   OH280788   4.489   6.163   4.009 -0.1868 -0.1171 -0.1211
19766TIP3    H180789   4.465   6.073   3.988 -0.3853 -0.3555  1.0769
19766TIP3    H280790   4.521   6.199   3.926 -1.3928 -0.8613 -0.9225
19767TIP3   OH280791   3.218   4.342   0.565  0.5568  0.4439 -0.1655
19767TIP3    H180792   3.294   4.287   0.547  0.2959  0.3200 -0.9149
19767TIP3    H280793   3.151   4.281   0.598  0.3065  0.3255 -0.8848
19768TIP3   OH280794   1.098   0.088   5.428  0.2499  0.1252 -0.0717
19768TIP3    H180795   1.072  -0.004   5.428 -0.1761  0.2406  0.3597
19768TIP3    H280796   1.111   0.109   5.521  0.1307  0.5551 -0.1506
19769TIP3   OH280797   6.778   2.655   6.716 -0.0983  0.0928 -0.4415
19769TIP3    H180798   6.734   2.705   6.785 -0.0730  1.1852 -1.2128
19769TIP3    H280799   6.849   2.610   6.762 -1.7785 -1.4123  0.7475
19770TIP3   OH280800   4.027   1.003  12.546  0.1905 -0.1207  0.2390
19770TIP3    H180801   3.951   0.947  12.540 -0.4742  0.8299 -0.3413
19770TIP3    H280802   4.082   0.979  12.472  0.2697 -0.5357  0.4342
19771TIP3   OH280803   0.086   1.289  12.391 -0.2910  0.1442  0.8773
19771TIP3    H180804   0.171   1.310  12.354 -0.7356  1.9413  0.8141
19771TIP3    H280805   0.068   1.199  12.363  1.6113 -0.2739  0.9771
19772TIP3   OH280806   0.578   1.969   0.819  0.0301  0.2550 -0.3319
19772TIP3    H180807   0.595   2.062   0.803 -0.0955  0.2063 -0.7568
19772TIP3    H280808   0.574   1.930   0.732 -0.2341 -0.0938 -0.1671
19773TIP3   OH280809   5.699   3.328  16.447 -0.2521 -0.0894  0.1735
19773TIP3    H180810   5.690   3.352  16.539  0.6913 -3.0070  1.0917
19773TIP3    H280811   5.716   3.233  16.448 -2.2885 -0.5784 -3.1092
19774TIP3   OH280812   1.396   1.070  12.828 -0.0888 -0.0280 -0.5104
19774TIP3    H180813   1.454   1.017  12.774  2.4408 -1.4968  3.4559
19774TIP3    H280814   1.313   1.023  12.829  1.2241 -2.4111  0.4964
19775TIP3   OH280815   1.804   2.577  12.235  0.5744  0.5279 -0.4280
19775TIP3    H180816   1.874   2.516  12.258  0.8828  0.7978 -0.6394
19775TIP3    H280817   1.767   2.541  12.154  0.2209  0.1824 -0.1168
19776TIP3   OH280818   4.285   5.051  14.035 -0.5154 -0.1302 -0.0362
19776TIP3    H180819   4.219   5.119  14.042  0.0343  0.5673 -1.5443
19776TIP3    H280820   4.246   4.985  13.978  0.9200  1.3586 -2.8783
19777TIP3   OH280821   1.601   1.375  14.375 -0.1937 -0.4246 -0.0643
19777TIP3    H180822   1.693   1.396  14.388  0.6322 -4.4010  1.2719
19777TIP3    H280823   1.601   1.309  14.305 -2.2139  0.6867 -1.1811
19778TIP3   OH280824   6.078   4.016  11.550 -0.3248  0.5205 -0.2798
19778TIP3    H180825   6.008   4.081  11.537  0.0574  1.1486  0.7797
19778TIP3    H280826   6.159   4.065  11.536 -0.0246  0.3430  0.8209
19779TIP3   OH280827   3.252   1.571  14.856 -0.0405 -0.6042 -0.3488
19779TIP3    H180828   3.298   1.646  14.818 -0.9525 -0.5696 -1.4106
19779TIP3    H280829   3.194   1.610  14.922 -0.3321 -0.3939 -0.7246
19780TIP3   OH280830   6.032   1.810  15.329  0.1771 -0.4692 -0.5632
19780TIP3    H180831   6.049   1.772  15.243  2.8200  1.0019 -0.7441
19780TIP3    H280832   5.997   1.897  15.311  0.9811 -0.0567 -0.1671
19781TIP3   OH280833   0.846   4.190   2.412  0.2312  0.0780  0.2857
19781TIP3    H180834   0.789   4.117   2.437  0.2664 -0.2145 -0.4599
19781TIP3    H280835   0.819   4.211   2.323  0.8037  0.4145  0.1904
19782TIP3   OH280836   0.542   1.704   1.511 -0.1492 -0.1344 -0.3057
19782TIP3    H180837   0.544   1.782   1.455  2.4172  0.1694  0.1403
19782TIP3    H280838   0.551   1.738   1.600 -0.6094 -0.8339  0.0056
19783TIP3   OH280839   3.788   5.313   3.448  0.1086  0.1375 -0.0628
19783TIP3    H180840   3.824   5.367   3.378  0.7262  1.5888  1.3365
19783TIP3    H280841   3.853   5.244   3.461 -0.6441 -0.9405 -1.8027
19784TIP3   OH280842   1.260   4.062   5.321  0.3851  0.0586 -0.2453
19784TIP3    H180843   1.253   4.083   5.414  1.6378 -0.8778  0.0817
19784TIP3    H280844   1.182   4.010   5.302  0.3438 -0.1095  0.3842
19785TIP3   OH280845   2.864   4.717   3.728 -0.4624 -0.1224 -0.3009
19785TIP3    H180846   2.851   4.809   3.704  0.3666  0.6137  1.9366
19785TIP3    H280847   2.948   4.694   3.688 -0.4345  0.2310 -0.4520
19786TIP3   OH280848   2.138   6.009  13.621  0.2044  0.1325 -0.6916
19786TIP3    H180849   2.078   5.934  13.626  0.9262 -0.3114  1.8526
19786TIP3    H280850   2.215   5.975  13.576  1.6655 -1.5199  2.8496
19787TIP3   OH280851   6.438   6.574   3.327  0.6559 -0.0286  0.2396
19787TIP3    H180852   6.382   6.624   3.268  1.5189  2.2210  1.2614
19787TIP3    H280853   6.379   6.541   3.395  0.0189 -0.6869 -0.6382
19788TIP3   OH280854   4.270   1.524  14.526 -0.5014 -0.0579 -0.7582
19788TIP3    H180855   4.193   1.475  14.555  0.7717 -1.3691  0.5618
19788TIP3    H280856   4.314   1.465  14.465  0.6537 -0.2911  0.2769
19789TIP3   OH280857   2.503   4.746   1.184 -0.1791  0.8642 -0.2215
19789TIP3    H180858   2.538   4.687   1.251 -2.2117  0.1551  0.2381
19789TIP3    H280859   2.553   4.726   1.105  1.3519  0.8012  0.7434
19790TIP3   OH280860   3.017   5.062  10.571 -0.0908  0.4710 -0.0161
19790TIP3    H180861   3.020   4.971  10.598  2.0008  0.5508  0.0488
19790TIP3    H280862   2.972   5.061  10.486  1.1813 -0.7892 -0.6866
19791TIP3   OH280863   1.719   0.075   3.828 -0.5618  0.3930  0.1499
19791TIP3    H180864   1.736   0.166   3.804 -1.1259  0.4615  0.0021
19791TIP3    H280865   1.793   0.027   3.792  0.9109  1.0680  2.1952
19792TIP3   OH280866   2.708   6.423   1.189 -0.3274  0.0605  0.9222
19792TIP3    H180867   2.799   6.425   1.160 -0.9892 -2.3902 -1.4495
19792TIP3    H280868   2.712   6.392   1.280  1.1858  0.0676  0.8604
19793TIP3   OH280869   3.944   1.652   3.243  0.3880  0.0722  0.2003
19793TIP3    H180870   3.937   1.650   3.147 -0.0024 -0.3449  0.2384
19793TIP3    H280871   4.000   1.577   3.264 -0.2629 -0.3655  0.3655
19794TIP3   OH280872   6.725   2.021  15.892 -0.0273 -0.4168 -0.5572
19794TIP3    H180873   6.807   1.996  15.848  0.1150  0.4203 -0.7772
19794TIP3    H280874   6.678   2.072  15.826 -0.8598 -1.1274 -0.5279
19795TIP3   OH280875   4.832   4.353   1.687  0.5515  0.5390  0.1872
19795TIP3    H180876   4.842   4.349   1.592  0.9849 -0.0445  0.2512
19795TIP3    H280877   4.805   4.443   1.705 -0.4556  0.3915 -0.5719
19796TIP3   OH280878   3.705   5.592  15.385  0.8057  0.1145  0.2195
19796TIP3    H180879   3.678   5.642  15.308 -0.3628  1.4745  1.4961
19796TIP3    H280880   3.796   5.617  15.399  0.0947  2.2661  1.1278
19797TIP3   OH280881   3.334   6.725  16.749  0.0429 -0.2022  0.1467
19797TIP3    H180882   3.278   6.707  16.825  0.8063 -3.1969  0.0717
19797TIP3    H280883   3.272   6.750  16.680 -1.3238 -3.5373  0.0434
19798TIP3   OH280884   3.076   3.246   3.889  1.0075  0.0462 -0.6046
19798TIP3    H180885   3.032   3.252   3.804  0.0720 -0.0454 -0.1265
19798TIP3    H280886   3.115   3.158   3.890 -0.3424 -0.5688 -0.2920
19799TIP3   OH280887   2.683   3.593   5.406 -0.2083 -0.6011 -0.0087
19799TIP3    H180888   2.653   3.504   5.422 -1.3642  0.0697  1.7737
19799TIP3    H280889   2.612   3.648   5.440  1.1831  1.0082  0.3599
19800TIP3   OH280890   0.311   6.663  11.693 -0.0325  0.2095 -0.2906
19800TIP3    H180891   0.330   6.620  11.610  0.9728 -0.7333  0.4172
19800TIP3    H280892   0.242   6.726  11.672  0.2477  0.0141 -1.8410
19801TIP3   OH280893   6.100   0.326  16.473 -0.5631  0.1919  0.3466
19801TIP3    H180894   6.163   0.256  16.488 -1.2817 -0.6124 -0.3012
19801TIP3    H280895   6.148   0.407  16.489  0.5203 -0.4282  0.2279
19802TIP3   OH280896   4.293   2.369  10.289 -0.3176  0.0352 -0.2649
19802TIP3    H180897   4.218   2.429  10.288 -0.8403 -0.5773  1.1711
19802TIP3    H280898   4.323   2.369  10.380  0.8261 -0.4586 -0.6398
19803TIP3   OH280899   5.067   1.508   3.002  0.4811 -0.1671  0.5352
19803TIP3    H180900   5.029   1.453   3.070 -1.7990  0.4567 -0.1754
19803TIP3    H280901   5.161   1.489   3.004  0.1204 -1.8393  2.2884
19804TIP3   OH280902   2.992   3.092  13.733 -0.1040  0.1094 -0.4460
19804TIP3    H180903   3.073   3.114  13.779 -0.2576 -0.2047 -0.0184
19804TIP3    H280904   2.944   3.036  13.794 -0.3577 -0.2323 -0.9511
19805TIP3   OH280905   0.730   6.118   2.247  0.5468  0.3593 -0.0614
19805TIP3    H180906   0.645   6.126   2.203  0.2501  1.2437  0.6494
19805TIP3    H280907   0.786   6.074   2.184 -0.2737  0.3305 -0.7765
19806TIP3   OH280908   6.620   0.580  17.224  0.0741 -0.2925 -0.3462
19806TIP3    H180909   6.601   0.589  17.131  0.7677  1.1503 -0.3613
19806TIP3    H280910   6.714   0.599  17.232 -0.3060  1.2074  0.8485
19807TIP3   OH280911   1.797   2.821   4.615  0.0745 -0.5068 -0.5301
19807TIP3    H180912   1.797   2.787   4.526 -1.1677 -0.7420 -0.4425
19807TIP3    H280913   1.807   2.744   4.671 -1.3053 -0.6034 -0.3923
19808TIP3   OH280914   1.450   0.660   5.460 -0.2817  0.1895  0.2337
19808TIP3    H180915   1.498   0.663   5.543 -0.6727  1.6113  0.4276
19808TIP3    H280916   1.481   0.737   5.412 -0.2665 -0.4630 -0.8359
19809TIP3   OH280917   3.684   3.936   0.779 -0.0036 -0.3286  0.1834
19809TIP3    H180918   3.626   4.006   0.810  0.2909  0.2957 -0.6670
19809TIP3    H280919   3.732   3.909   0.857 -1.9067 -1.3342  1.0592
19810TIP3   OH280920   2.080   4.786  13.294 -0.2842  0.1735 -0.4433
19810TIP3    H180921   2.170   4.756  13.279  0.1794  2.3015 -2.1230
19810TIP3    H280922   2.025   4.714  13.264  0.8333 -1.0488  0.3700
19811TIP3   OH280923   3.612   1.980   5.499 -0.3913  0.1301  0.2481
19811TIP3    H180924   3.642   1.963   5.588  1.3959 -1.1229 -0.5781
19811TIP3    H280925   3.688   2.018   5.455 -1.0986  0.2369 -0.9008
19812TIP3   OH280926   6.110   1.654   2.119  0.2115 -0.0567  0.4702
19812TIP3    H180927   6.113   1.610   2.204 -0.2073 -0.1165  0.4563
19812TIP3    H280928   6.116   1.747   2.139 -0.0775 -0.0597  0.5831
19813TIP3   OH280929   6.588   2.439  11.885 -0.1281  0.2418 -0.2010
19813TIP3    H180930   6.639   2.396  11.817  0.4505  1.9580 -0.8695
19813TIP3    H280931   6.517   2.377  11.905 -0.2897 -0.2765 -2.3203
19814TIP3   OH280932   5.426   1.889  16.489 -0.2834  0.1788  0.6379
19814TIP3    H180933   5.442   1.877  16.395 -1.3232  0.6391  0.3907
19814TIP3    H280934   5.473   1.818  16.531 -0.6571 -0.6342 -0.3095
19815TIP3   OH280935   5.355   4.823  15.567 -0.1440  0.1303  0.3967
19815TIP3    H180936   5.390   4.737  15.541 -0.7286 -0.2368  0.8155
19815TIP3    H280937   5.289   4.803  15.633 -1.3454  0.7889 -0.5829
19816TIP3   OH280938   4.597   3.964  13.489  0.5814  0.3267 -0.9287
19816TIP3    H180939   4.556   3.896  13.435 -1.2989  1.0042 -0.3918
19816TIP3    H280940   4.670   3.920  13.532 -0.3768 -1.2608 -0.8845
19817TIP3   OH280941   5.589   3.446  10.816  0.2159 -0.0046  0.1931
19817TIP3    H180942   5.658   3.473  10.877 -0.0798  0.5916  0.2628
19817TIP3    H280943   5.552   3.528  10.783 -0.5206 -0.3244  0.2158
19818TIP3   OH280944   0.685   3.543  15.406 -0.7955 -0.0313 -0.4787
19818TIP3    H180945   0.615   3.587  15.358 -1.2582  0.7307  0.8666
19818TIP3    H280946   0.753   3.609  15.417 -0.2694 -0.4894 -0.9302
19819TIP3   OH280947   5.489   6.644  15.502 -0.0280  0.8327 -0.2611
19819TIP3    H180948   5.399   6.615  15.516  0.4582 -1.5220 -1.7525
19819TIP3    H280949   5.540   6.591  15.563  0.4404  1.7122  0.1211
19820TIP3   OH280950   3.779   2.305  14.452  0.3664  0.4665 -0.4732
19820TIP3    H180951   3.712   2.369  14.474 -1.4766 -1.6254  0.1163
19820TIP3    H280952   3.862   2.352  14.467 -0.8753  1.8301  2.6738
19821TIP3   OH280953   4.151   5.689   2.145  0.0640  0.0759  0.1558
19821TIP3    H180954   4.105   5.686   2.062 -0.5414  2.8246  0.3516
19821TIP3    H280955   4.103   5.629   2.202  0.4011 -1.7020 -1.4086
19822TIP3   OH280956   2.849   0.011   1.835  0.0795 -0.3696 -0.1744
19822TIP3    H180957   2.796   0.059   1.900  0.3243 -0.2236 -0.0828
19822TIP3    H280958   2.938   0.043   1.849 -0.3038  1.8392 -2.5340
19823TIP3   OH280959   6.182   5.746   2.600 -0.2849 -0.3687  0.1010
19823TIP3    H180960   6.150   5.832   2.573  0.4397 -0.3244 -0.6281
19823TIP3    H280961   6.103   5.692   2.606 -0.6297  0.0613 -0.4966
19824TIP3   OH280962   0.019   4.357   4.741  0.2887  0.5332 -0.2287
19824TIP3    H180963  -0.013   4.334   4.828 -1.0719  1.8562 -0.3500
19824TIP3    H280964   0.092   4.416   4.757 -0.6574  1.6516  0.0216
19825TIP3   OH280965   4.609   0.517  11.281 -0.0861 -0.3464 -0.7931
19825TIP3    H180966   4.692   0.485  11.317  0.2088  0.5994 -0.6238
19825TIP3    H280967   4.626   0.527  11.187 -0.8936 -2.9324 -1.2419
19826TIP3   OH280968   2.208   1.839   2.156  0.7791 -0.4612 -0.0904
19826TIP3    H180969   2.226   1.847   2.062 -1.9948  0.8391 -0.5825
19826TIP3    H280970   2.251   1.914   2.196  0.8021 -0.2400 -0.5309
19827TIP3   OH280971   2.676   5.828  16.602  0.2471  0.3912  0.1730
19827TIP3    H180972   2.623   5.880  16.664  2.2803  1.2411  1.2437
19827TIP3    H280973   2.625   5.748  16.589 -0.8754  0.7785  1.9364
19828TIP3   OH280974   2.298   0.637  11.714  0.1606  0.1739 -0.0930
19828TIP3    H180975   2.267   0.695  11.783  1.5375  1.4172 -0.4833
19828TIP3    H280976   2.361   0.579  11.757 -1.6261 -1.4387  0.4126
19829TIP3   OH280977   3.052   2.208   5.154  0.0959  0.2347  0.5618
19829TIP3    H180978   3.016   2.294   5.132 -0.3240  0.3035  1.4725
19829TIP3    H280979   2.985   2.167   5.208 -0.1797 -1.1304 -0.7990
19830TIP3   OH280980   0.605   4.693  12.336  0.6486  0.0520  0.2314
19830TIP3    H180981   0.610   4.789  12.340 -0.1524  0.0582  1.2025
19830TIP3    H280982   0.525   4.671  12.384 -0.6048 -0.9457 -2.2261
19831TIP3   OH280983   2.531   5.457   1.043 -0.3442 -0.4054 -0.0409
19831TIP3    H180984   2.445   5.487   1.013  0.2243  0.6467 -0.6404
19831TIP3    H280985   2.547   5.376   0.994 -1.6004 -1.3669  1.1034
19832TIP3   OH280986   4.964   2.340   5.670 -0.3258 -0.2183 -0.1329
19832TIP3    H180987   5.045   2.358   5.622  0.5270 -1.5823  0.7550
19832TIP3    H280988   4.939   2.252   5.644 -1.0831 -0.1072  0.2086
19833TIP3   OH280989   3.028   1.626   3.162 -0.0618  0.3286 -0.6376
19833TIP3    H180990   3.012   1.720   3.166 -1.3703  0.0360  2.0749
19833TIP3    H280991   2.941   1.586   3.171  0.5499 -1.1434 -1.0567
19834TIP3   OH280992   1.002   0.043  14.594  0.2487 -0.2429 -0.2333
19834TIP3    H180993   1.075   0.101  14.570 -1.0376  1.5049 -0.0104
19834TIP3    H280994   0.924   0.094  14.574 -0.9228 -1.9876 -0.1740
19835TIP3   OH280995   0.576   3.072   3.436  0.0565 -0.2130 -0.0805
19835TIP3    H180996   0.617   3.156   3.453 -1.2454  0.2053  1.0645
19835TIP3    H280997   0.488   3.080   3.472 -0.6206 -1.5163 -1.3798
19836TIP3   OH280998   1.034   1.406   1.247  0.2423 -0.2585 -0.4285
19836TIP3    H180999   0.948   1.370   1.268  0.7866 -0.5860  1.3767
19836TIP3    H281000   1.079   1.336   1.200 -0.5037 -0.0613 -1.4282
19837TIP3   OH281001   2.389   3.285  13.198 -0.3926  0.3887  0.0290
19837TIP3    H181002   2.458   3.220  13.185 -0.3830  0.5549 -0.8105
19837TIP3    H281003   2.408   3.353  13.133 -2.0603 -0.1661 -1.0760
19838TIP3   OH281004   4.359   5.312  11.673 -0.5652 -0.6326  0.2959
19838TIP3    H181005   4.372   5.240  11.735 -1.3444  0.2385  1.4775
19838TIP3    H281006   4.412   5.287  11.597  0.1738 -1.8500  1.1867
19839TIP3   OH281007   1.042   6.684  14.372 -0.0119 -0.1087  0.3461
19839TIP3    H181008   0.984   6.735  14.428 -0.5844  0.1360 -0.4707
19839TIP3    H281009   0.988   6.656  14.298 -0.1729 -3.3489  1.5873
19840TIP3   OH281010   2.147   2.403  15.205  0.1923  0.2577  0.3873
19840TIP3    H181011   2.161   2.427  15.113 -0.1957  0.8989  0.4971
19840TIP3    H281012   2.235   2.398  15.242  0.3647 -0.3064 -0.0964
19841TIP3   OH281013   5.501   0.526   2.830  0.3098 -0.1205  0.4615
19841TIP3    H181014   5.437   0.472   2.877 -0.7906  1.4154  0.7556
19841TIP3    H281015   5.549   0.571   2.899  1.2004 -0.7030  0.2185
19842TIP3   OH281016   4.811   5.467  10.117  0.0533 -0.3121  0.1649
19842TIP3    H181017   4.766   5.391  10.079  1.6020 -0.2853 -1.8438
19842TIP3    H281018   4.742   5.515  10.163 -1.0172 -2.7550  1.2158
19843TIP3   OH281019   6.014   5.376   3.285  0.8976  0.2084  0.3056
19843TIP3    H181020   6.004   5.458   3.334 -1.3883  0.2528 -0.1892
19843TIP3    H281021   6.087   5.393   3.226  1.2793  1.4320  1.0990
19844TIP3   OH281022   4.275   0.834   5.430 -0.2688  0.3203  0.0045
19844TIP3    H181023   4.237   0.759   5.385  0.4135  1.0736 -1.8807
19844TIP3    H281024   4.331   0.795   5.497 -0.2913 -0.8613 -0.6347
19845TIP3   OH281025   5.778   6.678   1.975  0.3675 -0.2729  0.3225
19845TIP3    H181026   5.857   6.729   1.957 -0.9152  1.0715 -1.6742
19845TIP3    H281027   5.708   6.742   1.982 -0.5650 -1.4463  2.1904
19846TIP3   OH281028   6.372   0.555   1.317  0.3417 -0.6228  0.1853
19846TIP3    H181029   6.454   0.559   1.269 -1.3406  0.1737 -2.7716
19846TIP3    H281030   6.348   0.647   1.332 -0.2515 -0.8429  0.6206
19847TIP3   OH281031   4.245   2.362   1.559 -0.6495 -0.3092  0.0405
19847TIP3    H181032   4.162   2.328   1.528 -0.8310  0.3159 -0.1707
19847TIP3    H281033   4.308   2.291   1.544 -0.9699 -0.4518 -0.6201
19848TIP3   OH281034   0.069   5.707  13.141 -0.2024  0.2111  0.6763
19848TIP3    H181035   0.002   5.738  13.202  0.2608 -0.6043  1.6046
19848TIP3    H281036   0.049   5.615  13.126  0.1465  0.2052  0.1974
19849TIP3   OH281037   5.222   6.465  15.603 -0.4055 -0.4395  0.1852
19849TIP3    H181038   5.162   6.402  15.644 -1.3935 -1.0626 -2.1548
19849TIP3    H281039   5.210   6.545  15.653 -2.7129 -0.7506  0.1730
19850TIP3   OH281040   5.446   1.083   4.051  0.0215  0.7643  0.0033
19850TIP3    H181041   5.366   1.030   4.057 -0.2580  0.9932 -1.4982
19850TIP3    H281042   5.473   1.074   3.960  2.0145  0.2673  0.6170
19851TIP3   OH281043   2.793   6.013  12.064 -0.0817  0.0308  0.0273
19851TIP3    H181044   2.762   6.062  12.140 -1.0013 -0.9883  0.3142
19851TIP3    H281045   2.874   6.058  12.038 -2.0471  3.1046 -1.0737
19852TIP3   OH281046   0.028   0.381   2.533 -1.0136 -0.0673  0.6098
19852TIP3    H181047   0.021   0.434   2.454 -0.4286  1.9633  1.8650
19852TIP3    H281048   0.109   0.411   2.574 -0.9843 -1.5376  1.6503
19853TIP3   OH281049   2.468   2.606   6.278 -0.1669  0.0712 -0.3506
19853TIP3    H181050   2.542   2.579   6.332  0.2963  2.0845  0.0699
19853TIP3    H281051   2.398   2.544   6.300  0.7846 -0.6455  0.6991
19854TIP3   OH281052   0.096   3.260  11.245  0.5156 -0.8585  0.2738
19854TIP3    H181053   0.131   3.345  11.268 -0.9203 -0.4343  0.9519
19854TIP3    H281054   0.067   3.223  11.328 -0.0244 -1.4743 -0.1838
19855TIP3   OH281055   4.259   4.750   0.260  0.2421  0.5469  0.1316
19855TIP3    H181056   4.293   4.798   0.184  0.6769  0.6384  0.3887
19855TIP3    H281057   4.173   4.788   0.275  0.7106  1.4538  0.5233
19856TIP3   OH281058   1.452   2.566  14.763  0.1443 -0.2543 -0.0189
19856TIP3    H181059   1.459   2.542  14.670 -0.4645 -0.9287  0.1037
19856TIP3    H281060   1.444   2.482  14.808 -0.0663  0.0989  0.6052
19857TIP3   OH281061   5.232   3.441   0.413 -0.2771  0.1431  0.3186
19857TIP3    H181062   5.147   3.470   0.380 -0.2483 -1.0775 -0.8707
19857TIP3    H281063   5.296   3.494   0.364 -0.3215  0.7465  0.8967
19858TIP3   OH281064   1.680   0.582  16.465 -0.3775  0.0161 -0.1319
19858TIP3    H181065   1.772   0.611  16.460 -0.7651  1.2338 -0.4923
19858TIP3    H281066   1.674   0.535  16.548  0.4660  0.3600  0.1305
19859TIP3   OH281067   0.046   1.746   0.823 -0.3181  0.0719 -0.0861
19859TIP3    H181068   0.103   1.774   0.751 -1.6037 -1.4865 -1.7728
19859TIP3    H281069   0.091   1.672   0.862  0.2949  0.8060  0.6171
19860TIP3   OH281070   0.086   1.515   0.206 -0.6216 -0.0268  0.3671
19860TIP3    H181071   0.100   1.435   0.156 -0.9276 -0.0686  0.3481
19860TIP3    H281072  -0.007   1.536   0.192 -0.5002  0.4227  0.2336
19861TIP3   OH281073   1.922   1.027   5.865  0.4238  0.1242  0.1397
19861TIP3    H181074   1.964   1.109   5.891 -0.4234  0.7304 -0.3724
19861TIP3    H281075   1.903   1.038   5.772 -0.8160 -0.1581  0.3476
19862TIP3   OH281076   0.758   2.315   0.607 -0.3941 -0.3105 -0.1864
19862TIP3    H181077   0.778   2.355   0.523 -3.3996 -0.4557 -1.0138
19862TIP3    H281078   0.720   2.386   0.659 -1.2890 -0.9126 -0.0015
19863TIP3   OH281079   0.300   5.692   5.158  0.2738 -0.2542  0.0976
19863TIP3    H181080   0.353   5.642   5.096  1.0161 -0.6565  1.0441
19863TIP3    H281081   0.211   5.682   5.127  0.8043  1.1314 -2.0159
19864TIP3   OH281082   5.916   0.951  14.994  0.3331  0.7131 -0.7250
19864TIP3    H181083   5.938   0.975  15.084  2.5458 -0.7665 -0.8211
19864TIP3    H281084   5.943   1.026  14.941  4.4899 -0.7026 -0.7311
19865TIP3   OH281085   0.511   1.226  16.712  0.4428  0.3380 -0.5436
19865TIP3    H181086   0.533   1.195  16.800 -1.9011  1.3868  0.4812
19865TIP3    H281087   0.552   1.312  16.706  1.9657 -0.4128 -1.1212
19866TIP3   OH281088   5.284   1.023  16.244 -0.3286 -0.4342  0.0218
19866TIP3    H181089   5.319   1.045  16.330 -0.5418 -1.0958  0.2754
19866TIP3    H281090   5.205   1.076  16.235 -1.0354 -1.3533  0.7769
19867TIP3   OH281091   2.137   4.585   0.288 -0.0253  0.4951 -0.2501
19867TIP3    H181092   2.116   4.561   0.198 -1.5567 -1.6603  0.6501
19867TIP3    H281093   2.088   4.666   0.304 -1.9523 -0.6020 -0.4933
19868TIP3   OH281094   2.535   2.061   0.924  0.8725  0.2656  0.0960
19868TIP3    H181095   2.486   1.990   0.884  1.7261 -1.3130  1.7726
19868TIP3    H281096   2.505   2.062   1.015 -0.3310  3.1504 -0.2457
19869TIP3   OH281097   0.946   6.268  13.202  0.3270 -0.2997  0.9381
19869TIP3    H181098   0.940   6.200  13.136  0.1995  0.6002  0.0100
19869TIP3    H281099   0.898   6.233  13.277  1.0873 -1.6277  0.8219
19870TIP3   OH281100   4.388   5.164  10.075  0.0662 -0.6254  0.0304
19870TIP3    H181101   4.331   5.221  10.126 -0.4505 -0.2594 -0.9358
19870TIP3    H281102   4.448   5.224  10.031 -1.9872 -0.5976 -2.8550
19871TIP3   OH281103   2.153   4.314   3.880 -0.3905 -0.3684  0.5785
19871TIP3    H181104   2.181   4.324   3.972 -1.8185  0.0006  0.9820
19871TIP3    H281105   2.205   4.240   3.848  0.9540  0.2133  1.3429
19872TIP3   OH281106   3.797   6.437   4.075 -0.3754  0.1411 -0.7354
19872TIP3    H181107   3.769   6.445   4.166  0.8682 -4.5358  0.2183
19872TIP3    H281108   3.889   6.460   4.075  0.3499 -2.5752 -0.1751
19873TIP3   OH281109   6.337   5.110  12.745  0.5967 -0.7309 -0.6361
19873TIP3    H181110   6.301   5.198  12.754 -0.4003 -1.1618 -0.3405
19873TIP3    H281111   6.345   5.096  12.651  1.3634 -0.0855 -0.6703
19874TIP3   OH281112   0.691   4.274  11.879  0.0330 -0.4840  0.4652
19874TIP3    H181113   0.669   4.356  11.836  2.4498  0.3274  0.6836
19874TIP3    H281114   0.676   4.291  11.972 -0.4518 -0.6351  0.4160
19875TIP3   OH281115   4.016   2.698   2.983 -0.8874  0.2644 -0.1504
19875TIP3    H181116   4.101   2.716   3.025 -0.5102  0.6439 -1.0710
19875TIP3    H281117   4.019   2.747   2.901 -2.0356  0.3381 -0.1570
19876TIP3   OH281118   5.622   4.395   2.166 -0.3722 -0.2141 -0.3444
19876TIP3    H181119   5.647   4.417   2.255  0.8044 -0.8115 -0.5243
19876TIP3    H281120   5.674   4.318   2.144  0.0245  0.4754 -1.8669
19877TIP3   OH281121   3.242   6.403  16.963  0.0881 -0.1318  0.0039
19877TIP3    H181122   3.317   6.397  16.905  0.8900  1.9243  0.7763
19877TIP3    H281123   3.265   6.472  17.025 -1.6004 -0.8532  1.4931
19878TIP3   OH281124   2.199   2.034  14.215 -0.0022 -0.1392  0.7809
19878TIP3    H181125   2.142   1.974  14.263 -0.1474 -0.3043  0.4038
19878TIP3    H281126   2.140   2.080  14.155  0.2753 -0.3743  0.3292
19879TIP3   OH281127   3.500   2.537   3.771 -0.6593 -0.3535  0.4210
19879TIP3    H181128   3.405   2.547   3.775 -0.6929 -1.0340  1.3198
19879TIP3    H281129   3.533   2.626   3.755 -1.3066  0.2264  2.2793
19880TIP3   OH281130   6.272   6.815   5.872 -0.9791 -0.4517 -0.2109
19880TIP3    H181131   6.319   6.833   5.954 -0.9695  0.3436 -0.3891
19880TIP3    H281132   6.262   6.720   5.871 -0.9090 -0.4752  0.6786
19881TIP3   OH281133   0.456   2.857   5.712  0.4398 -0.3989 -0.1761
19881TIP3    H181134   0.461   2.773   5.758  3.1601 -1.0693 -1.6002
19881TIP3    H281135   0.535   2.904   5.740 -0.9577  1.6214  0.4449
19882TIP3   OH281136   4.675   1.802   2.078  0.2478  0.4705  0.1855
19882TIP3    H181137   4.582   1.780   2.072  0.1150  1.0844 -0.0887
19882TIP3    H281138   4.694   1.803   2.172 -0.3753  1.7536  0.3059
19883TIP3   OH281139   2.577   1.572  11.037 -0.5988 -0.3599 -0.0195
19883TIP3    H181140   2.516   1.556  10.965 -0.0809 -0.7786 -0.3702
19883TIP3    H281141   2.538   1.644  11.087 -0.9740 -0.0988 -0.6927
19884TIP3   OH281142   2.525   3.771   0.209  0.5004 -0.2782 -0.6916
19884TIP3    H181143   2.515   3.865   0.223 -1.8462 -0.5185 -0.6782
19884TIP3    H281144   2.568   3.764   0.123  3.0958  0.8377  0.4827
19885TIP3   OH281145   5.412   4.041  12.251 -0.0432 -0.1787 -0.2825
19885TIP3    H181146   5.478   3.981  12.217 -0.0145 -0.4713  0.2838
19885TIP3    H281147   5.367   4.074  12.173  0.1884 -0.6440 -0.6152
19886TIP3   OH281148   3.696   3.979  12.914 -0.3993 -0.0316 -0.0417
19886TIP3    H181149   3.677   3.885  12.911  0.8162 -0.2764 -0.2193
19886TIP3    H281150   3.680   4.003  13.006 -1.4203 -0.2558 -0.1593
19887TIP3   OH281151   4.691   1.368  11.252  0.2452  0.2006  0.7512
19887TIP3    H181152   4.747   1.338  11.180 -0.1473 -1.0144  0.9390
19887TIP3    H281153   4.607   1.386  11.212  0.5687  1.3667  0.5874
19888TIP3   OH281154   2.897   5.132   2.648  0.1912 -0.1361  0.3313
19888TIP3    H181155   2.987   5.131   2.616  0.4145  0.2951  0.9428
19888TIP3    H281156   2.904   5.108   2.741 -0.2203  0.8019  0.6159
19889TIP3   OH281157   3.203   6.034   4.320 -0.3587 -0.4640 -0.0893
19889TIP3    H181158   3.234   6.049   4.409 -0.8513 -2.5392  0.4708
19889TIP3    H281159   3.276   5.989   4.277 -0.6449 -0.7484 -0.2850
19890TIP3   OH281160   3.349   6.203  11.543  0.2063  0.1913  0.6928
19890TIP3    H181161   3.423   6.214  11.603  1.2207  1.4144 -0.7371
19890TIP3    H281162   3.333   6.108  11.542  2.3473 -0.1976  0.3623
19891TIP3   OH281163   3.979   1.286  13.676  0.2807  0.3676  0.5895
19891TIP3    H181164   4.018   1.212  13.723  0.1431 -0.7929 -1.0565
19891TIP3    H281165   3.931   1.245  13.604  1.1956  2.1276 -1.0670
19892TIP3   OH281166   0.119   1.926   1.242  0.3252 -1.2098 -0.0229
19892TIP3    H181167   0.092   1.842   1.205  0.4853 -1.4588  0.4179
19892TIP3    H281168   0.176   1.964   1.176 -3.0001  0.4299 -2.0760
19893TIP3   OH281169   1.132   3.558   3.161 -0.0405 -0.3141 -0.4089
19893TIP3    H181170   1.227   3.545   3.161 -0.0051 -0.1794  1.0869
19893TIP3    H281171   1.117   3.627   3.097  0.6476 -1.7122 -2.1227
19894TIP3   OH281172   4.832   2.216   0.509  0.2980  0.0648 -0.2205
19894TIP3    H181173   4.805   2.307   0.520 -1.3330 -0.6383  2.2091
19894TIP3    H281174   4.829   2.201   0.415  3.1693  3.2216 -0.9350
19895TIP3   OH281175   3.461   3.665  16.601  0.3208  0.3552 -0.7772
19895TIP3    H181176   3.485   3.757  16.607  0.8508  0.1805 -0.1763
19895TIP3    H281177   3.525   3.619  16.655 -1.3370 -0.1207  0.8251
19896TIP3   OH281178   3.998   5.023   0.091 -0.6555 -0.9672  0.2540
19896TIP3    H181179   4.042   5.040   0.175 -0.6221 -1.4226  0.3306
19896TIP3    H281180   3.950   5.104   0.073 -0.4625 -0.7738  0.5889
19897TIP3   OH281181   2.579   2.272  13.497  0.0196  0.0531  0.0057
19897TIP3    H181182   2.547   2.226  13.574 -0.6131  0.7358  0.1551
19897TIP3    H281183   2.596   2.361  13.528  2.3614 -0.3559  0.0166
19898TIP3   OH281184   4.575   2.932  15.441  0.4584  0.0443 -0.1750
19898TIP3    H181185   4.505   2.880  15.400  0.7544 -0.4339 -0.0792
19898TIP3    H281186   4.602   2.994  15.373  0.5188 -0.3356 -0.4985
19899TIP3   OH281187   1.207   3.357  16.318  0.2886 -0.1306  0.3459
19899TIP3    H181188   1.300   3.379  16.316  0.3912 -0.5938 -0.6256
19899TIP3    H281189   1.179   3.367  16.227 -0.6843  0.2972  0.6903
19900TIP3   OH281190   6.797   4.610   3.427 -0.5486  0.2222 -0.1756
19900TIP3    H181191   6.863   4.646   3.487 -0.9736  0.4534  0.1523
19900TIP3    H281192   6.716   4.653   3.452 -0.8069  0.0095 -0.6499
19901TIP3   OH281193   4.067   0.375  15.328  0.6659  0.0773 -0.3695
19901TIP3    H181194   4.101   0.458  15.359  1.2030 -0.0218 -0.6887
19901TIP3    H281195   4.017   0.340  15.402  0.2131  0.8029 -0.3259
19902TIP3   OH281196   1.203   6.657  10.867 -0.0492 -0.1388  0.1505
19902TIP3    H181197   1.236   6.570  10.843 -1.2518  0.3986 -3.7178
19902TIP3    H281198   1.112   6.657  10.836  0.1137  2.6775 -0.4023
19903TIP3   OH281199   5.725   0.561   5.705  0.2477 -0.4223  0.4176
19903TIP3    H181200   5.741   0.471   5.735 -1.3224 -0.6125  0.7010
19903TIP3    H281201   5.659   0.552   5.636  1.4774  0.3419 -0.8900
19904TIP3   OH281202   1.010   4.391   3.348 -0.1991 -0.3586  0.5451
19904TIP3    H181203   1.012   4.342   3.266 -1.1186  1.4320 -0.5776
19904TIP3    H281204   0.957   4.338   3.407 -0.6863 -0.9949 -0.4646
19905TIP3   OH281205   6.181   4.635   4.998  0.5091 -0.5926  0.2384
19905TIP3    H181206   6.209   4.691   5.070 -1.6406  0.6873  0.1472
19905TIP3    H281207   6.125   4.569   5.040  1.4731 -1.5243  0.0829
19906TIP3   OH281208   3.947   5.972   3.923  0.1442 -0.2735 -0.3365
19906TIP3    H181209   3.895   5.961   3.843 -0.8722  1.6782  0.0312
19906TIP3    H281210   4.007   6.044   3.904  0.2906 -0.1798  0.4574
19907TIP3   OH281211   6.082   1.110   5.983 -0.2455 -0.5787  0.1338
19907TIP3    H181212   6.109   1.022   6.008 -0.4595 -0.3988  1.0312
19907TIP3    H281213   6.057   1.151   6.065 -0.3726  0.2443 -0.3115
19908TIP3   OH281214   1.110   4.150   0.183  0.0257  1.1347  0.0813
19908TIP3    H181215   1.072   4.164   0.270 -0.9193  0.6269 -0.2398
19908TIP3    H281216   1.184   4.091   0.199  0.9848  2.5061  0.7788
19909TIP3   OH281217   2.255   5.468  17.091  0.5345  0.1170 -0.0713
19909TIP3    H181218   2.267   5.438  17.001  3.6466 -1.1487  0.7099
19909TIP3    H281219   2.256   5.388  17.144  0.3979  0.9811  1.2692
19910TIP3   OH281220   6.651   2.847   1.175  0.4745 -0.2179 -0.3185
19910TIP3    H181221   6.628   2.817   1.087 -1.4486 -2.4229  0.8506
19910TIP3    H281222   6.747   2.849   1.176  0.5179 -0.3734 -2.3913
19911TIP3   OH281223   3.243   3.566   2.036 -0.6516  0.0080  0.4153
19911TIP3    H181224   3.183   3.549   2.109 -0.8000  0.0063  0.2926
19911TIP3    H281225   3.186   3.594   1.964 -0.2699  2.6595  1.0949
19912TIP3   OH281226   1.915   0.074  17.053 -0.0235 -0.3862  0.5205
19912TIP3    H181227   1.945   0.100  16.966 -0.5008 -2.6020 -0.3463
19912TIP3    H281228   1.987   0.022  17.089 -0.8910 -1.7570  0.3272
19913TIP3   OH281229   4.951   2.000  12.659 -0.5431 -0.0537 -0.1028
19913TIP3    H181230   4.995   1.918  12.683 -1.1166 -0.1450  0.6665
19913TIP3    H281231   5.005   2.069  12.696 -0.1373 -0.0849 -0.6260
19914TIP3   OH281232   6.589   4.854  14.997 -0.6773 -0.1198 -0.2262
19914TIP3    H181233   6.587   4.841  14.902  0.4807 -0.3391 -0.2372
19914TIP3    H281234   6.563   4.769  15.033  1.0724 -0.7271 -0.3429
19915TIP3   OH281235   3.637   0.300  13.258  0.1697 -0.3320 -0.4703
19915TIP3    H181236   3.696   0.375  13.264  0.0276 -0.1615 -1.1325
19915TIP3    H281237   3.607   0.286  13.348 -2.0428  2.2192 -0.7340
19916TIP3   OH281238   4.765   4.582  16.458 -0.6659 -0.0399  0.1967
19916TIP3    H181239   4.842   4.526  16.446 -1.7170 -1.1530 -1.6758
19916TIP3    H281240   4.773   4.649  16.390 -1.0735  0.1639  0.3485
19917TIP3   OH281241   5.974   3.789  13.988 -0.4912  0.9960  0.3134
19917TIP3    H181242   6.050   3.846  14.005  1.9076 -2.0136  0.0485
19917TIP3    H281243   5.960   3.743  14.071 -0.2194 -0.5161 -0.4665
19918TIP3   OH281244   1.443   3.333   6.065 -0.5877 -0.3457 -0.1606
19918TIP3    H181245   1.535   3.335   6.092 -0.8792 -0.6792  0.9073
19918TIP3    H281246   1.413   3.423   6.076 -0.2422 -0.1251 -1.0352
19919TIP3   OH281247   6.159   0.022  15.297  0.3182  0.1607 -0.0768
19919TIP3    H181248   6.083  -0.035  15.306 -0.3482  1.0142 -0.2643
19919TIP3    H281249   6.147   0.066  15.213  0.5634  0.9655  0.3004
19920TIP3   OH281250   4.485   2.391   6.269 -0.2229 -0.8605 -0.0260
19920TIP3    H181251   4.578   2.406   6.252  0.1431 -1.5044  1.3371
19920TIP3    H281252   4.482   2.305   6.311 -1.1158  0.3742  2.5574
19921TIP3   OH281253   3.538   5.825  16.796  0.3488 -0.2669 -0.4863
19921TIP3    H181254   3.623   5.817  16.752  0.8169  1.4039  0.0449
19921TIP3    H281255   3.482   5.761  16.753  2.0270 -1.7795 -0.4754
19922TIP3   OH281256   3.456   2.196  13.957 -0.2512 -0.5585  0.1977
19922TIP3    H181257   3.548   2.181  13.977  0.0997  1.5632  0.3064
19922TIP3    H281258   3.409   2.168  14.035  0.5061  0.4882  1.0467
19923TIP3   OH281259   0.751   2.984  15.537  0.4024 -0.2842 -0.1436
19923TIP3    H181260   0.704   2.938  15.468  1.3671 -1.5526  0.0354
19923TIP3    H281261   0.683   3.034  15.582 -0.1734  0.9730 -2.3012
19924TIP3   OH281262   2.733   2.447   2.321 -0.1380  0.6128  0.5539
19924TIP3    H181263   2.745   2.415   2.411 -0.4557  0.0781  0.4090
19924TIP3    H281264   2.815   2.492   2.301  0.1215  0.3206  0.9400
19925TIP3   OH281265   5.842   6.190   2.619  0.4001  0.0408  0.3090
19925TIP3    H181266   5.824   6.197   2.526  0.2162 -0.4619  0.3082
19925TIP3    H281267   5.938   6.186   2.625  0.4204  0.3299  0.1597
19926TIP3   OH281268   0.932   2.122   1.798 -0.3885  0.7106 -0.1018
19926TIP3    H181269   0.910   2.032   1.771 -1.4842  1.1013 -0.5639
19926TIP3    H281270   1.027   2.122   1.809 -0.5862 -1.0696  1.9638
19927TIP3   OH281271   2.578   6.319  16.277 -0.4347 -0.0055 -0.5991
19927TIP3    H181272   2.606   6.230  16.298 -0.5225  0.7454  2.9999
19927TIP3    H281273   2.652   6.357  16.230  0.2580 -1.4453 -0.6967
19928TIP3   OH281274   5.473   3.048  12.177 -1.1686 -0.2181  0.0169
19928TIP3    H181275   5.528   3.013  12.107  0.2387  0.2283  0.8994
19928TIP3    H281276   5.431   2.971  12.215 -0.7077 -0.6037 -0.2561
19929TIP3   OH281277   2.864   5.524   6.278  0.1381  0.5989 -0.1302
19929TIP3    H181278   2.947   5.487   6.248 -0.8266 -1.7041 -0.1170
19929TIP3    H281279   2.871   5.526   6.374 -0.0789 -0.2904 -0.0891
19930TIP3   OH281280   1.800   2.518   0.540 -0.5584  0.6216 -0.1205
19930TIP3    H181281   1.704   2.517   0.540 -0.5860 -0.7258  1.6195
19930TIP3    H281282   1.824   2.582   0.607 -0.2871 -0.4235  0.8034
19931TIP3   OH281283   2.093   6.555  15.140  0.5384  0.4666  0.4191
19931TIP3    H181284   2.035   6.630  15.129  0.9223  0.9311  1.4359
19931TIP3    H281285   2.041   6.492  15.189 -0.1325 -0.3513 -1.3428
19932TIP3   OH281286   3.013   6.198   1.612  0.7020  0.4201  0.0609
19932TIP3    H181287   3.024   6.220   1.520  0.0859  2.2341  0.4063
19932TIP3    H281288   2.928   6.236   1.636 -0.5385 -2.5697  0.6346
19933TIP3   OH281289   3.727   3.723  12.114  0.1291  0.5545 -0.0396
19933TIP3    H181290   3.688   3.805  12.084 -0.0203  0.6541  0.4259
19933TIP3    H281291   3.691   3.656  12.056  2.3439  1.1519 -2.2332
19934TIP3   OH281292   3.857   3.402   3.549 -0.0800  0.5390 -0.0095
19934TIP3    H181293   3.938   3.352   3.558  0.9745  2.0777 -0.6504
19934TIP3    H281294   3.877   3.488   3.586 -1.1418  1.2210 -0.9702
19935TIP3   OH281295   3.330   5.219   6.089  0.1133 -0.3591 -0.3169
19935TIP3    H181296   3.316   5.310   6.063 -0.1173 -0.5452 -0.8446
19935TIP3    H281297   3.293   5.214   6.177 -1.1408 -0.2943 -0.8357
19936TIP3   OH281298   6.584   3.102   2.159 -0.0098  0.4772 -0.0666
19936TIP3    H181299   6.588   3.174   2.095  0.2702  0.5026 -0.0181
19936TIP3    H281300   6.667   3.057   2.149  0.0629  0.5255  0.3389
19937TIP3   OH281301   4.280   1.880   0.323 -0.1355  0.2008  0.0671
19937TIP3    H181302   4.334   1.906   0.398 -0.5005 -1.5538  0.9582
19937TIP3    H281303   4.316   1.929   0.249  0.5229  1.6028  1.2907
19938TIP3   OH281304   3.150   5.732  16.817 -0.6961 -0.5064  0.2580
19938TIP3    H181305   3.208   5.783  16.760 -0.1974 -1.7126 -0.3343
19938TIP3    H281306   3.131   5.791  16.890  0.2668  0.3521 -0.1615
19939TIP3   OH281307   4.377   1.254   5.210  0.3196 -0.0185  0.2971
19939TIP3    H181308   4.395   1.178   5.266 -1.0567 -1.0542 -0.6278
19939TIP3    H281309   4.363   1.216   5.123  1.0742  1.4401 -0.4752
19940TIP3   OH281310   4.939   4.867   0.623 -0.0164 -0.7622  0.6414
19940TIP3    H181311   4.970   4.952   0.655  0.2434 -0.0687 -1.3700
19940TIP3    H281312   5.018   4.813   0.618 -0.0288 -0.8127  0.9468
19941TIP3   OH281313   6.501   4.499  14.502 -0.3111  0.3675 -0.2728
19941TIP3    H181314   6.559   4.503  14.578 -0.1619 -0.0937 -0.3618
19941TIP3    H281315   6.559   4.493  14.427 -0.4806 -0.5483 -0.3309
19942TIP3   OH281316   3.598   2.774   6.434  0.2336  0.2775 -0.2117
19942TIP3    H181317   3.520   2.729   6.402  0.9717  1.7315 -4.4516
19942TIP3    H281318   3.565   2.857   6.469 -0.1307  1.6212 -3.4827
19943TIP3   OH281319   1.408   1.498  12.524  0.2611  0.1263  0.3632
19943TIP3    H181320   1.329   1.499  12.578 -0.4461  0.2982 -0.6672
19943TIP3    H281321   1.380   1.461  12.441  1.6751 -1.5747  0.6011
19944TIP3   OH281322   4.093   6.739  16.234 -0.5334  0.9467 -0.1281
19944TIP3    H181323   4.077   6.692  16.316  0.9572  0.0012 -0.3639
19944TIP3    H281324   4.157   6.807  16.258  0.1552  0.4550 -0.5769
19945TIP3   OH281325   0.347   5.249   2.665 -0.8693  0.3628 -0.0047
19945TIP3    H181326   0.381   5.323   2.615 -0.3808 -0.1485 -0.4275
19945TIP3    H281327   0.422   5.190   2.676 -1.2704 -0.1009  0.2757
19946TIP3   OH281328   2.826   5.985   1.507  0.0642 -0.8129  0.4172
19946TIP3    H181329   2.736   5.962   1.481 -0.6854  0.0012  2.2749
19946TIP3    H281330   2.849   6.058   1.450 -0.9375 -0.1769  0.8060
19947TIP3   OH281331   6.157   1.979   4.540  0.4069 -0.0929  0.0626
19947TIP3    H181332   6.212   1.954   4.465  1.5596 -0.0001  0.8561
19947TIP3    H281333   6.160   2.075   4.542 -0.7415 -0.0354 -0.5818
19948TIP3   OH281334   1.654   5.428  14.172  0.1434  0.5757 -0.7350
19948TIP3    H181335   1.653   5.498  14.107  2.7040  0.8590 -0.5046
19948TIP3    H281336   1.665   5.348  14.121 -0.4762  0.5550 -0.8357
19949TIP3   OH281337   3.384   3.738   5.011 -0.2732 -0.1128 -0.1353
19949TIP3    H181338   3.322   3.739   5.085  1.0634  0.9025  0.9985
19949TIP3    H281339   3.418   3.827   5.007  1.1094 -0.6512 -0.7617
19950TIP3   OH281340   5.836   2.302  11.332  0.2557  0.6732  0.1370
19950TIP3    H181341   5.861   2.386  11.294  0.6296  1.9076  2.9636
19950TIP3    H281342   5.842   2.316  11.427 -1.9197 -1.8418  0.7093
19951TIP3   OH281343   2.164   2.675  12.333 -0.1451  0.0859  1.0018
19951TIP3    H181344   2.224   2.639  12.399  0.9319 -0.1247 -0.0844
19951TIP3    H281345   2.213   2.671  12.251 -0.9755  1.6342  0.4176
19952TIP3   OH281346   6.802   1.026  12.265  0.5203 -0.2754  0.0456
19952TIP3    H181347   6.797   0.972  12.343 -0.6120 -0.6780 -0.3080
19952TIP3    H281348   6.719   1.012  12.219 -0.0002  2.1247  0.1863
19953TIP3   OH281349   4.975   1.369  11.271  0.4401  0.4583  0.4962
19953TIP3    H181350   4.984   1.307  11.344  0.5832 -1.0577 -0.7776
19953TIP3    H281351   4.903   1.426  11.297 -1.4273 -1.8340  0.6014
19954TIP3   OH281352   5.332   4.430  12.113 -0.6723  0.5112 -0.8257
19954TIP3    H181353   5.327   4.503  12.052 -1.5194  0.3437 -0.9690
19954TIP3    H281354   5.266   4.450  12.180  0.3203  0.7405  0.0896
19955TIP3   OH281355   6.651   2.327  15.342 -0.0611  0.1355 -0.0548
19955TIP3    H181356   6.718   2.321  15.274 -0.9432 -0.3190 -0.8813
19955TIP3    H281357   6.671   2.255  15.402 -0.5558 -0.7676 -0.9719
19956TIP3   OH281358   6.059   0.444  14.758  0.3063  0.0426  0.2745
19956TIP3    H181359   6.084   0.519  14.704  0.6792  0.2023  0.6690
19956TIP3    H281360   6.123   0.443  14.829  0.4191 -0.7669  0.1654
19957TIP3   OH281361   4.565   4.381   4.961 -0.5890 -0.0616 -0.2835
19957TIP3    H181362   4.524   4.295   4.956  0.0124 -0.3441 -0.5249
19957TIP3    H281363   4.499   4.439   4.999 -0.9998 -0.6282 -0.1469
19958TIP3   OH281364   2.764   5.066   4.746  0.5369 -0.1928 -0.3471
19958TIP3    H181365   2.833   5.034   4.805  0.9900  1.5694  0.0905
19958TIP3    H281366   2.697   5.102   4.805 -0.3808 -1.0974 -0.8091
19959TIP3   OH281367   2.119   1.470   1.363 -0.0956 -0.4000  0.2571
19959TIP3    H181368   2.056   1.541   1.373  1.1598  1.0697 -1.8375
19959TIP3    H281369   2.073   1.404   1.311 -0.0931  0.4496 -0.8331
19960TIP3   OH281370   3.470   3.436   0.127  0.2160  0.0937 -0.3835
19960TIP3    H181371   3.535   3.370   0.101 -1.4515 -1.7101 -0.0904
19960TIP3    H281372   3.387   3.388   0.127 -0.9578  2.1052  0.3066
19961TIP3   OH281373   4.355   2.572  12.604  0.2162  0.4758 -0.3357
19961TIP3    H181374   4.397   2.554  12.689  0.0537  1.7830  0.0362
19961TIP3    H281375   4.277   2.623  12.627  0.0863  0.6905 -1.2578
19962TIP3   OH281376   0.450   1.129  13.459 -0.5100  0.2550 -0.2462
19962TIP3    H181377   0.397   1.083  13.394 -0.7006  0.9033 -0.5544
19962TIP3    H281378   0.530   1.078  13.466 -1.2214 -0.8104  0.3145
19963TIP3   OH281379   3.160   3.465   4.463  0.1889  0.3850  0.0142
19963TIP3    H181380   3.131   3.528   4.529  0.0453 -0.3660  0.6789
19963TIP3    H281381   3.084   3.453   4.406  0.3112  1.0306 -0.2825
19964TIP3   OH281382   2.867   3.927   0.910 -0.1961 -0.4351 -0.0514
19964TIP3    H181383   2.842   3.953   0.999  0.9433  0.4837  0.0058
19964TIP3    H281384   2.921   3.849   0.922  2.0439  1.1221  0.2608
19965TIP3   OH281385   2.689   4.412   3.913 -0.6353  0.0215 -0.6770
19965TIP3    H181386   2.747   4.387   3.841 -1.5421  0.8146 -1.6971
19965TIP3    H281387   2.653   4.329   3.945  2.3412 -0.6701  1.1178
19966TIP3   OH281388   6.186   4.525   3.341  0.2396  0.4727 -0.1272
19966TIP3    H181389   6.158   4.551   3.253 -0.3512  1.7387  0.4210
19966TIP3    H281390   6.281   4.535   3.340  0.0489  2.6966  0.0462
19967TIP3   OH281391   6.381   2.079  13.633  0.2077 -0.3079 -0.2278
19967TIP3    H181392   6.365   2.139  13.559 -0.3013 -1.0436 -0.7227
19967TIP3    H281393   6.326   2.113  13.703 -0.1354 -0.2325 -0.5287
19968TIP3   OH281394   4.727   0.644   0.835  0.1200 -0.5954  0.1614
19968TIP3    H181395   4.699   0.623   0.924 -0.2659 -0.5449  0.0544
19968TIP3    H281396   4.690   0.574   0.781 -0.4227 -0.1330 -0.0779
19969TIP3   OH281397   1.527   1.379  13.175 -0.1703 -0.7429 -0.6517
19969TIP3    H181398   1.440   1.343  13.191 -0.7206  0.3212 -1.2430
19969TIP3    H281399   1.550   1.349  13.087  0.4028 -1.6932 -0.1852
19970TIP3   OH281400   4.042   2.619  12.322 -0.0157 -0.1002 -0.0431
19970TIP3    H181401   4.085   2.677  12.384 -0.5278  0.0355  0.1882
19970TIP3    H281402   4.002   2.552  12.376 -0.5156  0.0517 -0.2227
19971TIP3   OH281403   2.055   6.012  16.579 -0.1448  0.0037  0.3271
19971TIP3    H181404   2.066   6.102  16.610 -1.8226  0.1128  0.6415
19971TIP3    H281405   1.994   5.972  16.640 -1.5117 -0.5386 -1.3467
19972TIP3   OH281406   3.266   5.174   1.166 -0.3145 -0.0849 -0.1927
19972TIP3    H181407   3.198   5.236   1.188 -1.7300 -1.2680 -1.1282
19972TIP3    H281408   3.310   5.212   1.090 -0.6887  0.1381 -0.2992
19973TIP3   OH281409   4.278   6.393   4.018  0.4476 -0.2583 -0.0512
19973TIP3    H181410   4.233   6.341   3.952 -1.7297  1.5890 -0.0872
19973TIP3    H281411   4.273   6.483   3.985  1.3019  0.4066  1.5541
19974TIP3   OH281412   1.637   2.591  16.778  0.5647  0.2106  0.8938
19974TIP3    H181413   1.694   2.649  16.827  3.4186 -1.9157  0.2203
19974TIP3    H281414   1.665   2.503  16.801 -1.2634 -0.8918 -0.8271
19975TIP3   OH281415   4.840   6.179   4.146  0.3632 -0.1656  0.0045
19975TIP3    H181416   4.928   6.153   4.173 -0.0566 -2.5715 -0.8341
19975TIP3    H281417   4.789   6.174   4.227  0.8981  0.8409  0.4119
19976TIP3   OH281418   3.054   1.324   1.224  0.0682 -0.2508  0.5879
19976TIP3    H181419   2.979   1.343   1.168  1.7290 -1.2859 -2.0833
19976TIP3    H281420   3.017   1.279   1.300 -1.8110 -2.6051 -1.6230
19977TIP3   OH281421   5.681   3.218  13.762  0.6011 -0.1270  0.4363
19977TIP3    H181422   5.608   3.170  13.722  0.4998  2.2902 -2.4529
19977TIP3    H281423   5.670   3.203  13.856 -1.1885 -3.1689 -0.1800
19978TIP3   OH281424   1.628   1.718   1.442 -0.3775 -0.4840 -0.3679
19978TIP3    H181425   1.640   1.796   1.386 -0.0283  0.2276  0.6833
19978TIP3    H281426   1.662   1.745   1.527  2.8993 -2.8835 -0.8313
19979TIP3   OH281427   2.896   1.412  15.225 -0.5749  0.1949  0.3840
19979TIP3    H181428   2.970   1.428  15.283  0.1905  1.9689 -1.0391
19979TIP3    H281429   2.820   1.412  15.282  0.2886  0.7336  1.5425
19980TIP3   OH281430   0.845   6.054   0.057 -0.4132  0.4567 -0.2730
19980TIP3    H181431   0.936   6.057   0.086 -0.4327 -0.1211 -0.1386
19980TIP3    H281432   0.803   5.991   0.116 -0.4466 -0.7713 -1.5850
19981TIP3   OH281433   3.836   1.093   0.397 -0.7833  0.0445  0.2454
19981TIP3    H181434   3.787   1.016   0.425 -1.3042  0.0634 -0.5923
19981TIP3    H281435   3.914   1.058   0.354 -1.6826 -0.0548 -1.3433
19982TIP3   OH281436   6.116   6.798   5.170 -0.0479  0.4908 -0.1105
19982TIP3    H181437   6.129   6.704   5.158 -1.2695  0.7348 -3.8466
19982TIP3    H281438   6.140   6.813   5.262 -0.1772 -3.4990  0.6970
19983TIP3   OH281439   3.733   4.741  13.204 -0.6052  0.4776  0.1733
19983TIP3    H181440   3.729   4.674  13.137 -2.6247  0.4739  0.2563
19983TIP3    H281441   3.710   4.696  13.285  0.3316  0.7938  0.6247
19984TIP3   OH281442   4.591   3.422  12.918 -0.1947 -0.4041  0.0377
19984TIP3    H181443   4.681   3.391  12.927 -0.4042 -0.5032  1.9371
19984TIP3    H281444   4.559   3.429  13.008 -2.0845 -0.3843 -0.6166
19985TIP3   OH281445   2.093   5.192   5.740 -0.1681 -0.0070 -0.1967
19985TIP3    H181446   2.157   5.131   5.702 -1.0499  0.3453 -2.3622
19985TIP3    H281447   2.056   5.237   5.664  0.2824  3.0966  1.3381
19986TIP3   OH281448   2.938   3.759   5.679  0.0177  0.0814  0.4552
19986TIP3    H181449   2.953   3.803   5.595  1.6428 -0.6377  0.3497
19986TIP3    H281450   2.998   3.801   5.740  1.5338 -1.8878  0.3759
19987TIP3   OH281451   3.941   4.756   5.939  0.3184  0.1760 -0.0156
19987TIP3    H181452   3.960   4.662   5.940  0.0848  0.1200 -0.5457
19987TIP3    H281453   3.879   4.767   5.867  0.1892  0.7095  0.1715
19988TIP3   OH281454   0.009   4.448  13.300  0.7153  0.4852  0.3705
19988TIP3    H181455  -0.006   4.537  13.332 -1.4017  0.9761 -1.8381
19988TIP3    H281456  -0.034   4.392  13.365 -0.2842  1.2327  0.3636
19989TIP3   OH281457   6.631   0.200   2.982  0.3495 -0.0258  0.0534
19989TIP3    H181458   6.671   0.118   2.954 -0.1976  0.2273 -1.5348
19989TIP3    H281459   6.540   0.193   2.954  0.1472  0.8824  0.4453
19990TIP3   OH281460   3.683   6.584  16.899 -0.2772 -0.7083 -0.0630
19990TIP3    H181461   3.714   6.496  16.920  1.0904 -0.8289 -2.4051
19990TIP3    H281462   3.591   6.584  16.924  0.2309 -2.1211  1.9060
19991TIP3   OH281463   5.791   6.273   3.058  0.2621  0.2208 -0.0441
19991TIP3    H181464   5.809   6.290   3.151 -2.9126  0.8092  0.5240
19991TIP3    H281465   5.739   6.193   3.058  1.8837 -0.8497 -1.5016
19992TIP3   OH281466   2.770   3.939   1.982  0.3497  0.3991 -0.0250
19992TIP3    H181467   2.741   4.026   2.011 -0.5006 -0.3249  1.3164
19992TIP3    H281468   2.803   3.897   2.061 -0.6328 -1.0443 -0.3747
19993TIP3   OH281469   4.382   4.627   5.332  0.8293 -0.1172 -0.1164
19993TIP3    H181470   4.330   4.594   5.405 -0.6337 -0.1868 -1.1591
19993TIP3    H281471   4.451   4.679   5.373 -0.6147  0.7394  1.2783
19994TIP3   OH281472   4.172   3.477  13.052 -0.0669  0.1994 -0.3320
19994TIP3    H181473   4.077   3.478  13.041 -0.0865  2.1404 -0.1540
19994TIP3    H281474   4.185   3.445  13.141 -0.5358 -0.4570 -0.4991
19995TIP3   OH281475   4.124   2.803   1.527  0.0336  0.0824  0.7253
19995TIP3    H181476   4.055   2.754   1.482 -0.2521  0.1298  1.1053
19995TIP3    H281477   4.131   2.885   1.478 -0.4730  0.2536  0.9266
19996TIP3   OH281478   4.835   4.127  10.849 -0.4961 -0.3936  0.1847
19996TIP3    H181479   4.828   4.125  10.753  1.1178 -0.1873  0.0549
19996TIP3    H281480   4.890   4.052  10.870  3.2971  2.3484  0.5464
19997TIP3   OH281481   4.301   2.879   3.510 -0.2432  0.7811  0.2008
19997TIP3    H181482   4.263   2.843   3.590  0.5846 -0.3417  0.0997
19997TIP3    H281483   4.238   2.856   3.442 -1.1994  2.1731  0.5786
19998TIP3   OH281484   5.544   2.631  16.012 -0.6080 -0.3837 -0.4150
19998TIP3    H181485   5.627   2.588  15.992 -0.0294 -0.4114  1.9431
19998TIP3    H281486   5.569   2.714  16.053 -1.7402 -0.5027  0.5351
19999TIP3   OH281487   1.976   6.003  13.965 -0.2457 -0.0238 -0.0588
19999TIP3    H181488   2.063   6.005  13.925  0.5748  0.2386  1.6592
19999TIP3    H281489   1.989   5.955  14.047 -1.3320  1.5147  1.0525
20000TIP3   OH281490   3.091   0.393   4.329 -0.0927 -0.1204  0.3486
20000TIP3    H181491   3.048   0.308   4.340 -0.4694 -0.1415 -1.0697
20000TIP3    H281492   3.071   0.418   4.238  3.4081 -0.4263 -0.5782
20001TIP3   OH281493   6.388   4.361  15.660  0.0154  0.1259 -0.1841
20001TIP3    H181494   6.347   4.274  15.661 -0.6664  0.4479 -0.0122
20001TIP3    H281495   6.336   4.411  15.598  1.7935 -0.2406 -2.0554
20002TIP3   OH281496   6.478   4.234  15.422 -0.3033 -0.2545  0.4772
20002TIP3    H181497   6.480   4.309  15.481 -1.0086  0.1284  0.0212
20002TIP3    H281498   6.460   4.159  15.479 -0.0384 -0.0205  0.8700
20003TIP3   OH281499   0.758   1.744  11.404 -0.1530  0.4942  0.4903
20003TIP3    H181500   0.753   1.708  11.315 -0.3247  0.9468  0.3157
20003TIP3    H281501   0.845   1.719  11.435 -0.7730 -1.2725  0.8836
20004TIP3   OH281502   2.785   4.977  10.422  0.3364  0.9540  0.3869
20004TIP3    H181503   2.698   4.956  10.454 -0.0889  0.0261 -1.3030
20004TIP3    H281504   2.836   4.897  10.434  0.4099  0.8713 -0.4078
20005TIP3   OH281505   1.733   2.551   4.736 -0.3047  0.0864 -0.0713
20005TIP3    H181506   1.656   2.575   4.684 -1.2072  1.6238  1.8992
20005TIP3    H281507   1.698   2.536   4.824  1.4228 -0.9277  0.4495
20006TIP3   OH281508   6.488   1.499   3.683  0.0076  0.1937 -0.3530
20006TIP3    H181509   6.543   1.436   3.637 -0.0070  0.2539 -0.4517
20006TIP3    H281510   6.419   1.445   3.723 -0.2462  0.1949 -0.7878
20007TIP3   OH281511   4.889   5.439  15.222  0.0792 -0.2364  0.2054
20007TIP3    H181512   4.945   5.372  15.262  1.2751  0.3146 -0.5253
20007TIP3    H281513   4.930   5.522  15.245 -0.3076  0.1671 -0.5426
20008TIP3   OH281514   5.667   5.166   1.941  0.0511  0.4265  0.2684
20008TIP3    H181515   5.596   5.123   1.893  1.6801 -2.3509  0.2319
20008TIP3    H281516   5.747   5.129   1.904  1.4231  0.5757  2.9654
20009TIP3   OH281517   4.425   0.039  11.221  0.3897 -0.0928  0.7090
20009TIP3    H181518   4.453   0.059  11.131 -1.7433 -0.2131 -0.0177
20009TIP3    H281519   4.490  -0.022  11.254  2.7658  2.0981  0.2389
20010TIP3   OH281520   6.174   3.115   3.793 -0.5153 -0.0314 -0.1426
20010TIP3    H181521   6.179   3.164   3.875 -0.6198  0.4164 -0.3991
20010TIP3    H281522   6.103   3.053   3.806 -0.9773  0.4995 -0.1364
20011TIP3   OH281523   0.553   0.007  14.139  0.0138  0.8705  0.1400
20011TIP3    H181524   0.475  -0.043  14.161 -0.3172  0.3909 -2.0692
20011TIP3    H281525   0.519   0.086  14.096  0.7415  0.7946 -0.5665
20012TIP3   OH281526   6.673   3.320   3.288  0.1496 -0.6404 -0.5684
20012TIP3    H181527   6.579   3.337   3.286  0.2751  0.1609  0.3130
20012TIP3    H281528   6.680   3.224   3.289 -0.7243 -0.7049  2.2844
20013TIP3   OH281529   5.296   5.965  14.207  0.2197 -0.3899 -0.6534
20013TIP3    H181530   5.202   5.956  14.192  0.2030 -0.6359 -0.4062
20013TIP3    H281531   5.323   5.879  14.240 -0.0692  0.6755  2.5174
20014TIP3   OH281532   6.203   5.059  11.818  0.2797 -0.2391  0.2083
20014TIP3    H181533   6.291   5.060  11.781  0.7449  0.1722  1.3001
20014TIP3    H281534   6.162   5.139  11.785  0.2980 -0.4553 -0.3403
20015TIP3   OH281535   3.588   4.396  14.037  0.5652 -0.3355 -0.9106
20015TIP3    H181536   3.512   4.409  14.093  1.4835  2.4751 -0.2236
20015TIP3    H281537   3.633   4.320  14.074  0.1081  0.2880  0.9526
20016TIP3   OH281538   4.546   1.832  15.995  0.0471 -0.1476 -0.3652
20016TIP3    H181539   4.521   1.761  16.054  0.4894 -0.7571 -0.8958
20016TIP3    H281540   4.487   1.822  15.920 -1.1800  1.2370  0.4077
20017TIP3   OH281541   0.650   1.414   1.771 -0.0209  0.0016  0.0731
20017TIP3    H181542   0.730   1.446   1.814  0.0120  1.1303 -0.7899
20017TIP3    H281543   0.654   1.450   1.682 -1.9637  0.9302  0.3136
20018TIP3   OH281544   0.405   4.614   4.418  0.1277 -0.0632 -0.0404
20018TIP3    H181545   0.479   4.575   4.371 -2.4890 -2.1304 -2.5717
20018TIP3    H281546   0.371   4.682   4.360  0.3696  1.3421  1.4003
20019TIP3   OH281547   4.413   2.500   3.661 -0.4404 -0.3512 -0.2752
20019TIP3    H181548   4.491   2.520   3.610 -1.5486 -0.3661 -2.0216
20019TIP3    H281549   4.355   2.574   3.645 -1.0976 -0.7212  0.3752
20020TIP3   OH281550   2.935   3.597   0.352 -0.0261 -0.3336  0.1545
20020TIP3    H181551   2.869   3.608   0.421  0.0381 -0.1812  0.1914
20020TIP3    H281552   2.955   3.503   0.353 -1.3163 -0.6317 -0.8431
20021TIP3   OH281553   1.881   4.301   3.911 -0.7931  0.2788  0.3862
20021TIP3    H181554   1.972   4.323   3.889 -0.4654  0.2122  1.6245
20021TIP3    H281555   1.849   4.254   3.835  0.1898  0.3785 -0.1008
20022TIP3   OH281556   2.624   5.836  13.581 -0.1637  0.2741 -0.1612
20022TIP3    H181557   2.683   5.789  13.523 -1.1456  0.7266 -1.5647
20022TIP3    H281558   2.567   5.769  13.618  1.1498 -0.1548  1.1562
20023TIP3   OH281559   3.995   1.744  16.777 -0.1160  0.2315  0.1887
20023TIP3    H181560   3.917   1.701  16.741 -0.7097  0.1687  1.5114
20023TIP3    H281561   4.026   1.800  16.706  0.0871 -1.6222 -1.2135
20024TIP3   OH281562   3.204   2.514  16.951  0.0065 -0.2433  0.1439
20024TIP3    H181563   3.123   2.467  16.970 -0.5218 -0.8180 -3.1490
20024TIP3    H281564   3.175   2.598  16.916  0.8350 -0.1220 -0.2548
20025TIP3   OH281565   4.412   3.411   3.995  0.4631 -0.7172 -0.2539
20025TIP3    H181566   4.503   3.397   3.966  0.7952  0.4622  0.1821
20025TIP3    H281567   4.415   3.494   4.042 -1.1919  0.2263 -1.7594
20026TIP3   OH281568   2.456   5.995   5.174  0.7389  0.0336  0.5225
20026TIP3    H181569   2.452   6.091   5.167 -1.8119 -0.0401  0.6722
20026TIP3    H281570   2.489   5.979   5.263 -1.8045  0.7925  1.6492
20027TIP3   OH281571   6.011   5.127  15.010  0.2856  0.0249  0.2416
20027TIP3    H181572   6.031   5.200  14.952  0.3622 -0.6543 -0.6102
20027TIP3    H281573   6.010   5.051  14.952 -3.6327 -0.1338  0.3882
20028TIP3   OH281574   5.635   5.356  16.925  0.4030 -0.0876 -0.6877
20028TIP3    H181575   5.606   5.433  16.974 -0.0819 -0.4599 -0.3812
20028TIP3    H281576   5.629   5.284  16.988 -1.3434 -0.7847 -1.6113
20029TIP3   OH281577   2.436   5.940  12.189  0.1909  0.0464 -0.0542
20029TIP3    H181578   2.354   5.964  12.147  0.6763 -1.1437 -1.7183
20029TIP3    H281579   2.486   5.896  12.121  0.9877 -1.9212  1.7413
20030TIP3   OH281580   1.523   2.112   1.535  0.3638  0.6165 -0.2886
20030TIP3    H181581   1.446   2.160   1.503  0.3028  1.9754  1.7654
20030TIP3    H281582   1.505   2.020   1.515 -2.3825  0.7660  1.2305
20031TIP3   OH281583   3.368   3.234  15.779 -0.1196 -0.1330 -0.0286
20031TIP3    H181584   3.321   3.177  15.718 -0.1718  0.1911 -0.2996
20031TIP3    H281585   3.457   3.198  15.782 -0.2943 -0.5395  0.2116
20032TIP3   OH281586   4.452   3.329  11.756  0.4125  0.5613 -0.9314
20032TIP3    H181587   4.499   3.353  11.836 -0.8565 -0.7529  0.2363
20032TIP3    H281588   4.374   3.384  11.756 -0.2745 -0.3781 -0.5246
20033TIP3   OH281589   2.271   0.527   4.061  0.1777 -0.4602  0.0994
20033TIP3    H181590   2.233   0.576   3.987  0.3976  1.1590  1.0428
20033TIP3    H281591   2.313   0.451   4.020 -3.5065 -2.0045 -1.0615
20034TIP3   OH281592   3.413   6.100   3.886 -0.1317  0.4071  0.0335
20034TIP3    H181593   3.425   6.105   3.791 -1.1946  1.8878 -0.0267
20034TIP3    H281594   3.372   6.015   3.901  2.5792 -1.0670 -0.5538
20035TIP3   OH281595   5.404   5.201   6.420  0.2678 -0.0511 -0.5213
20035TIP3    H181596   5.336   5.164   6.476  0.1860  0.3300 -0.3663
20035TIP3    H281597   5.388   5.295   6.423  0.5568  0.0068 -0.8060
20036TIP3   OH281598   3.516   2.909   1.818  0.6982  0.1546 -0.4754
20036TIP3    H181599   3.606   2.898   1.850  0.5482 -2.3419 -0.7696
20036TIP3    H281600   3.527   2.935   1.726  1.1717 -1.5583 -0.9401
20037TIP3   OH281601   6.272   3.230  14.873  0.0935  0.2671  0.4172
20037TIP3    H181602   6.306   3.140  14.874  0.1328  0.2413 -1.2284
20037TIP3    H281603   6.349   3.284  14.855 -0.4671  0.2982 -2.1879
20038TIP3   OH281604   1.724   4.072  16.173 -0.0318  0.9772  0.2075
20038TIP3    H181605   1.661   4.000  16.166 -0.8399  1.7495 -0.4917
20038TIP3    H281606   1.775   4.067  16.093 -0.0853  1.1832  0.1607
20039TIP3   OH281607   3.247   1.884  12.677  0.0656  0.9113  0.0633
20039TIP3    H181608   3.314   1.933  12.629 -0.8939  0.5722 -1.6715
20039TIP3    H281609   3.190   1.951  12.716  0.0186  1.1882 -0.4837
20040TIP3   OH281610   3.693   0.030   4.498  0.4055  0.2100  0.2668
20040TIP3    H181611   3.655   0.061   4.416 -0.1302 -1.2672 -0.0511
20040TIP3    H281612   3.754   0.100   4.523 -1.8360  2.2070  0.3486
20041TIP3   OH281613   2.060   6.320  16.585  0.0952  0.2082  0.0041
20041TIP3    H181614   2.099   6.406  16.569 -0.3211  0.3148 -0.4521
20041TIP3    H281615   1.988   6.314  16.521 -0.3257 -0.1834  0.5110
20042TIP3   OH281616   3.308   2.724   0.449  0.4397 -0.4537 -0.2415
20042TIP3    H181617   3.298   2.747   0.357 -1.6559  0.1101  0.0947
20042TIP3    H281618   3.252   2.787   0.496 -1.1850 -2.8364  1.1178
20043TIP3   OH281619   5.970   1.682  11.726  0.3982 -0.5386  0.0765
20043TIP3    H181620   5.965   1.752  11.662  0.9442  1.2298  1.9123
20043TIP3    H281621   6.045   1.630  11.699  0.3994 -0.0345 -0.9139
20044TIP3   OH281622   6.248   1.540  10.686 -0.2010 -0.1530  0.1708
20044TIP3    H181623   6.153   1.543  10.671  0.0438  2.3849 -1.1967
20044TIP3    H281624   6.269   1.627  10.721  1.6704 -0.6136  0.2376
20045TIP3   OH281625   3.722   4.023   6.421 -0.1641  0.3267  0.4088
20045TIP3    H181626   3.814   3.997   6.418 -0.1396  0.4476  0.0844
20045TIP3    H281627   3.723   4.117   6.403 -0.5372 -0.0770 -1.9750
20046TIP3   OH281628   5.435   3.671   1.130  0.4327 -0.1609 -1.0169
20046TIP3    H181629   5.411   3.764   1.134 -1.5606 -0.6754 -0.9580
20046TIP3    H281630   5.511   3.669   1.071  1.0846  1.6055 -0.2748
20047TIP3   OH281631   1.366   4.419   3.628 -0.1552  0.4451  0.7235
20047TIP3    H181632   1.451   4.392   3.663  0.6838  1.3768 -0.5604
20047TIP3    H281633   1.324   4.338   3.600  2.1167  0.3556 -2.6087
20048TIP3   OH281634   0.456   2.352   0.825 -0.6029  0.3996 -0.0238
20048TIP3    H181635   0.382   2.395   0.868 -0.2174  0.2725  0.7879
20048TIP3    H281636   0.420   2.271   0.790 -0.4296 -0.6608  2.1481
20049TIP3   OH281637   2.823   2.916  12.112  0.1657 -0.1426  0.4454
20049TIP3    H181638   2.770   2.837  12.096  0.3382  0.0045 -0.8518
20049TIP3    H281639   2.790   2.949  12.196 -1.8749  0.0025 -0.3710
20050TIP3   OH281640   0.278   0.874  16.654 -0.5154  0.1513  0.3523
20050TIP3    H181641   0.195   0.876  16.606 -0.6914  0.5355  0.6668
20050TIP3    H281642   0.331   0.810  16.608 -0.8519  0.1836 -0.0776
20051TIP3   OH281643   6.032   6.373  13.825 -0.6045 -0.3719 -0.2520
20051TIP3    H181644   6.059   6.338  13.740  1.0741 -1.9546  0.8823
20051TIP3    H281645   6.097   6.338  13.887 -2.4188 -0.1443  1.8415
20052TIP3   OH281646   4.138   4.923  13.531  0.7369 -0.2575 -0.2242
20052TIP3    H181647   4.135   4.990  13.600 -0.2618 -0.8569  0.3338
20052TIP3    H281648   4.086   4.961  13.460  1.4424  0.1963 -0.5071
20053TIP3   OH281649   4.303   6.236  11.032  0.1772 -0.1114 -0.4727
20053TIP3    H181650   4.274   6.290  10.958 -1.0949 -0.5080 -0.2692
20053TIP3    H281651   4.254   6.268  11.107 -0.2289 -1.2102 -0.2520
20054TIP3   OH281652   1.872   1.309   5.970 -0.4091  0.4142 -0.4524
20054TIP3    H181653   1.784   1.279   5.990 -0.8983  1.8001 -0.4798
20054TIP3    H281654   1.882   1.390   6.021  1.9481 -1.3348  1.9702
20055TIP3   OH281655   0.522   4.887   4.367  0.5187 -0.0084  0.3376
20055TIP3    H181656   0.563   4.972   4.351 -1.3238  1.5047  3.1814
20055TIP3    H281657   0.577   4.846   4.434 -1.0486  0.9225  2.2589
20056TIP3   OH281658   5.859   4.734  16.798 -0.3160  0.6565 -0.1574
20056TIP3    H181659   5.786   4.764  16.852  0.2315 -0.0623  0.9814
20056TIP3    H281660   5.825   4.737  16.709 -1.6675  0.5532  0.3461
20057TIP3   OH281661   4.880   1.329  10.959 -0.3656 -0.4748 -0.3287
20057TIP3    H181662   4.820   1.364  10.892 -0.6553 -1.4317 -0.5866
20057TIP3    H281663   4.946   1.397  10.970 -0.7266  0.0079 -1.0644
20058TIP3   OH281664   4.142   1.133  14.407  0.3700  0.1890  0.0718
20058TIP3    H181665   4.159   1.046  14.442 -0.5138  0.7293  1.8698
20058TIP3    H281666   4.075   1.119  14.340  0.4955 -0.5492  0.0892
20059TIP3   OH281667   6.539   6.555   0.193 -0.1645  0.0609  0.3408
20059TIP3    H181668   6.447   6.561   0.168 -0.1482 -3.5342 -0.7584
20059TIP3    H281669   6.538   6.526   0.284 -0.0964 -0.2098  0.2542
20060TIP3   OH281670   0.639   0.251  14.355  0.1547  0.2301  0.2414
20060TIP3    H181671   0.648   0.282  14.265  1.2194 -0.2451  0.1807
20060TIP3    H281672   0.659   0.158  14.351 -2.4374 -0.3831  0.5352
20061TIP3   OH281673   5.780   3.458  11.215 -0.2444 -0.3940 -0.2896
20061TIP3    H181674   5.821   3.381  11.254  0.8380  0.4765  0.3379
20061TIP3    H281675   5.813   3.460  11.125  0.1062 -0.4034 -0.1636
20062TIP3   OH281676   2.406   5.379   5.320 -0.6809 -0.7500 -0.0389
20062TIP3    H181677   2.498   5.399   5.302 -1.3008  1.6818 -0.7887
20062TIP3    H281678   2.385   5.431   5.398 -0.8913 -2.8931  1.3616
20063TIP3   OH281679   0.660   5.061   2.492 -0.0321  0.2685 -0.1524
20063TIP3    H181680   0.702   5.005   2.427  1.3414  1.1895 -0.0943
20063TIP3    H281681   0.607   5.122   2.440 -0.7738 -0.4736 -0.2684
20064TIP3   OH281682   2.803   1.776   6.514 -0.5363 -0.2248  0.3296
20064TIP3    H181683   2.895   1.772   6.542 -0.3346 -0.9138 -0.3983
20064TIP3    H281684   2.762   1.838   6.574  0.6704  0.9791 -0.0470
20065TIP3   OH281685   0.612   0.605   4.559 -0.5063 -0.2016 -0.2873
20065TIP3    H181686   0.552   0.532   4.545 -0.1695 -0.3344 -1.0580
20065TIP3    H281687   0.561   0.669   4.609 -1.6367  0.1361 -1.8200
20066TIP3   OH281688   5.909   5.460   2.908 -0.1908 -0.2752  0.2810
20066TIP3    H181689   5.919   5.531   2.971 -0.6328  1.1205 -1.1777
20066TIP3    H281690   5.903   5.504   2.823  3.5957 -2.2128 -1.1339
20067TIP3   OH281691   1.308   0.430   4.620 -0.3521 -0.2875 -0.4394
20067TIP3    H181692   1.332   0.360   4.559  1.1538  0.0472 -0.2394
20067TIP3    H281693   1.365   0.417   4.695 -1.3127  0.0895  0.3677
20068TIP3   OH281694   0.143   6.330   1.354 -0.6732 -0.0895  0.0519
20068TIP3    H181695   0.056   6.344   1.392 -0.6041 -1.4259  0.7439
20068TIP3    H281696   0.149   6.392   1.282 -2.2858 -0.1358 -0.1286
20069TIP3   OH281697   4.911   5.779  11.490 -0.0223  0.8016  0.5381
20069TIP3    H181698   4.961   5.860  11.483  0.9367  0.1980  0.3790
20069TIP3    H281699   4.970   5.717  11.533 -0.6618  0.1128  0.4374
20070TIP3   OH281700   0.838   0.599   4.971  0.2544 -0.1113  0.1320
20070TIP3    H181701   0.836   0.549   5.053  0.1570 -0.1014  0.1353
20070TIP3    H281702   0.919   0.650   4.976  0.4524 -0.4139  0.0429
20071TIP3   OH281703   0.609   6.118  15.541  0.8918  0.1841 -0.2248
20071TIP3    H181704   0.683   6.148  15.594  0.5999 -1.3580  1.0609
20071TIP3    H281705   0.619   6.023  15.536 -1.6746 -0.2126  1.0426
20072TIP3   OH281706   2.463   2.169  14.161 -0.7199  0.1604 -0.0264
20072TIP3    H181707   2.525   2.097  14.146 -1.4528 -0.3767 -0.4787
20072TIP3    H281708   2.377   2.127  14.160 -1.0594  0.8250  1.1353
20073TIP3   OH281709   2.416   0.755   0.746 -0.4071 -0.4412  0.2528
20073TIP3    H181710   2.456   0.773   0.662 -0.1298  1.5787  0.8120
20073TIP3    H281711   2.482   0.780   0.811 -0.7068 -1.7489  1.0856
20074TIP3   OH281712   6.109   6.371   4.391 -0.2152  1.1461 -0.2705
20074TIP3    H181713   6.046   6.334   4.453  0.2372  2.9789  1.3096
20074TIP3    H281714   6.093   6.466   4.394  1.5293  1.4815 -1.0733
20075TIP3   OH281715   0.447   1.448   5.567  0.1696 -0.1169 -0.1372
20075TIP3    H181716   0.432   1.446   5.661  0.0913 -2.7153 -0.1584
20075TIP3    H281717   0.363   1.474   5.529  0.7289  2.8596  0.5680
20076TIP3   OH281718   3.991   0.552   2.592 -0.9488 -0.4175  0.0431
20076TIP3    H181719   4.042   0.620   2.637  0.2018 -1.6330  0.6112
20076TIP3    H281720   4.056   0.503   2.541 -1.4439 -2.3528  1.2313
20077TIP3   OH281721   1.962   2.995   3.343 -0.2585 -0.7693  0.0844
20077TIP3    H181722   2.053   2.990   3.313 -0.0240 -2.3685  1.0115
20077TIP3    H281723   1.969   3.007   3.437 -1.0001 -1.9963  0.3065
20078TIP3   OH281724   3.910   3.766  16.632  0.0956  0.2270 -0.4792
20078TIP3    H181725   3.993   3.721  16.616  0.8385  1.8890 -1.4590
20078TIP3    H281726   3.919   3.850  16.587 -1.1524  1.4649  1.4913
20079TIP3   OH281727   3.520   2.744   2.134 -0.2548  0.6739 -0.7884
20079TIP3    H181728   3.510   2.682   2.205  0.9649 -0.2915 -1.4316
20079TIP3    H281729   3.529   2.829   2.177  0.2431  0.1261  0.2047
20080TIP3   OH281730   5.387   5.712   5.640 -0.0070  0.0707  0.1239
20080TIP3    H181731   5.313   5.724   5.700 -0.0963 -1.2538  0.2912
20080TIP3    H281732   5.347   5.692   5.556  0.1620 -0.0816  0.0797
20081TIP3   OH281733   3.703   0.025  14.712  0.0403  0.2886  0.0232
20081TIP3    H181734   3.661   0.061  14.635 -0.3174 -1.8256 -0.8082
20081TIP3    H281735   3.637  -0.033  14.751  1.1199 -0.7274  0.3933
20082TIP3   OH281736   1.182   3.634   5.129  0.0600  0.3175  0.1525
20082TIP3    H181737   1.246   3.563   5.126 -0.3418 -0.0150 -0.6352
20082TIP3    H281738   1.159   3.649   5.038  1.8846  3.0548  0.0824
20083TIP3   OH281739   6.608   4.344   3.045  0.3752 -0.4893  0.2330
20083TIP3    H181740   6.666   4.271   3.067 -1.0948 -1.3909  1.2033
20083TIP3    H281741   6.533   4.303   3.002  0.0664  0.5745 -0.2556
20084TIP3   OH281742   3.120   2.344   4.795 -0.3229  0.4198 -0.1763
20084TIP3    H181743   3.040   2.313   4.838 -0.8561  0.5914 -1.0372
20084TIP3    H281744   3.095   2.359   4.704  0.8766 -0.2441 -0.6363
20085TIP3   OH281745   2.569   2.840  12.614 -0.2504 -0.0080  0.3087
20085TIP3    H181746   2.479   2.842  12.647 -0.2181 -0.3746  0.4190
20085TIP3    H281747   2.611   2.915  12.656 -0.8961  1.0520 -0.8905
20086TIP3   OH281748   1.895   5.339   4.301 -0.0462 -0.6024 -0.0750
20086TIP3    H181749   1.878   5.329   4.395  2.2112 -0.2520  0.3998
20086TIP3    H281750   1.968   5.281   4.283 -0.1236 -0.2748 -1.5270
20087TIP3   OH281751   5.686   1.622   4.186  0.4225 -0.2569  0.6424
20087TIP3    H181752   5.660   1.559   4.119  0.2836  0.5272 -0.0460
20087TIP3    H281753   5.755   1.577   4.236 -0.1511 -1.2077  0.5900
20088TIP3   OH281754   1.753   0.943  14.059 -0.1541  0.4308 -0.4404
20088TIP3    H181755   1.784   1.015  14.114  0.3336 -1.2703  1.5813
20088TIP3    H281756   1.660   0.958  14.048 -0.0840  1.2786  0.1196
20089TIP3   OH281757   3.796   1.547  15.673 -0.1961  0.3685  0.5576
20089TIP3    H181758   3.786   1.512  15.762  1.1135  0.5278  0.7744
20089TIP3    H281759   3.719   1.603  15.661 -0.8949 -0.4310  1.2157
20090TIP3   OH281760   4.313   1.526  10.927  0.4916 -0.1212  0.0427
20090TIP3    H181761   4.380   1.552  10.864 -1.2754  1.1039 -1.4134
20090TIP3    H281762   4.257   1.465  10.878  0.9117 -1.6783  1.4457
20091TIP3   OH281763   6.349   3.067  11.469  0.5166 -0.1341 -0.1243
20091TIP3    H181764   6.414   3.132  11.444 -0.1124  0.9913  1.1023
20091TIP3    H281765   6.313   3.099  11.552 -2.0896 -0.3688 -1.1062
20092TIP3   OH281766   6.642   3.920   5.098 -0.4859 -0.3685  0.1604
20092TIP3    H181767   6.730   3.954   5.117 -0.6400 -0.6677  1.5191
20092TIP3    H281768   6.595   3.930   5.181 -2.0016  0.5875 -0.7991
20093TIP3   OH281769   6.492   5.334  16.808  0.2145  0.3430  0.0023
20093TIP3    H181770   6.468   5.416  16.765  0.5024  0.4265  0.0016
20093TIP3    H281771   6.514   5.360  16.898  2.0798  0.5330 -0.4815
20094TIP3   OH281772   3.172   3.836  14.099 -0.2903  0.2361  0.2731
20094TIP3    H181773   3.262   3.854  14.074 -1.1581  1.9372 -1.7860
20094TIP3    H281774   3.140   3.919  14.135 -0.8178 -0.5820  1.7434
20095TIP3   OH281775   0.307   2.560   3.233  0.3927 -0.4471 -0.1004
20095TIP3    H181776   0.242   2.490   3.240  0.4360 -0.4372  0.4443
20095TIP3    H281777   0.262   2.630   3.185 -0.7664  0.4397  2.2016
20096TIP3   OH281778   5.734   3.758  13.218  0.1883 -0.3412  0.2834
20096TIP3    H181779   5.806   3.808  13.181  1.4374 -1.1299  1.6163
20096TIP3    H281780   5.764   3.731  13.305 -1.2883 -1.5774  0.4501
20097TIP3   OH281781   0.348   1.660   2.355 -0.0510 -0.3545 -0.1939
20097TIP3    H181782   0.277   1.721   2.373 -0.5262 -1.0588  0.3792
20097TIP3    H281783   0.421   1.715   2.328 -0.1669  0.5436  1.2725
20098TIP3   OH281784   3.210   1.082  11.062  1.2133 -0.5690  0.0451
20098TIP3    H181785   3.224   0.988  11.059 -0.5386 -0.7686 -3.5831
20098TIP3    H281786   3.278   1.119  11.005  0.9379  0.2555  0.2427
20099TIP3   OH281787   4.254   1.213   4.935  0.5081 -0.1118  0.2762
20099TIP3    H181788   4.210   1.177   5.012  0.9034  0.7516  0.9206
20099TIP3    H281789   4.247   1.308   4.946  0.8186  0.0204 -0.6119
20100TIP3   OH281790   3.268   0.691   4.160  0.6646 -0.3212 -0.3207
20100TIP3    H181791   3.270   0.667   4.067 -0.8088  1.4329 -0.8332
20100TIP3    H281792   3.201   0.635   4.198 -1.6819  1.7645 -1.2047
20101TIP3   OH281793   4.544   0.446   4.314  0.1919  0.2865  0.0584
20101TIP3    H181794   4.599   0.378   4.354 -1.3856 -0.9845  0.1334
20101TIP3    H281795   4.582   0.459   4.227  1.6855  0.7365  0.7569
20102TIP3   OH281796   2.768   6.127   3.727 -0.4174  0.2011 -0.4007
20102TIP3    H181797   2.830   6.197   3.708 -0.7318 -0.0196 -2.3707
20102TIP3    H281798   2.738   6.145   3.816  1.6317  0.9312  0.1709
20103TIP3   OH281799   0.698   4.311  13.017  0.2381 -0.3612 -0.4753
20103TIP3    H181800   0.722   4.401  12.993  0.8077  0.3900  2.7243
20103TIP3    H281801   0.668   4.318  13.107  1.4011 -3.5724  0.2137
20104TIP3   OH281802   2.423   0.918   4.100  0.4660  0.2011 -0.3150
20104TIP3    H181803   2.479   0.973   4.044  1.4014  2.2641  2.5553
20104TIP3    H281804   2.483   0.883   4.166 -0.4832 -2.8351 -1.0226
20105TIP3   OH281805   4.963   2.889   4.332 -0.0340 -0.2492 -0.5079
20105TIP3    H181806   5.007   2.897   4.247  0.1580 -0.8088 -0.4611
20105TIP3    H281807   5.028   2.847   4.389  0.5290  1.7953  0.4225
20106TIP3   OH281808   0.410   5.468  16.763  0.1420 -0.5146  0.3940
20106TIP3    H181809   0.433   5.399  16.826  0.4551 -0.2918  0.5316
20106TIP3    H281810   0.315   5.477  16.770  0.3489  0.6794  2.0911
20107TIP3   OH281811   4.839   2.724   0.639 -0.1280  0.1098  0.3763
20107TIP3    H181812   4.871   2.643   0.678  0.4921 -0.9157 -2.1724
20107TIP3    H281813   4.747   2.707   0.620  0.2682 -0.3875 -1.1300
20108TIP3   OH281814   2.593   2.236   5.838  0.2994 -0.4435 -0.2037
20108TIP3    H181815   2.673   2.183   5.847  0.2445 -0.6446 -0.8481
20108TIP3    H281816   2.610   2.315   5.889  0.9432 -0.4527 -0.3981
20109TIP3   OH281817   1.931   4.081   5.507 -0.5509  0.5430  0.2034
20109TIP3    H181818   1.955   4.014   5.571 -0.5752  0.1645 -0.1757
20109TIP3    H281819   2.001   4.146   5.512 -0.7411  0.7049  0.8725
20110TIP3   OH281820   5.363   4.244   3.754 -0.5143 -0.1020  0.1388
20110TIP3    H181821   5.306   4.301   3.702  0.0136  0.5860  0.3102
20110TIP3    H281822   5.415   4.304   3.807 -0.0193 -0.7501  0.3929
20111TIP3   OH281823   1.408   2.742   4.661  0.2011 -0.0937  0.1068
20111TIP3    H181824   1.419   2.654   4.625  1.3347  0.8350 -1.8942
20111TIP3    H281825   1.359   2.728   4.742  1.0292 -2.6436  0.2379
20112TIP3   OH281826   0.534   3.100   3.817  0.1507 -0.5780 -0.0452
20112TIP3    H181827   0.568   3.189   3.808  3.0314 -1.6024  0.2838
20112TIP3    H281828   0.569   3.070   3.901  0.5252 -2.5743 -0.9036
20113TIP3   OH281829   1.440   2.921  12.633 -0.2717 -0.3736  0.4289
20113TIP3    H181830   1.467   2.833  12.658  1.2029 -0.1042 -0.1596
20113TIP3    H281831   1.519   2.962  12.598 -0.8194  1.3600  1.1545
20114TIP3   OH281832   5.535   3.374   0.299 -0.3281  0.5997  0.3813
20114TIP3    H181833   5.528   3.321   0.220 -1.1380  0.3377  0.6253
20114TIP3    H281834   5.495   3.458   0.275 -0.6185  0.5036  0.5236
20115TIP3   OH281835   3.778   1.606  13.557  0.3379 -0.1187 -0.1993
20115TIP3    H181836   3.716   1.677  13.539  0.6487  0.4885  1.0621
20115TIP3    H281837   3.826   1.595  13.474 -1.8004 -0.9799 -1.3470
20116TIP3   OH281838   4.910   3.915   2.225  0.1596 -0.1336  1.3099
20116TIP3    H181839   4.918   4.006   2.196 -1.2051 -0.3204  0.2707
20116TIP3    H281840   4.897   3.921   2.320  1.0928  0.6933  1.3900
20117TIP3   OH281841   4.911   4.612  15.029 -0.7389  0.8118  0.4058
20117TIP3    H181842   4.998   4.648  15.045 -0.7839  0.3078  1.8634
20117TIP3    H281843   4.883   4.579  15.115 -1.0006 -1.9627 -0.7035
20118TIP3   OH281844   5.224   5.567  11.787  0.0060 -0.1965 -0.4242
20118TIP3    H181845   5.271   5.567  11.704 -3.6063 -0.5825 -2.6150
20118TIP3    H281846   5.219   5.474  11.811 -0.1252 -0.2047 -0.4840
20119TIP3   OH281847   3.857   0.352   2.994  0.5047 -0.0305  0.0966
20119TIP3    H181848   3.863   0.388   2.906 -0.3027 -1.4934 -0.5859
20119TIP3    H281849   3.864   0.257   2.982  0.5113 -0.2486  1.6172
20120TIP3   OH281850   4.370   2.336   5.379 -0.2776  0.6983 -0.2706
20120TIP3    H181851   4.408   2.260   5.424  1.6705  1.1974 -1.0289
20120TIP3    H281852   4.392   2.322   5.287 -2.0632  0.9539 -0.7566
20121TIP3   OH281853   0.786   2.838   0.817 -0.8533  0.3157  0.0362
20121TIP3    H181854   0.744   2.910   0.865 -1.0050  0.0190  0.3451
20121TIP3    H281855   0.834   2.882   0.747 -0.9163  0.7240  0.2453
20122TIP3   OH281856   4.090   5.804  12.218  0.3371 -0.3923  0.2395
20122TIP3    H181857   4.125   5.763  12.297 -1.6522  0.1949  1.4759
20122TIP3    H281858   4.133   5.759  12.146 -1.1342 -4.1184  1.5709
20123TIP3   OH281859   2.362   3.482   3.579  0.0814  0.0493 -0.1458
20123TIP3    H181860   2.383   3.519   3.665  1.3239 -0.0689 -0.3985
20123TIP3    H281861   2.342   3.558   3.525  0.4288  0.2042 -0.0579
20124TIP3   OH281862   6.477   2.300   1.108  0.2141  0.0447 -0.5601
20124TIP3    H181863   6.512   2.385   1.135  0.7475 -0.7549  1.3716
20124TIP3    H281864   6.546   2.237   1.128  0.2542 -0.7391 -3.0073
20125TIP3   OH281865   0.451   6.210   2.098  0.9603  0.2621  0.7167
20125TIP3    H181866   0.410   6.153   2.034  1.5416  2.2401 -1.4855
20125TIP3    H281867   0.394   6.205   2.175 -0.8460 -0.6174 -0.6501
20126TIP3   OH281868   1.226   4.399   0.961  0.4375 -0.1030 -0.5879
20126TIP3    H181869   1.197   4.490   0.960  0.6869 -0.0272 -1.1660
20126TIP3    H281870   1.181   4.360   1.036 -1.2121 -0.0072 -1.4994
20127TIP3   OH281871   2.159   5.675  13.781  0.4177 -0.2853  0.5491
20127TIP3    H181872   2.200   5.761  13.779  0.6610 -0.3910  0.9574
20127TIP3    H281873   2.211   5.623  13.719 -1.0804  0.4517 -1.3755
20128TIP3   OH281874   1.499   0.010  11.795  0.1463 -0.0459  0.5056
20128TIP3    H181875   1.453   0.094  11.788  1.4289  0.7981  1.8395
20128TIP3    H281876   1.471  -0.025  11.880  0.1286 -0.6555  0.2455
20129TIP3   OH281877   0.081   0.139  11.261 -0.2755 -0.2249 -0.6137
20129TIP3    H181878   0.133   0.059  11.269  0.3827  0.3918  1.7533
20129TIP3    H281879   0.117   0.183  11.184  2.9558  0.2869  1.0800
20130TIP3   OH281880   3.545   0.371  15.594  0.5953  0.3046  0.2464
20130TIP3    H181881   3.503   0.457  15.591  3.3511  1.7066  0.3995
20130TIP3    H281882   3.523   0.331  15.510  0.8007  1.9280 -0.6071
20131TIP3   OH281883   3.080   5.137   0.797 -0.3390  0.5859 -0.9369
20131TIP3    H181884   3.043   5.110   0.881  1.8030  1.0078  0.1763
20131TIP3    H281885   3.129   5.060   0.767  1.2059  1.3451 -0.4251
20132TIP3   OH281886   6.542   4.550  13.667 -0.2314  0.4780  0.3378
20132TIP3    H181887   6.466   4.494  13.684  0.6310 -0.4250  1.2978
20132TIP3    H281888   6.569   4.581  13.754  1.3826 -0.3757  0.1488
20133TIP3   OH281889   5.615   3.802  11.052  0.8243 -0.4500 -0.4253
20133TIP3    H181890   5.666   3.818  11.131  1.2304  1.4007 -1.0454
20133TIP3    H281891   5.671   3.746  10.998 -0.5520 -4.0293  1.6997
20134TIP3   OH281892   4.747   0.524  17.208  0.1968 -0.3604 -0.1868
20134TIP3    H181893   4.770   0.614  17.186 -0.0102 -0.5230 -1.0994
20134TIP3    H281894   4.774   0.514  17.299  0.5470  0.5099 -0.1856
20135TIP3   OH281895   0.228   4.135   2.109 -0.6873  0.2082 -0.3719
20135TIP3    H181896   0.275   4.189   2.045  0.5057 -1.6186 -1.0813
20135TIP3    H281897   0.210   4.194   2.181  2.1429  1.1479 -0.3582
20136TIP3   OH281898   0.646   2.580   1.805 -0.0957 -0.0469 -0.3593
20136TIP3    H181899   0.613   2.550   1.889  1.2106 -0.9633 -0.1591
20136TIP3    H281900   0.686   2.503   1.765  1.2491  0.8761 -0.8456
20137TIP3   OH281901   0.544   3.523  16.144  0.0894 -0.3887  0.3496
20137TIP3    H181902   0.634   3.516  16.114 -0.7055  1.4433 -2.6829
20137TIP3    H281903   0.492   3.475  16.079 -1.4654  1.8402 -0.1314
20138TIP3   OH281904   1.542   6.211  11.770 -0.0918  0.4757 -0.6312
20138TIP3    H181905   1.567   6.244  11.856  0.7122 -0.1725 -0.6081
20138TIP3    H281906   1.470   6.267  11.743 -2.2658 -1.0848  1.6850
20139TIP3   OH281907   1.872   5.635  10.786 -0.2069 -0.2642 -0.3030
20139TIP3    H181908   1.958   5.674  10.803 -0.9913  1.6575 -0.7017
20139TIP3    H281909   1.817   5.708  10.759 -2.2297 -1.3259  0.8406
20140TIP3   OH281910   1.582   5.973  12.506  0.3621  0.0621 -0.6958
20140TIP3    H181911   1.675   5.997  12.513  0.0978  0.8508  0.1471
20140TIP3    H281912   1.577   5.922  12.425  1.2153  1.5253 -1.6972
20141TIP3   OH281913   3.047   6.028  11.175 -0.3388  0.2564 -0.3619
20141TIP3    H181914   3.115   5.963  11.195 -0.5130  0.1298 -0.1782
20141TIP3    H281915   2.967   5.991  11.212 -0.9598 -0.6896 -2.5075
20142TIP3   OH281916   0.272   4.562   3.926  0.2183  0.3551 -0.4285
20142TIP3    H181917   0.349   4.618   3.934  0.1234  0.5481 -0.8539
20142TIP3    H281918   0.269   4.538   3.834  0.1387 -0.1839 -0.2852
20143TIP3   OH281919   6.297   6.554  16.790 -0.0447  0.6383  0.1693
20143TIP3    H181920   6.274   6.467  16.755  0.2298  0.6821 -0.1222
20143TIP3    H281921   6.366   6.536  16.853 -2.5927  0.1990  2.9775
20144TIP3   OH281922   4.332   4.867  10.944  0.2343 -0.9203 -1.0713
20144TIP3    H181923   4.384   4.858  11.024 -1.6396 -0.3970  0.2308
20144TIP3    H281924   4.267   4.797  10.950 -1.3014  0.4792 -1.0434
20145TIP3   OH281925   0.112   2.320   3.222  0.6719 -0.3111  0.1383
20145TIP3    H181926   0.141   2.308   3.132  0.2373 -0.9605  0.0850
20145TIP3    H281927   0.137   2.239   3.267  0.3547 -0.2352  0.4575
20146TIP3   OH281928   3.536   5.127  11.455 -0.6122 -0.1524 -0.0280
20146TIP3    H181929   3.523   5.217  11.485  1.0355  0.0015  0.2898
20146TIP3    H281930   3.631   5.121  11.441 -0.9742 -1.2221 -2.0211
20147TIP3   OH281931   5.144   2.287  11.753  0.2269 -0.5056 -0.4906
20147TIP3    H181932   5.187   2.323  11.675  0.0968  0.3288 -0.1864
20147TIP3    H281933   5.112   2.364  11.800 -3.9262 -1.1571 -1.9942
20148TIP3   OH281934   0.403   0.436  15.724  0.2928  0.3010 -0.3099
20148TIP3    H181935   0.419   0.372  15.793 -1.9372 -1.1136 -1.0651
20148TIP3    H281936   0.412   0.521  15.767  2.0730 -0.5176  0.9728
20149TIP3   OH281937   3.689   5.861  14.426 -0.2439 -0.1957 -0.1305
20149TIP3    H181938   3.726   5.829  14.344  0.2675 -1.1390  0.4613
20149TIP3    H281939   3.762   5.902  14.472 -0.5565  0.4519 -0.2039
20150TIP3   OH281940   2.314   3.139  16.691 -0.0088  0.0552 -0.0844
20150TIP3    H181941   2.227   3.101  16.702  0.2746 -0.5336  0.1157
20150TIP3    H281942   2.328   3.139  16.596  0.1595 -0.7049 -0.0570
20151TIP3   OH281943   4.692   2.900   6.103  0.0808 -0.3591  0.0340
20151TIP3    H181944   4.607   2.941   6.116  0.9075  1.5328 -0.1638
20151TIP3    H281945   4.692   2.872   6.011 -0.4119 -0.5553  0.0970
20152TIP3   OH281946   3.888   2.187   2.178  0.2345  0.1661 -0.1687
20152TIP3    H181947   3.975   2.181   2.217 -0.5789  0.7509  1.8153
20152TIP3    H281948   3.829   2.158   2.247 -1.4147  3.0010 -0.2800
20153TIP3   OH281949   0.659   1.284   2.883  0.0132 -0.0205  0.5314
20153TIP3    H181950   0.564   1.288   2.868  0.2461  0.1505 -0.9971
20153TIP3    H281951   0.694   1.356   2.831  1.1413 -1.1599 -0.3121
20154TIP3   OH281952   5.129   6.747   1.710  0.3923 -0.2101  0.1635
20154TIP3    H181953   5.175   6.804   1.772  0.3757  1.3947 -1.2454
20154TIP3    H281954   5.083   6.808   1.651 -1.3643 -1.7301 -0.0896
20155TIP3   OH281955   5.715   0.165   2.100  0.2572 -0.1389 -0.2600
20155TIP3    H181956   5.806   0.145   2.124 -0.0301  2.2539  3.1448
20155TIP3    H281957   5.716   0.259   2.080 -1.3678 -0.1905 -0.6021
20156TIP3   OH281958   4.273   3.134   3.355  0.1331 -0.0084  0.4310
20156TIP3    H181959   4.194   3.093   3.322  0.1611 -0.5859  1.0548
20156TIP3    H281960   4.312   3.067   3.412 -0.2269  1.1689  2.0930
20157TIP3   OH281961   2.431   2.980   1.785 -0.6152  0.3934  0.4916
20157TIP3    H181962   2.373   3.019   1.851  0.0997  2.6342 -0.1635
20157TIP3    H281963   2.519   2.991   1.821 -0.4300 -1.0615  0.4984
20158TIP3   OH281964   2.134   2.909   0.855  0.0595  0.0104  0.0112
20158TIP3    H181965   2.138   2.985   0.913  0.1577  0.6510 -0.8300
20158TIP3    H281966   2.126   2.946   0.767 -1.6900 -0.9574 -0.2603
20159TIP3   OH281967   2.497   3.628   4.112 -0.1053  0.2382 -0.4205
20159TIP3    H181968   2.527   3.710   4.152 -1.1970  0.2054  0.4801
20159TIP3    H281969   2.520   3.560   4.176  0.0512 -0.0670 -0.7973
20160TIP3   OH281970   4.602   3.215  16.315  0.3538 -0.0516 -0.5332
20160TIP3    H181971   4.677   3.275  16.309  0.5188 -0.2128 -0.1210
20160TIP3    H281972   4.641   3.129  16.331  0.0398  0.0504  0.8598
20161TIP3   OH281973   6.537   2.634   4.033 -0.1276 -0.0755  0.0788
20161TIP3    H181974   6.604   2.701   4.020  0.4865 -0.9690 -1.5470
20161TIP3    H281975   6.542   2.613   4.126  1.2115  0.5214  0.1569
20162TIP3   OH281976   6.635   0.806  15.180 -0.1887  0.0318  0.0209
20162TIP3    H181977   6.640   0.785  15.087  1.0253 -1.1950  0.3414
20162TIP3    H281978   6.681   0.890  15.188  0.2538 -0.1669 -0.3981
20163TIP3   OH281979   5.203   4.668   3.881 -0.5701  0.0901 -0.5704
20163TIP3    H181980   5.151   4.669   3.962  0.5153  0.0113  0.1373
20163TIP3    H281981   5.293   4.656   3.911 -0.1838 -0.1232 -1.8130
20164TIP3   OH281982   1.256   1.396   5.675 -0.4004 -0.6162  0.4510
20164TIP3    H181983   1.206   1.326   5.632  0.7370 -2.1052  1.5216
20164TIP3    H281984   1.218   1.403   5.762  0.8186 -1.2972  1.0413
20165TIP3   OH281985   5.063   2.758  14.660  0.3565  0.0866 -0.1261
20165TIP3    H181986   5.028   2.708  14.586  0.5851 -0.2270 -0.0230
20165TIP3    H281987   5.137   2.807  14.624  1.5702 -1.4164  0.2800
20166TIP3   OH281988   1.222   1.309   3.840 -0.1849 -0.3071  0.4107
20166TIP3    H181989   1.305   1.300   3.795 -0.2476 -1.0443  0.4437
20166TIP3    H281990   1.200   1.221   3.870 -0.9370 -0.1100  0.4725
20167TIP3   OH281991   0.918   1.195   0.817 -0.6776 -0.0484  0.0910
20167TIP3    H181992   0.870   1.263   0.770 -0.0148  0.6955  0.4936
20167TIP3    H281993   0.935   1.232   0.904  0.9295 -0.1604 -0.1610
20168TIP3   OH281994   6.109   6.201  15.623  0.0810  0.1164  0.1130
20168TIP3    H181995   6.133   6.246  15.542  1.1857  0.4515  0.6194
20168TIP3    H281996   6.092   6.270  15.686  1.4953 -0.1312  0.8063
20169TIP3   OH281997   1.344   2.534   2.659  0.7168 -0.0520  0.4785
20169TIP3    H181998   1.336   2.461   2.720  0.0570 -0.2951  0.1117
20169TIP3    H281999   1.327   2.495   2.573  0.5240  0.5004  0.2621
20170TIP3   OH282000   6.397   6.117  15.457  0.5806  0.8031  0.4521
20170TIP3    H182001   6.391   6.213  15.460 -0.5616  0.6979  2.2655
20170TIP3    H282002   6.406   6.091  15.548 -0.8231 -0.9393  0.1090
20171TIP3   OH282003   1.910   1.615   3.260 -0.1833  0.7753 -0.1574
20171TIP3    H182004   1.904   1.558   3.337  1.3392 -0.8049 -1.1933
20171TIP3    H282005   1.825   1.606   3.217 -0.6072  0.7420  0.6703
20172TIP3   OH282006   0.627   0.623   1.589 -0.1403 -0.3123 -0.3678
20172TIP3    H182007   0.594   0.622   1.678 -1.0198 -2.4521 -0.6787
20172TIP3    H282008   0.555   0.658   1.536 -0.4852 -1.2346 -0.5235
20173TIP3   OH282009   0.135   5.099   5.722 -0.1508  0.3031  0.3275
20173TIP3    H182010   0.077   5.024   5.736 -1.7894  1.3126 -0.7144
20173TIP3    H282011   0.164   5.125   5.809  1.3696 -2.2279  0.6025
20174TIP3   OH282012   2.820   2.868  14.295  0.2745  0.1009 -0.6635
20174TIP3    H182013   2.845   2.879  14.387 -2.3885 -0.7251  0.1961
20174TIP3    H282014   2.725   2.878  14.294  0.2019 -0.4206 -3.2582
20175TIP3   OH282015   3.161   6.387   2.887 -0.5827 -0.3064  0.0603
20175TIP3    H182016   3.169   6.385   2.791  0.8414 -0.7801  0.1840
20175TIP3    H282017   3.088   6.448   2.903  1.0148  2.0300 -1.2274
20176TIP3   OH282018   4.873   1.146   5.568  0.2299  0.3621  0.1592
20176TIP3    H182019   4.893   1.127   5.659 -0.9458  0.3056  0.4225
20176TIP3    H282020   4.902   1.069   5.520 -1.6422 -0.8023  0.8330
20177TIP3   OH282021   1.573   6.321  12.006  0.0912 -0.7771 -0.7838
20177TIP3    H182022   1.483   6.305  12.035 -0.5179 -0.4581 -2.4884
20177TIP3    H282023   1.593   6.410  12.037 -0.4003 -0.6054 -0.9602
20178TIP3   OH282024   4.442   3.725   3.847 -0.4209  0.1996  0.0023
20178TIP3    H182025   4.455   3.743   3.940  0.2056  1.2424 -0.2770
20178TIP3    H282026   4.530   3.729   3.808 -0.7435  0.3453 -0.7289
20179TIP3   OH282027   0.203   0.695   3.262 -0.1660 -0.2066 -0.4847
20179TIP3    H182028   0.148   0.633   3.311 -0.3387  1.4854  1.5270
20179TIP3    H282029   0.287   0.650   3.253 -0.8221 -1.4328 -0.5895
20180TIP3   OH282030   1.066   0.642  12.081 -0.2435  0.1183  0.5040
20180TIP3    H182031   1.065   0.684  12.167  2.4145 -0.3211  0.7897
20180TIP3    H282032   1.103   0.708  12.022  0.4002 -0.4917  0.2142
20181TIP3   OH282033   1.492   0.201  11.312 -0.4730  0.0432  0.1753
20181TIP3    H182034   1.535   0.216  11.228  0.3740  2.1677  0.9676
20181TIP3    H282035   1.488   0.106  11.320  2.8281 -0.2050 -0.5500
20182TIP3   OH282036   0.115   5.072   1.474 -0.4938  0.3658 -0.2190
20182TIP3    H182037   0.201   5.062   1.435  0.2279  3.8388  0.3147
20182TIP3    H282038   0.121   5.030   1.559  1.2438  2.1347  0.5491
20183TIP3   OH282039   5.258   6.041  13.697 -0.0163 -0.1490  0.2601
20183TIP3    H182040   5.308   6.102  13.752 -1.6960  1.0482  0.4739
20183TIP3    H282041   5.197   5.999  13.757 -2.3247  1.6527 -0.7568
20184TIP3   OH282042   1.271   1.286  13.242  0.4557 -0.1437 -0.4789
20184TIP3    H182043   1.263   1.198  13.207  1.2217  0.1531 -1.4391
20184TIP3    H282044   1.194   1.333  13.208  1.3356  0.2165 -2.0204
20185TIP3   OH282045   5.671   4.702   4.643  0.1946 -0.4171 -0.1359
20185TIP3    H182046   5.720   4.646   4.702  2.3824  1.3232 -0.2335
20185TIP3    H282047   5.737   4.737   4.583 -1.4229  0.6768 -1.3185
20186TIP3   OH282048   5.439   3.143  12.687  0.0616  0.0058  0.1995
20186TIP3    H182049   5.508   3.209  12.685 -0.3902  0.4516 -0.9581
20186TIP3    H282050   5.479   3.066  12.647  0.0325  0.1175 -0.0442
20187TIP3   OH282051   3.698   4.362   1.867  0.3270  0.0098 -0.1980
20187TIP3    H182052   3.616   4.392   1.829  0.1060 -1.0012 -0.5220
20187TIP3    H282053   3.684   4.367   1.962  0.0905  0.3568 -0.2508
20188TIP3   OH282054   6.389   5.615  11.643  0.1548 -0.6996 -0.1804
20188TIP3    H182055   6.403   5.709  11.642 -0.2319 -0.6523 -0.7503
20188TIP3    H282056   6.476   5.578  11.626  0.5673 -0.4766  1.3230
20189TIP3   OH282057   2.232   5.306   1.850  0.0059 -0.0829 -0.0455
20189TIP3    H182058   2.186   5.336   1.772 -0.0764 -0.7117 -0.2383
20189TIP3    H282059   2.202   5.365   1.919  1.5851  1.7261 -0.8731
20190TIP3   OH282060   2.987   0.475  15.334  0.3253 -0.2032  0.7271
20190TIP3    H182061   3.023   0.542  15.393 -0.3506  1.7139 -0.9820
20190TIP3    H282062   2.895   0.468  15.360  0.2464 -0.0092  0.5031
20191TIP3   OH282063   4.433   2.411  14.816  0.4449  0.0423  0.3040
20191TIP3    H182064   4.488   2.468  14.870  0.8526 -0.2075  0.1478
20191TIP3    H282065   4.360   2.467  14.789  0.7598  0.4472  0.2893
20192TIP3   OH282066   2.659   6.182  12.997  0.5709 -0.7370 -0.0203
20192TIP3    H182067   2.735   6.217  13.043 -0.3994  0.8398  0.4027
20192TIP3    H282068   2.679   6.089  12.985  1.5321 -0.8448  2.1832
20193TIP3   OH282069   0.064   2.027  15.307  0.3470  0.4419 -0.5056
20193TIP3    H182070   0.143   2.015  15.254 -0.0268 -1.5831 -0.6352
20193TIP3    H282071  -0.008   2.026  15.243 -0.0191 -0.8843 -0.0826
20194TIP3   OH282072   2.711   0.995  15.727 -0.2515  0.4896  0.2980
20194TIP3    H182073   2.797   0.979  15.687  0.5884  1.0640  1.8306
20194TIP3    H282074   2.650   0.945  15.673  1.2344 -1.1477  0.0783
20195TIP3   OH282075   1.179   0.555  16.073  0.0752 -0.1398  0.3856
20195TIP3    H182076   1.248   0.544  16.138 -0.0531 -0.3774  0.4790
20195TIP3    H282077   1.097   0.543  16.121 -0.0409  0.2987  0.3082
20196TIP3   OH282078   5.392   2.388  11.994  0.4175  0.0702  0.4642
20196TIP3    H182079   5.302   2.415  11.979 -0.0175 -2.2845 -1.4580
20196TIP3    H282080   5.389   2.333  12.072  0.3164  0.4937  0.7623
20197TIP3   OH282081   3.776   4.377  11.497  0.3853 -0.1762 -0.2455
20197TIP3    H182082   3.725   4.458  11.493  0.9936  0.4110  3.0932
20197TIP3    H282083   3.725   4.315  11.445 -0.8882  1.8823 -1.5569
20198TIP3   OH282084   4.391   2.525  12.933  0.6434 -0.0296  0.1236
20198TIP3    H182085   4.333   2.570  12.994  1.1061  2.1610 -0.9607
20198TIP3    H282086   4.417   2.445  12.978 -0.6441  0.5325  1.9267
20199TIP3   OH282087   2.173   3.469   2.300  0.0533 -0.4054  0.0635
20199TIP3    H182088   2.088   3.510   2.318  0.3121  0.6487 -1.0142
20199TIP3    H282089   2.183   3.476   2.205  0.4378 -2.3509 -0.0554
20200TIP3   OH282090   0.951   5.203   3.132 -0.1341  0.3589  0.4626
20200TIP3    H182091   0.943   5.143   3.058  0.3816  2.2216 -1.1178
20200TIP3    H282092   0.998   5.152   3.199  1.7566 -0.4740 -1.4429
20201TIP3   OH282093   4.097   2.907  13.187 -0.3460 -0.6802 -0.1517
20201TIP3    H182094   4.142   2.881  13.107 -1.6571 -1.8918 -0.5224
20201TIP3    H282095   4.101   3.003  13.188  0.4664 -0.7069 -1.1992
20202TIP3   OH282096   5.206   4.402  16.766  0.3188  0.0741 -0.4602
20202TIP3    H182097   5.177   4.483  16.806  0.9461 -0.2729  0.7233
20202TIP3    H282098   5.294   4.422  16.733  0.1631  0.0968 -0.8656
20203TIP3   OH282099   5.758   0.802   0.735  0.1876  0.0461  0.2226
20203TIP3    H182100   5.788   0.726   0.684 -0.6754 -0.2585  0.1609
20203TIP3    H282101   5.689   0.767   0.792  1.1541  0.3788  1.6268
20204TIP3   OH282102   0.876   5.859  17.036  0.4146 -0.1920 -0.0593
20204TIP3    H182103   0.908   5.777  17.072  1.6419 -0.8262 -2.4829
20204TIP3    H282104   0.784   5.864  17.063  0.1963 -2.6029 -0.3244
20205TIP3   OH282105   5.155   0.200  16.544  0.0235 -0.4255  0.0926
20205TIP3    H182106   5.113   0.171  16.625  1.2364 -0.7516  0.6208
20205TIP3    H282107   5.235   0.243  16.572 -2.0524  4.1587 -0.6531
20206TIP3   OH282108   1.911   1.779  11.533 -0.1460  0.0779 -0.5398
20206TIP3    H182109   1.886   1.867  11.505  0.6969  0.6315  0.4128
20206TIP3    H282110   2.003   1.770  11.508  0.1950  0.0313  0.6670
20207TIP3   OH282111   5.043   6.642   0.834  0.1623  0.4936 -0.0047
20207TIP3    H182112   5.036   6.560   0.785 -1.9890  0.5878  0.0832
20207TIP3    H282113   5.134   6.669   0.823  1.1718 -2.4093  0.7954
20208TIP3   OH282114   2.403   0.230  13.311 -0.1872  0.1295  0.6970
20208TIP3    H182115   2.454   0.178  13.372  2.0208 -0.6274 -1.7013
20208TIP3    H282116   2.405   0.319  13.347  2.8625  0.1100  0.6531
20209TIP3   OH282117   2.875   2.842  16.714 -0.3559 -0.3455  0.5348
20209TIP3    H182118   2.792   2.838  16.665 -0.8042 -0.6576  1.3086
20209TIP3    H282119   2.888   2.753  16.748 -0.5297  0.0746  1.7457
20210TIP3   OH282120   0.476   4.760  15.060  0.8169  0.1335  0.1973
20210TIP3    H182121   0.514   4.779  15.146  0.2404  2.0343  0.0528
20210TIP3    H282122   0.548   4.771  14.999  0.9461 -0.0701  0.3101
20211TIP3   OH282123   6.271   0.466   6.179 -1.1037 -0.5847  0.6215
20211TIP3    H182124   6.348   0.410   6.191 -0.3079  0.4284  0.3087
20211TIP3    H282125   6.298   0.551   6.214 -1.6128  0.1436 -0.7133
20212TIP3   OH282126   6.474   0.678   3.153 -0.3331  0.0459  0.5058
20212TIP3    H182127   6.565   0.652   3.166  0.1073  1.6918  0.8059
20212TIP3    H282128   6.476   0.728   3.071 -0.8801  0.5156  0.7818
20213TIP3   OH282129   2.335   3.438  17.131 -0.7078  0.0988 -0.0526
20213TIP3    H182130   2.338   3.524  17.089 -1.8382  1.6732  2.9310
20213TIP3    H282131   2.424   3.424  17.163 -0.5773  0.2600 -0.3418
20214TIP3   OH282132   6.388   2.281  16.956  0.2179  0.3179  0.0221
20214TIP3    H182133   6.385   2.279  16.860 -2.9149  0.6261  0.0425
20214TIP3    H282134   6.473   2.244  16.978 -0.8109 -4.1211 -2.7602
20215TIP3   OH282135   5.923   3.033   2.772 -0.3928  0.2001 -0.2346
20215TIP3    H182136   5.857   3.100   2.789 -2.6835 -1.8288 -0.8775
20215TIP3    H282137   5.911   3.011   2.679 -1.3372 -2.8002  0.5515
20216TIP3   OH282138   4.493   2.651   1.175  0.5452  0.6790  0.2184
20216TIP3    H182139   4.514   2.575   1.120  0.8851  2.0614 -1.6276
20216TIP3    H282140   4.458   2.614   1.256 -2.5197 -1.4201 -1.9529
20217TIP3   OH282141   5.603   2.912   5.228  1.0572  0.1885  0.6026
20217TIP3    H182142   5.526   2.936   5.280  0.0570 -1.4805 -0.0631
20217TIP3    H282143   5.644   2.995   5.208 -1.9305  1.3584 -1.0530
20218TIP3   OH282144   0.220   4.170   0.366 -0.8872  0.4113 -0.4325
20218TIP3    H182145   0.216   4.172   0.462  0.1605  0.1576 -0.3761
20218TIP3    H282146   0.136   4.133   0.339 -0.5436 -1.0499  0.4555
20219TIP3   OH282147   5.248   0.641   2.710 -0.1821 -0.1954 -0.2947
20219TIP3    H182148   5.199   0.715   2.746  0.3084  0.4871 -1.0109
20219TIP3    H282149   5.334   0.647   2.752 -0.4256 -0.8786  0.3070
20220TIP3   OH282150   1.595   4.775  13.704  0.0016  0.2510  0.3662
20220TIP3    H182151   1.518   4.806  13.657 -0.2618 -0.2664  0.4485
20220TIP3    H282152   1.572   4.784  13.796 -0.1035 -0.2453  0.3901
20221TIP3   OH282153   1.225   4.638   6.798  0.2923  0.3732 -0.0382
20221TIP3    H182154   1.163   4.699   6.757 -0.5508 -1.3662 -1.4493
20221TIP3    H282155   1.173   4.591   6.864  1.0196  1.3999  1.2740
20222TIP3   OH282156   3.953   4.931  12.365  0.5116  0.3899 -0.6010
20222TIP3    H182157   4.011   4.867  12.324 -0.4789 -1.1372  0.3053
20222TIP3    H282158   3.890   4.878  12.414  0.5090  2.1051  1.3253
20223TIP3   OH282159   6.336   4.779  14.409  0.3612  0.6084  0.0597
20223TIP3    H182160   6.381   4.839  14.468  3.5200 -1.6315  0.0601
20223TIP3    H282161   6.358   4.692  14.442 -1.1027 -0.6293 -2.0769
20224TIP3   OH282162   4.873   4.472  15.282 -0.2260  0.3680  0.1025
20224TIP3    H182163   4.964   4.469  15.314 -0.1330  0.8327 -0.1194
20224TIP3    H282164   4.842   4.382  15.290  1.1622 -0.3666 -2.4696
20225TIP3   OH282165   1.015   3.657   0.113 -0.3578  0.3084  0.6141
20225TIP3    H182166   0.943   3.602   0.084  0.3626  0.0084 -0.6655
20225TIP3    H282167   1.008   3.736   0.059 -0.2206  0.6186  1.0509
20226TIP3   OH282168   3.051   2.250   5.678 -0.0107  0.2562  0.3410
20226TIP3    H182169   2.968   2.293   5.657 -0.0391 -0.3817 -0.8928
20226TIP3    H282170   3.088   2.302   5.749 -1.6052  0.3779  1.1069
20227TIP3   OH282171   1.995   5.781  13.562  0.4487  0.1688 -0.1422
20227TIP3    H182172   1.907   5.787  13.598  1.0447 -0.0795  1.3960
20227TIP3    H282173   2.010   5.687  13.551  0.6963  0.1904  0.0237
20228TIP3   OH282174   5.146   3.568   4.822  0.6702  0.0252  0.3420
20228TIP3    H182175   5.145   3.644   4.880  0.6522  1.6058 -1.6708
20228TIP3    H282176   5.060   3.527   4.834  0.1139  1.1861  0.3507
20229TIP3   OH282177   4.070   1.621   4.416  0.1689 -0.3299 -0.2626
20229TIP3    H182178   4.114   1.691   4.367 -0.0280  0.8114  1.1714
20229TIP3    H282179   4.063   1.654   4.505 -1.7807 -1.3353 -0.0060
20230TIP3   OH282180   0.550   4.503   2.664 -0.1475  0.2933  0.1643
20230TIP3    H182181   0.536   4.511   2.570 -0.1179  1.0484  0.2199
20230TIP3    H282182   0.642   4.479   2.674 -0.0240  0.7040  0.0180
20231TIP3   OH282183   3.073   5.864  15.920 -0.2452 -0.2941  0.1455
20231TIP3    H182184   3.153   5.811  15.915 -0.9683 -1.1926 -2.9263
20231TIP3    H282185   3.081   5.927  15.848 -2.4424 -0.6341 -0.4502
20232TIP3   OH282186   6.675   4.866  10.935  0.1970  0.3135  0.4757
20232TIP3    H182187   6.653   4.890  10.845 -1.4263 -0.3463  0.6925
20232TIP3    H282188   6.617   4.920  10.989 -0.3326 -0.8389  1.0722
20233TIP3   OH282189   4.087   0.035   1.528  0.1892  0.0211 -0.3887
20233TIP3    H182190   4.033  -0.041   1.551  1.9311 -1.4971 -1.1641
20233TIP3    H282191   4.081   0.041   1.433 -1.4349  2.0315 -0.1862
20234TIP3   OH282192   0.312   6.447  13.967  0.1475 -0.2669  0.2753
20234TIP3    H182193   0.387   6.432  14.025  1.0938 -0.5641 -1.0233
20234TIP3    H282194   0.348   6.491  13.891 -0.8685 -1.1144 -0.7174
20235TIP3   OH282195   0.455   5.132  15.087 -0.2000  0.5356 -0.2653
20235TIP3    H182196   0.409   5.090  15.160 -1.3167  1.0668 -0.6433
20235TIP3    H282197   0.401   5.208  15.066  0.4588  0.7433 -1.2229
20236TIP3   OH282198   4.981   2.120   3.386 -0.3419  0.2548  0.2987
20236TIP3    H182199   5.063   2.080   3.359 -0.0394  0.5296  0.8101
20236TIP3    H282200   4.921   2.047   3.399  0.5016 -0.1192  2.2418
20237TIP3   OH282201   0.475   5.853   5.313  0.3565  0.3244  0.4095
20237TIP3    H182202   0.553   5.844   5.259  0.1304  1.6182 -0.1611
20237TIP3    H282203   0.417   5.783   5.283  0.0930  1.2323 -1.3078
20238TIP3   OH282204   2.763   5.506   3.434 -0.3581 -0.6652 -0.1210
20238TIP3    H182205   2.783   5.430   3.381 -2.0132 -0.6456 -0.7929
20238TIP3    H282206   2.764   5.580   3.372 -0.5508 -0.4002  0.1884
20239TIP3   OH282207   5.737   0.784  12.952 -0.2728  0.1539 -0.2820
20239TIP3    H182208   5.663   0.844  12.957 -0.0650  0.4777 -1.0185
20239TIP3    H282209   5.701   0.703  12.917 -0.4406  0.0369  0.1602
20240TIP3   OH282210   0.425   1.172  16.436  0.5356 -0.2430 -0.3914
20240TIP3    H182211   0.479   1.162  16.514  1.3135  0.1039 -0.8787
20240TIP3    H282212   0.418   1.267  16.424 -2.0345 -0.2333  0.9321
20241TIP3   OH282213   5.812   0.709   2.828 -0.1778  0.0741 -0.1888
20241TIP3    H182214   5.724   0.700   2.864 -0.6864  0.5328 -1.3159
20241TIP3    H282215   5.843   0.793   2.861  0.5975 -0.9348  1.7802
20242TIP3   OH282216   5.362   2.927  17.052 -0.1723  0.2809 -0.2098
20242TIP3    H182217   5.448   2.958  17.083 -0.5996 -0.2774  1.6021
20242TIP3    H282218   5.328   2.999  16.999  0.1052  1.7652  1.5759
20243TIP3   OH282219   2.974   0.072   2.150  0.1317 -0.1582  0.0328
20243TIP3    H182220   2.926   0.152   2.130 -2.1289 -1.1055  1.4003
20243TIP3    H282221   3.066   0.096   2.143 -0.5141  2.5914  0.5982
20244TIP3   OH282222   3.295   3.771  13.287  0.0763  0.7993  0.1457
20244TIP3    H182223   3.304   3.722  13.206 -0.1946 -0.0998  0.6481
20244TIP3    H282224   3.222   3.729  13.333  0.1518  1.3680  0.7977
20245TIP3   OH282225   2.990   3.464   4.881 -0.6076  0.4499  0.1203
20245TIP3    H182226   2.901   3.467   4.847 -0.2124  1.5447 -0.8604
20245TIP3    H282227   2.985   3.405   4.956 -1.9549 -0.2606 -0.5065
20246TIP3   OH282228   1.171   0.854   5.339  0.4411  0.0652  0.1506
20246TIP3    H182229   1.142   0.790   5.404  0.2572 -0.9447 -0.9077
20246TIP3    H282230   1.207   0.926   5.391  1.0887 -1.0995  1.3393
20247TIP3   OH282231   2.975   0.880  15.096 -0.7299 -0.5239 -0.0491
20247TIP3    H182232   3.057   0.899  15.141  0.7769 -3.0904 -1.5817
20247TIP3    H282233   2.942   0.965  15.069  2.5962  0.4459 -1.3582
20248TIP3   OH282234   3.859   0.224  10.975  0.4468  0.2126  0.5623
20248TIP3    H182235   3.882   0.295  10.914  0.6079  0.1112  0.5050
20248TIP3    H282236   3.766   0.238  10.994  0.6405  0.8290  1.0670
20249TIP3   OH282237   0.717   5.496   1.813 -0.1821  0.3448 -0.0477
20249TIP3    H182238   0.629   5.469   1.786 -0.8447  1.4552  0.9653
20249TIP3    H282239   0.735   5.444   1.892  1.0310 -1.5799 -1.5332
20250TIP3   OH282240   1.129   5.120   3.807 -0.0354 -0.1297  0.1550
20250TIP3    H182241   1.174   5.162   3.734 -0.8439 -0.1248 -0.3497
20250TIP3    H282242   1.167   5.033   3.813 -0.3031 -0.3010 -0.5869
20251TIP3   OH282243   4.764   4.639   3.734 -0.0367  0.2809 -0.0388
20251TIP3    H182244   4.679   4.683   3.736 -0.5250 -0.6605  0.5438
20251TIP3    H282245   4.815   4.683   3.801 -0.0039  0.9577 -0.4993
20252TIP3   OH282246   3.780   5.108  17.111 -0.8760 -0.2461 -0.2240
20252TIP3    H182247   3.818   5.049  17.176 -0.1625 -0.4370 -0.8118
20252TIP3    H282248   3.848   5.120  17.045 -0.6749  2.0183  0.3650
20253TIP3   OH282249   3.426   2.848  12.417 -0.1852  0.0965 -0.2766
20253TIP3    H182250   3.520   2.852  12.397 -0.0237 -3.0194 -0.3489
20253TIP3    H282251   3.387   2.805  12.341 -1.8776  2.4393 -0.7735
20254TIP3   OH282252   5.358   5.868  12.948 -0.2267 -0.2400 -0.7046
20254TIP3    H182253   5.286   5.852  12.887 -1.2030 -0.5607  0.5235
20254TIP3    H282254   5.434   5.825  12.908 -0.9200 -0.6642 -1.5676
20255TIP3   OH282255   1.068   0.450   5.740 -0.1673  0.2613 -0.1428
20255TIP3    H182256   1.141   0.494   5.696 -0.7861  1.6779  0.1915
20255TIP3    H282257   1.109   0.380   5.791  0.7864  0.0399 -1.1835
20256TIP3   OH282258   5.415   5.421  10.988 -0.5387 -0.2121  0.5468
20256TIP3    H182259   5.415   5.479  10.912 -0.7213  1.9400  2.1281
20256TIP3    H282260   5.323   5.413  11.012 -0.5713 -1.6815 -0.0148
20257TIP3   OH282261   0.328   0.000   3.704  0.4988 -0.7102 -0.1327
20257TIP3    H182262   0.369   0.060   3.641 -0.2142  0.1896  0.2409
20257TIP3    H282263   0.281  -0.063   3.650 -0.4472  0.2998 -0.5148
20258TIP3   OH282264   3.281   1.129   3.191 -0.0549  0.5245  0.4036
20258TIP3    H182265   3.300   1.036   3.194  0.9144  0.5845 -2.3846
20258TIP3    H282266   3.347   1.165   3.132 -2.5939  2.3897 -1.3677
20259TIP3   OH282267   3.972   6.016   2.349 -1.1476 -0.8981 -0.1830
20259TIP3    H182268   4.008   6.016   2.260 -2.3250  0.2400 -0.6569
20259TIP3    H282269   4.035   6.066   2.400 -0.4290 -1.6206 -0.3440
20260TIP3   OH282270   4.121   6.193   5.675 -0.4537 -0.2784  0.4066
20260TIP3    H182271   4.156   6.124   5.618  1.5013  2.9022 -2.4335
20260TIP3    H282272   4.060   6.241   5.619 -2.1684  0.0618  2.4949
20261TIP3   OH282273   4.514   4.767   5.121 -0.1767 -0.3732  0.4616
20261TIP3    H182274   4.482   4.699   5.180  1.0557 -0.3122  1.2120
20261TIP3    H282275   4.499   4.849   5.168  0.3856 -0.2910  0.5043
20262TIP3   OH282276   5.854   2.612  13.896  0.0966 -0.2030  0.0815
20262TIP3    H182277   5.839   2.592  13.803  0.7919  0.6111 -0.2184
20262TIP3    H282278   5.923   2.679  13.895 -0.2227  0.1515  1.1678
20263TIP3   OH282279   1.666   1.605  12.531 -0.3749  0.2180  0.0066
20263TIP3    H182280   1.579   1.566  12.517 -0.4833  0.8664 -1.2606
20263TIP3    H282281   1.666   1.683  12.476  0.2852  1.3497  1.5917
20264TIP3   OH282282   2.400   0.936   0.170 -0.3304  0.1994 -1.0511
20264TIP3    H182283   2.460   0.879   0.218 -0.8172 -1.6883 -2.5993
20264TIP3    H282284   2.455   1.009   0.142  1.3796 -1.5613 -2.5631
20265TIP3   OH282285   1.959   4.958   2.359 -0.9312 -0.0671  0.6492
20265TIP3    H182286   1.919   4.983   2.442  0.8487 -0.3352  1.6226
20265TIP3    H282287   1.977   5.041   2.315 -3.3688  0.0399 -0.2444
20266TIP3   OH282288   3.128   1.477   3.369 -0.0122 -0.4987  0.3558
20266TIP3    H182289   3.115   1.539   3.298  0.2103  0.0487  0.7848
20266TIP3    H282290   3.041   1.442   3.388 -0.3053  0.5058  0.8508
20267TIP3   OH282291   1.980   6.533   6.518 -0.2789  0.2456  0.4608
20267TIP3    H182292   1.887   6.553   6.508 -0.3569 -0.7733 -0.9278
20267TIP3    H282293   2.024   6.612   6.486 -0.6465  0.6458  0.9197
20268TIP3   OH282294   4.762   4.262  12.476  0.8600  0.6685  0.1031
20268TIP3    H182295   4.831   4.263  12.542  0.2319  2.4704  0.7728
20268TIP3    H282296   4.705   4.189  12.502  0.5701  1.4096  1.6218
20269LIG     O182297   1.884   4.943  16.328 -0.3636 -0.5275  0.3723
20269LIG     O282298   1.677   5.183  15.989 -0.8866  0.0474 -0.2226
20269LIG     N182299   1.694   5.280  16.201 -0.1554 -0.0776 -0.4311
20269LIG     N282300   1.865   5.203  16.492 -0.0269 -0.5142  0.1330
20269LIG     N382301   1.751   5.058  16.166  0.1245  0.6410  0.1058
20269LIG     N482302   1.742   5.384  16.412  0.0725 -0.1831  0.4190
20269LIG     C182303   1.820   5.168  16.373 -0.1419 -0.3715  0.2558
20269LIG     C282304   1.745   5.278  16.325  0.1086  0.0927 -0.3208
20269LIG     C382305   1.825   5.049  16.292  0.4542  0.0737  0.2149
20269LIG     C482306   1.702   5.176  16.108  0.3364 -0.1230  0.0097
20269LIG     C582307   1.814   5.331  16.511 -0.9387  0.4297 -0.4277
20269LIG     C682308   1.627   5.398  16.152  0.6743  0.5791  0.0465
20269LIG     C782309   1.947   5.126  16.580 -0.0841 -0.1271 -0.1595
20269LIG     C882310   1.761   4.940  16.079 -0.8440 -0.1587 -0.2318
20269LIG     H182311   1.849   5.388  16.597 -1.9186  1.4015 -0.6607
20269LIG     H282312   1.564   5.383  16.062  0.0959  0.5247  0.4556
20269LIG     H382313   1.708   5.464  16.112  1.6148 -0.5106  0.1096
20269LIG     H482314   1.568   5.452  16.229  1.0124 -0.9456  1.3894
20269LIG     H582315   1.891   5.040  16.622 -1.2607  1.2332  1.0646
20269LIG     H682316   1.966   5.199  16.662 -1.1401 -0.3254  0.2597
20269LIG     H782317   2.043   5.095  16.532 -0.8295 -1.6195 -0.6955
20269LIG     H882318   1.868   4.938  16.050 -0.8342 -1.4209 -0.1159
20269LIG     H982319   1.704   4.936  15.983 -0.3981  1.2051 -0.5661
20269LIG    H1082320   1.742   4.848  16.137 -0.5864  0.7912  1.3793
   6.82013   6.82013  17.29240
